                               Psi4 1.3.2 release

  ==> Input File <==

--------------------------------------------------------------------------
#psi4
#
memory 32 gb

molecule  {
0 1
  N       -0.0163110    -1.1135150     0.2687020
  C       -1.1652590    -0.5133351     0.0929755
  C        1.2381220    -0.5006260     0.1304260
  C       -2.4182660    -1.1561390     0.4533410
  C        2.2667570    -1.1558630    -0.5622090
  C       -1.3663670     0.8217430    -0.4624040
  C        1.5092770     0.7278700     0.7556340
  C       -3.6714090    -0.5759060     0.2727570
  C        3.5406120    -0.5923050    -0.6332660
  C       -2.6261210     1.4012190    -0.6198330
  C        2.7778010     1.2960600     0.6560260
  C       -3.7841190     0.7131400    -0.2541910
  C        3.8015860     0.6410890    -0.0341290
  H       -0.0267310    -2.1016380     0.0386100
  H       -2.3298760    -2.1493130     0.8905540
  H        2.0612250    -2.1062600    -1.0527600
  H       -0.4782440     1.3547320    -0.7878460
  H        0.7296610     1.2176160     1.3328820
  H       -4.5621930    -1.1275980     0.5644400
  H        4.3269750    -1.1156860    -1.1722660
  H       -2.6987240     2.4001080    -1.0444480
  H        2.9731640     2.2486720     1.1432600
  H       -4.7609150     1.1715970    -0.3832790
  H        4.7911470     1.0854140    -0.1002240
units angstrom
no_reorient  #important for SAPT in psi4, default
symmetry c1  #important for SAPT in psi4, default
}

set PROPERTIES_ORIGIN ["COM"]
properties('MP2/aug-cc-pvtz', properties = ['dipole'])
--------------------------------------------------------------------------

    Molecular point group: c1
  Charge       = 0
  Multiplicity = 1
  Basis Set: AUG-CC-PVTZ
    Blend: AUG-CC-PVTZ
  Basis Set: (AUG-CC-PVTZ AUX)
    Blend: AUG-CC-PVTZ-JKFIT

    Orbital Energies [Eh]
    ---------------------

    Doubly Occupied:

       1A    -15.590862     2A    -11.290344     3A    -11.289646
       4A    -11.245711     5A    -11.244701     6A    -11.240710
       7A    -11.237131     8A    -11.235561     9A    -11.235111
      10A    -11.234872    11A    -11.228364    12A    -11.227134
      13A    -11.218711    14A     -1.295468    15A     -1.152797
      16A     -1.121756    17A     -1.028962    18A     -1.022104
      19A     -1.003092    20A     -0.968371    21A     -0.852695
      22A     -0.848793    23A     -0.816147    24A     -0.793670
      25A     -0.724476    26A     -0.718695    27A     -0.682170
      28A     -0.663115    29A     -0.633036    30A     -0.621488
      31A     -0.601250    32A     -0.595527    33A     -0.591157
      34A     -0.573313    35A     -0.551083    36A     -0.523099
      37A     -0.509315    38A     -0.502877    39A     -0.500844
      40A     -0.475510    41A     -0.450067    42A     -0.345572
      43A     -0.339220    44A     -0.333138    45A     -0.271897

  @DF-RHF Final Energy:  -515.42689107363913

   => Energetics <=

    Nuclear Repulsion Energy =            695.4426874049685239
    One-Electron Energy =               -2076.4800341357099569
    Two-Electron Energy =                 865.6104556571021931
    Total Energy =                       -515.4268910736391263
  Basis Set: (AUG-CC-PVTZ AUX)
    Blend: AUG-CC-PVTZ-RI
    Molecular point group: c1

    Geometry (in Angstrom), charge = 0, multiplicity = 1:

       Center              X                  Y                   Z               Mass
    ------------   -----------------  -----------------  -----------------  -----------------
         N           -0.022394490964    -1.105088920841     0.264392803946    14.003074004430
         C           -1.171342490964    -0.504909020841     0.088666303946    12.000000000000
         C            1.232038509036    -0.492199920841     0.126116803946    12.000000000000
         C           -2.424349490964    -1.147712920841     0.449031803946    12.000000000000
         C            2.260673509036    -1.147436920841    -0.566518196054    12.000000000000
         C           -1.372450490964     0.830169079159    -0.466713196054    12.000000000000
         C            1.503193509036     0.736296079159     0.751324803946    12.000000000000
         C           -3.677492490964    -0.567479920841     0.268447803946    12.000000000000
         C            3.534528509036    -0.583878920841    -0.637575196054    12.000000000000
         C           -2.632204490964     1.409645079159    -0.624142196054    12.000000000000
         C            2.771717509036     1.304486079159     0.651716803946    12.000000000000
         C           -3.790202490964     0.721566079159    -0.258500196054    12.000000000000
         C            3.795502509036     0.649515079159    -0.038438196054    12.000000000000
         H           -0.032814490964    -2.093211920841     0.034300803946     1.007825032230
         H           -2.335959490964    -2.140886920841     0.886244803946     1.007825032230
         H            2.055141509036    -2.097833920841    -1.057069196054     1.007825032230
         H           -0.484327490964     1.363158079159    -0.792155196054     1.007825032230
         H            0.723577509036     1.226042079159     1.328572803946     1.007825032230
         H           -4.568276490964    -1.119171920841     0.560130803946     1.007825032230
         H            4.320891509036    -1.107259920841    -1.176575196054     1.007825032230
         H           -2.704807490964     2.408534079159    -1.048757196054     1.007825032230
         H            2.967080509036     2.257098079159     1.138950803946     1.007825032230
         H           -4.766998490964     1.180023079159    -0.387588196054     1.007825032230
         H            4.785063509036     1.093840079159    -0.104533196054     1.007825032230

  Basis Set: AUG-CC-PVTZ
    Blend: AUG-CC-PVTZ
  Basis Set: (AUG-CC-PVTZ AUX)
    Blend: AUG-CC-PVTZ-JKFIT
	 Reference Energy          =    -515.4268910736391263 [Eh]
	 Singles Energy            =      -0.0000000000000000 [Eh]
	 Same-Spin Energy          =      -0.5808979043799669 [Eh]
	 Opposite-Spin Energy      =      -1.7976991111081309 [Eh]
	 Correlation Energy        =      -2.3785970154880980 [Eh]
	 Total Energy              =    -517.8054880891272660 [Eh]

	 ================> DF-SCS-MP2 Energies <==================
	-----------------------------------------------------------
	 SCS Same-Spin Scale       =       0.3333333333333333 [-]
	 SCS Opposite-Spin Scale   =       1.2000000000000000 [-]
	 SCS Same-Spin Energy      =      -0.1936326347933223 [Eh]
	 SCS Opposite-Spin Energy  =      -2.1572389333297570 [Eh]
	 SCS Correlation Energy    =      -2.3508715681230794 [Eh]
	 SCS Total Energy          =    -517.7777626417622514 [Eh]
	-----------------------------------------------------------

  Dipole Moment: [D]
     X:     1.0472      Y:    -0.8607      Z:    -0.2653     Total:     1.3812

*** Psi4 exiting successfully. Buy a developer a beer!
