                               Psi4 1.4a3.dev225

  ==> Input File <==

--------------------------------------------------------------------------
#psi4
#
memory 32 gb

molecule  {
0 1
  N       -0.0163110    -1.1135150     0.2687020
  C       -1.2706574    -0.4582778     0.0768553
  C        1.2381220    -0.5006260     0.1304260
  C       -2.4182660    -1.1561390     0.4533410
  C        2.2667570    -1.1558630    -0.5622090
  C       -1.3663670     0.8217430    -0.4624040
  C        1.5092770     0.7278700     0.7556340
  C       -3.6714090    -0.5759060     0.2727570
  C        3.5406120    -0.5923050    -0.6332660
  C       -2.6261210     1.4012190    -0.6198330
  C        2.7778010     1.2960600     0.6560260
  C       -3.7841190     0.7131400    -0.2541910
  C        3.8015860     0.6410890    -0.0341290
  H       -0.0267310    -2.1016380     0.0386100
  H       -2.3298760    -2.1493130     0.8905540
  H        2.0612250    -2.1062600    -1.0527600
  H       -0.4782440     1.3547320    -0.7878460
  H        0.7296610     1.2176160     1.3328820
  H       -4.5621930    -1.1275980     0.5644400
  H        4.3269750    -1.1156860    -1.1722660
  H       -2.6987240     2.4001080    -1.0444480
  H        2.9731640     2.2486720     1.1432600
  H       -4.7609150     1.1715970    -0.3832790
  H        4.7911470     1.0854140    -0.1002240
units angstrom
no_reorient  #important for SAPT in psi4, default
symmetry c1  #important for SAPT in psi4, default
}

set PROPERTIES_ORIGIN ["COM"]
properties('MP2/aug-cc-pvtz', properties = ['dipole'])
--------------------------------------------------------------------------

    Molecular point group: c1
  Charge       = 0
  Multiplicity = 1
  Basis Set: AUG-CC-PVTZ
    Blend: AUG-CC-PVTZ
  Basis Set: (AUG-CC-PVTZ AUX)
    Blend: AUG-CC-PVTZ-JKFIT

    Orbital Energies [Eh]
    ---------------------

    Doubly Occupied:

       1A    -15.578548     2A    -11.283707     3A    -11.282536
       4A    -11.240309     5A    -11.240279     6A    -11.239647
       7A    -11.239615     8A    -11.232858     9A    -11.231029
      10A    -11.229982    11A    -11.228426    12A    -11.228358
      13A    -11.227754    14A     -1.256097    15A     -1.152807
      16A     -1.126672    17A     -1.024052    18A     -1.018738
      19A     -1.012471    20A     -0.972939    21A     -0.845013
      22A     -0.839605    23A     -0.821055    24A     -0.794862
      25A     -0.715827    26A     -0.706441    27A     -0.677060
      28A     -0.655336    29A     -0.628671    30A     -0.622366
      31A     -0.597903    32A     -0.594196    33A     -0.586998
      34A     -0.586084    35A     -0.541135    36A     -0.520448
      37A     -0.507174    38A     -0.503750    39A     -0.495325
      40A     -0.493105    41A     -0.447780    42A     -0.342268
      43A     -0.339148    44A     -0.337634    45A     -0.281744

  @DF-RHF Final Energy:  -515.44174803556939

   => Energetics <=

    Nuclear Repulsion Energy =            695.2087510255187226
    One-Electron Energy =               -2076.2455007540715997
    Two-Electron Energy =                 865.5950016929834874
    Total Energy =                       -515.4417480355693897
  Basis Set: (AUG-CC-PVTZ AUX)
    Blend: AUG-CC-PVTZ-RI
    Molecular point group: c1

    Geometry (in Angstrom), charge = 0, multiplicity = 1:

       Center              X                  Y                   Z               Mass
    ------------   -----------------  -----------------  -----------------  -----------------
         N           -0.014914526668    -1.108996253763     0.265536830045    14.003074004430
         C           -1.269260926668    -0.453759053763     0.073690130045    12.000000000000
         C            1.239518473332    -0.496107253763     0.127260830045    12.000000000000
         C           -2.416869526668    -1.151620253763     0.450175830045    12.000000000000
         C            2.268153473332    -1.151344253763    -0.565374169955    12.000000000000
         C           -1.364970526668     0.826261746237    -0.465569169955    12.000000000000
         C            1.510673473332     0.732388746237     0.752468830045    12.000000000000
         C           -3.670012526668    -0.571387253763     0.269591830045    12.000000000000
         C            3.542008473332    -0.587786253763    -0.636431169955    12.000000000000
         C           -2.624724526668     1.405737746237    -0.622998169955    12.000000000000
         C            2.779197473332     1.300578746237     0.652860830045    12.000000000000
         C           -3.782722526668     0.717658746237    -0.257356169955    12.000000000000
         C            3.802982473332     0.645607746237    -0.037294169955    12.000000000000
         H           -0.025334526668    -2.097119253763     0.035444830045     1.007825032230
         H           -2.328479526668    -2.144794253763     0.887388830045     1.007825032230
         H            2.062621473332    -2.101741253763    -1.055925169955     1.007825032230
         H           -0.476847526668     1.359250746237    -0.791011169955     1.007825032230
         H            0.731057473332     1.222134746237     1.329716830045     1.007825032230
         H           -4.560796526668    -1.123079253763     0.561274830045     1.007825032230
         H            4.328371473332    -1.111167253763    -1.175431169955     1.007825032230
         H           -2.697327526668     2.404626746237    -1.047613169955     1.007825032230
         H            2.974560473332     2.253190746237     1.140094830045     1.007825032230
         H           -4.759518526668     1.176115746237    -0.386444169955     1.007825032230
         H            4.792543473332     1.089932746237    -0.103389169955     1.007825032230

  Basis Set: AUG-CC-PVTZ
    Blend: AUG-CC-PVTZ
  Basis Set: (AUG-CC-PVTZ AUX)
    Blend: AUG-CC-PVTZ-JKFIT
	 Reference Energy          =    -515.4417480355693897 [Eh]
	 Singles Energy            =      -0.0000000000000000 [Eh]
	 Same-Spin Energy          =      -0.5796802332629403 [Eh]
	 Opposite-Spin Energy      =      -1.7959887473068181 [Eh]
	 Correlation Energy        =      -2.3756689805697584 [Eh]
	 Total Energy              =    -517.8174170161391885 [Eh]

	 ================> DF-SCS-MP2 Energies <==================
	-----------------------------------------------------------
	 SCS Same-Spin Scale       =       0.3333333333333333 [-]
	 SCS Opposite-Spin Scale   =       1.2000000000000000 [-]
	 SCS Same-Spin Energy      =      -0.1932267444209801 [Eh]
	 SCS Opposite-Spin Energy  =      -2.1551864967681817 [Eh]
	 SCS Correlation Energy    =      -2.3484132411891618 [Eh]
	 SCS Total Energy          =    -517.7901612767585675 [Eh]
	-----------------------------------------------------------

  Dipole Moment: [D]
     X:    -0.0129      Y:    -0.6506      Z:    -0.3638     Total:     0.7456

*** Psi4 exiting successfully. Buy a developer a beer!
