                               Psi4 1.3.2 release

  ==> Input File <==

--------------------------------------------------------------------------
#psi4
#
memory 32 gb

molecule  {
0 1
  N       -0.0403490    -1.1523379     0.2868871
  C       -1.2530910    -0.4674540     0.0795420
  C        1.2381220    -0.5006260     0.1304260
  C       -2.4182660    -1.1561390     0.4533410
  C        2.2667570    -1.1558630    -0.5622090
  C       -1.3663670     0.8217430    -0.4624040
  C        1.5092770     0.7278700     0.7556340
  C       -3.6714090    -0.5759060     0.2727570
  C        3.5406120    -0.5923050    -0.6332660
  C       -2.6261210     1.4012190    -0.6198330
  C        2.7778010     1.2960600     0.6560260
  C       -3.7841190     0.7131400    -0.2541910
  C        3.8015860     0.6410890    -0.0341290
  H       -0.0267310    -2.1016380     0.0386100
  H       -2.3298760    -2.1493130     0.8905540
  H        2.0612250    -2.1062600    -1.0527600
  H       -0.4782440     1.3547320    -0.7878460
  H        0.7296610     1.2176160     1.3328820
  H       -4.5621930    -1.1275980     0.5644400
  H        4.3269750    -1.1156860    -1.1722660
  H       -2.6987240     2.4001080    -1.0444480
  H        2.9731640     2.2486720     1.1432600
  H       -4.7609150     1.1715970    -0.3832790
  H        4.7911470     1.0854140    -0.1002240
units angstrom
no_reorient  #important for SAPT in psi4, default
symmetry c1  #important for SAPT in psi4, default
}

set PROPERTIES_ORIGIN ["COM"]
properties('MP2/aug-cc-pvtz', properties = ['dipole'])
--------------------------------------------------------------------------

    Molecular point group: c1
  Charge       = 0
  Multiplicity = 1
  Basis Set: AUG-CC-PVTZ
    Blend: AUG-CC-PVTZ
  Basis Set: (AUG-CC-PVTZ AUX)
    Blend: AUG-CC-PVTZ-JKFIT

    Orbital Energies [Eh]
    ---------------------

    Doubly Occupied:

       1A    -15.577723     2A    -11.285479     3A    -11.282922
       4A    -11.242107     5A    -11.241592     6A    -11.238393
       7A    -11.238149     8A    -11.236254     9A    -11.233658
      10A    -11.231774    11A    -11.228655    12A    -11.228411
      13A    -11.225779    14A     -1.255374    15A     -1.151630
      16A     -1.127001    17A     -1.022791    18A     -1.019146
      19A     -1.010993    20A     -0.974819    21A     -0.844152
      22A     -0.839302    23A     -0.819220    24A     -0.797461
      25A     -0.714018    26A     -0.710674    27A     -0.678468
      28A     -0.654623    29A     -0.627823    30A     -0.622469
      31A     -0.598229    32A     -0.594701    33A     -0.588570
      34A     -0.584637    35A     -0.539545    36A     -0.520797
      37A     -0.506705    38A     -0.503566    39A     -0.496276
      40A     -0.490548    41A     -0.448018    42A     -0.342804
      43A     -0.338967    44A     -0.336989    45A     -0.283606

  @DF-RHF Final Energy:  -515.44008825226058

   => Energetics <=

    Nuclear Repulsion Energy =            694.4694884019729670
    One-Electron Energy =               -2074.7495181420417794
    Two-Electron Energy =                 864.8399414878082325
    Total Energy =                       -515.4400882522605798
  Basis Set: (AUG-CC-PVTZ AUX)
    Blend: AUG-CC-PVTZ-RI
    Molecular point group: c1

    Geometry (in Angstrom), charge = 0, multiplicity = 1:

       Center              X                  Y                   Z               Mass
    ------------   -----------------  -----------------  -----------------  -----------------
         N           -0.038208486655    -1.143952824408     0.282025264694    14.003074004430
         C           -1.250950486655    -0.459068924408     0.074680164694    12.000000000000
         C            1.240262513345    -0.492240924408     0.125564164694    12.000000000000
         C           -2.416125486655    -1.147753924408     0.448479164694    12.000000000000
         C            2.268897513345    -1.147477924408    -0.567070835306    12.000000000000
         C           -1.364226486655     0.830128075592    -0.467265835306    12.000000000000
         C            1.511417513345     0.736255075592     0.750772164694    12.000000000000
         C           -3.669268486655    -0.567520924408     0.267895164694    12.000000000000
         C            3.542752513345    -0.583919924408    -0.638127835306    12.000000000000
         C           -2.623980486655     1.409604075592    -0.624694835306    12.000000000000
         C            2.779941513345     1.304445075592     0.651164164694    12.000000000000
         C           -3.781978486655     0.721525075592    -0.259052835306    12.000000000000
         C            3.803726513345     0.649474075592    -0.038990835306    12.000000000000
         H           -0.024590486655    -2.093252924408     0.033748164694     1.007825032230
         H           -2.327735486655    -2.140927924408     0.885692164694     1.007825032230
         H            2.063365513345    -2.097874924408    -1.057621835306     1.007825032230
         H           -0.476103486655     1.363117075592    -0.792707835306     1.007825032230
         H            0.731801513345     1.226001075592     1.328020164694     1.007825032230
         H           -4.560052486655    -1.119212924408     0.559578164694     1.007825032230
         H            4.329115513345    -1.107300924408    -1.177127835306     1.007825032230
         H           -2.696583486655     2.408493075592    -1.049309835306     1.007825032230
         H            2.975304513345     2.257057075592     1.138398164694     1.007825032230
         H           -4.758774486655     1.179982075592    -0.388140835306     1.007825032230
         H            4.793287513345     1.093799075592    -0.105085835306     1.007825032230

  Basis Set: AUG-CC-PVTZ
    Blend: AUG-CC-PVTZ
  Basis Set: (AUG-CC-PVTZ AUX)
    Blend: AUG-CC-PVTZ-JKFIT
	 Reference Energy          =    -515.4400882522605798 [Eh]
	 Singles Energy            =      -0.0000000000000000 [Eh]
	 Same-Spin Energy          =      -0.5793313348903135 [Eh]
	 Opposite-Spin Energy      =      -1.7958668225096550 [Eh]
	 Correlation Energy        =      -2.3751981573999688 [Eh]
	 Total Energy              =    -517.8152864096605299 [Eh]

	 ================> DF-SCS-MP2 Energies <==================
	-----------------------------------------------------------
	 SCS Same-Spin Scale       =       0.3333333333333333 [-]
	 SCS Opposite-Spin Scale   =       1.2000000000000000 [-]
	 SCS Same-Spin Energy      =      -0.1931104449634378 [Eh]
	 SCS Opposite-Spin Energy  =      -2.1550401870115858 [Eh]
	 SCS Correlation Energy    =      -2.3481506319750238 [Eh]
	 SCS Total Energy          =    -517.7882388842356249 [Eh]
	-----------------------------------------------------------

  Dipole Moment: [D]
     X:     0.3472      Y:    -0.6030      Z:    -0.3974     Total:     0.8013

*** Psi4 exiting successfully. Buy a developer a beer!
