                               Psi4 1.3.2 release

  ==> Input File <==

--------------------------------------------------------------------------
#psi4
#
memory 32 gb

molecule  {
0 1
  N       -0.0163110    -1.1135150     0.2687020
  C       -1.2411609    -0.4466124     0.0743188
  C        1.2381220    -0.5006260     0.1304260
  C       -2.4182660    -1.1561390     0.4533410
  C        2.2667570    -1.1558630    -0.5622090
  C       -1.3663670     0.8217430    -0.4624040
  C        1.5092770     0.7278700     0.7556340
  C       -3.6714090    -0.5759060     0.2727570
  C        3.5406120    -0.5923050    -0.6332660
  C       -2.6261210     1.4012190    -0.6198330
  C        2.7778010     1.2960600     0.6560260
  C       -3.7841190     0.7131400    -0.2541910
  C        3.8015860     0.6410890    -0.0341290
  H       -0.0267310    -2.1016380     0.0386100
  H       -2.3298760    -2.1493130     0.8905540
  H        2.0612250    -2.1062600    -1.0527600
  H       -0.4782440     1.3547320    -0.7878460
  H        0.7296610     1.2176160     1.3328820
  H       -4.5621930    -1.1275980     0.5644400
  H        4.3269750    -1.1156860    -1.1722660
  H       -2.6987240     2.4001080    -1.0444480
  H        2.9731640     2.2486720     1.1432600
  H       -4.7609150     1.1715970    -0.3832790
  H        4.7911470     1.0854140    -0.1002240
units angstrom
no_reorient  #important for SAPT in psi4, default
symmetry c1  #important for SAPT in psi4, default
}

set PROPERTIES_ORIGIN ["COM"]
properties('MP2/aug-cc-pvtz', properties = ['dipole'])
--------------------------------------------------------------------------

    Molecular point group: c1
  Charge       = 0
  Multiplicity = 1
  Basis Set: AUG-CC-PVTZ
    Blend: AUG-CC-PVTZ
  Basis Set: (AUG-CC-PVTZ AUX)
    Blend: AUG-CC-PVTZ-JKFIT

    Orbital Energies [Eh]
    ---------------------

    Doubly Occupied:

       1A    -15.580666     2A    -11.284536     3A    -11.283062
       4A    -11.241046     5A    -11.240369     6A    -11.239237
       7A    -11.239074     8A    -11.233894     9A    -11.232899
      10A    -11.231005    11A    -11.229327    12A    -11.226566
      13A    -11.226057    14A     -1.261767    15A     -1.151487
      16A     -1.126798    17A     -1.023298    18A     -1.018353
      19A     -1.012734    20A     -0.972493    21A     -0.845018
      22A     -0.841088    23A     -0.821435    24A     -0.793732
      25A     -0.716306    26A     -0.708771    27A     -0.678124
      28A     -0.657449    29A     -0.628763    30A     -0.621296
      31A     -0.599241    32A     -0.594376    33A     -0.587171
      34A     -0.584535    35A     -0.542152    36A     -0.520753
      37A     -0.508178    38A     -0.503466    39A     -0.494872
      40A     -0.490824    41A     -0.448763    42A     -0.343076
      43A     -0.338955    44A     -0.336329    45A     -0.280792

  @DF-RHF Final Energy:  -515.44124947447472

   => Energetics <=

    Nuclear Repulsion Energy =            695.3327914643676877
    One-Electron Energy =               -2076.4678081520546584
    Two-Electron Energy =                 865.6937672132121406
    Total Energy =                       -515.4412494744747164
  Basis Set: (AUG-CC-PVTZ AUX)
    Blend: AUG-CC-PVTZ-RI
    Molecular point group: c1

    Geometry (in Angstrom), charge = 0, multiplicity = 1:

       Center              X                  Y                   Z               Mass
    ------------   -----------------  -----------------  -----------------  -----------------
         N           -0.017007848453    -1.109824129475     0.265716841596    14.003074004430
         C           -1.241857748453    -0.442921529475     0.071333641596    12.000000000000
         C            1.237425151547    -0.496935129475     0.127440841596    12.000000000000
         C           -2.418962848453    -1.152448129475     0.450355841596    12.000000000000
         C            2.266060151547    -1.152172129475    -0.565194158404    12.000000000000
         C           -1.367063848453     0.825433870525    -0.465389158404    12.000000000000
         C            1.508580151547     0.731560870525     0.752648841596    12.000000000000
         C           -3.672105848453    -0.572215129475     0.269771841596    12.000000000000
         C            3.539915151547    -0.588614129475    -0.636251158404    12.000000000000
         C           -2.626817848453     1.404909870525    -0.622818158404    12.000000000000
         C            2.777104151547     1.299750870525     0.653040841596    12.000000000000
         C           -3.784815848453     0.716830870525    -0.257176158404    12.000000000000
         C            3.800889151547     0.644779870525    -0.037114158404    12.000000000000
         H           -0.027427848453    -2.097947129475     0.035624841596     1.007825032230
         H           -2.330572848453    -2.145622129475     0.887568841596     1.007825032230
         H            2.060528151547    -2.102569129475    -1.055745158404     1.007825032230
         H           -0.478940848453     1.358422870525    -0.790831158404     1.007825032230
         H            0.728964151547     1.221306870525     1.329896841596     1.007825032230
         H           -4.562889848453    -1.123907129475     0.561454841596     1.007825032230
         H            4.326278151547    -1.111995129475    -1.175251158404     1.007825032230
         H           -2.699420848453     2.403798870525    -1.047433158404     1.007825032230
         H            2.972467151547     2.252362870525     1.140274841596     1.007825032230
         H           -4.761611848453     1.175287870525    -0.386264158404     1.007825032230
         H            4.790450151547     1.089104870525    -0.103209158404     1.007825032230

  Basis Set: AUG-CC-PVTZ
    Blend: AUG-CC-PVTZ
  Basis Set: (AUG-CC-PVTZ AUX)
    Blend: AUG-CC-PVTZ-JKFIT
	 Reference Energy          =    -515.4412494744747164 [Eh]
	 Singles Energy            =      -0.0000000000000000 [Eh]
	 Same-Spin Energy          =      -0.5797702314129375 [Eh]
	 Opposite-Spin Energy      =      -1.7961801549681153 [Eh]
	 Correlation Energy        =      -2.3759503863810529 [Eh]
	 Total Energy              =    -517.8171998608557942 [Eh]

	 ================> DF-SCS-MP2 Energies <==================
	-----------------------------------------------------------
	 SCS Same-Spin Scale       =       0.3333333333333333 [-]
	 SCS Opposite-Spin Scale   =       1.2000000000000000 [-]
	 SCS Same-Spin Energy      =      -0.1932567438043125 [Eh]
	 SCS Opposite-Spin Energy  =      -2.1554161859617382 [Eh]
	 SCS Correlation Energy    =      -2.3486729297660509 [Eh]
	 SCS Total Energy          =    -517.7899224042407695 [Eh]
	-----------------------------------------------------------

  Dipole Moment: [D]
     X:     0.1511      Y:    -0.6888      Z:    -0.3505     Total:     0.7875

*** Psi4 exiting successfully. Buy a developer a beer!
