                               Psi4 1.3.2 release

  ==> Input File <==

--------------------------------------------------------------------------
#psi4
#
memory 32 gb

molecule  {
0 1
  N       -0.0163110    -1.1135150     0.2687020
  C       -1.2628065    -0.4887295     0.0719960
  C        1.2381220    -0.5006260     0.1304260
  C       -2.4182660    -1.1561390     0.4533410
  C        2.2667570    -1.1558630    -0.5622090
  C       -1.3663670     0.8217430    -0.4624040
  C        1.5092770     0.7278700     0.7556340
  C       -3.6714090    -0.5759060     0.2727570
  C        3.5406120    -0.5923050    -0.6332660
  C       -2.6261210     1.4012190    -0.6198330
  C        2.7778010     1.2960600     0.6560260
  C       -3.7841190     0.7131400    -0.2541910
  C        3.8015860     0.6410890    -0.0341290
  H       -0.0267310    -2.1016380     0.0386100
  H       -2.3298760    -2.1493130     0.8905540
  H        2.0612250    -2.1062600    -1.0527600
  H       -0.4782440     1.3547320    -0.7878460
  H        0.7296610     1.2176160     1.3328820
  H       -4.5621930    -1.1275980     0.5644400
  H        4.3269750    -1.1156860    -1.1722660
  H       -2.6987240     2.4001080    -1.0444480
  H        2.9731640     2.2486720     1.1432600
  H       -4.7609150     1.1715970    -0.3832790
  H        4.7911470     1.0854140    -0.1002240
units angstrom
no_reorient  #important for SAPT in psi4, default
symmetry c1  #important for SAPT in psi4, default
}

set PROPERTIES_ORIGIN ["COM"]
properties('MP2/aug-cc-pvtz', properties = ['dipole'])
--------------------------------------------------------------------------

    Molecular point group: c1
  Charge       = 0
  Multiplicity = 1
  Basis Set: AUG-CC-PVTZ
    Blend: AUG-CC-PVTZ
  Basis Set: (AUG-CC-PVTZ AUX)
    Blend: AUG-CC-PVTZ-JKFIT

    Orbital Energies [Eh]
    ---------------------

    Doubly Occupied:

       1A    -15.580289     2A    -11.284549     3A    -11.284085
       4A    -11.241217     5A    -11.240474     6A    -11.239660
       7A    -11.238604     8A    -11.234250     9A    -11.231202
      10A    -11.229942    11A    -11.229546    12A    -11.228822
      13A    -11.226449    14A     -1.261372    15A     -1.152032
      16A     -1.126836    17A     -1.025654    18A     -1.018303
      19A     -1.010663    20A     -0.972828    21A     -0.845413
      22A     -0.841375    23A     -0.819793    24A     -0.795225
      25A     -0.717431    26A     -0.706913    27A     -0.678545
      28A     -0.656605    29A     -0.628760    30A     -0.622445
      31A     -0.599378    32A     -0.592639    33A     -0.587113
      34A     -0.585500    35A     -0.542774    36A     -0.520905
      37A     -0.506864    38A     -0.503731    39A     -0.496052
      40A     -0.491192    41A     -0.448783    42A     -0.342161
      43A     -0.339927    44A     -0.336392    45A     -0.280699

  @DF-RHF Final Energy:  -515.44138736209197

   => Energetics <=

    Nuclear Repulsion Energy =            695.1283538292464073
    One-Electron Energy =               -2076.0527041392201681
    Two-Electron Energy =                 865.4829629478817878
    Total Energy =                       -515.4413873620919730
  Basis Set: (AUG-CC-PVTZ AUX)
    Blend: AUG-CC-PVTZ-RI
    Molecular point group: c1

    Geometry (in Angstrom), charge = 0, multiplicity = 1:

       Center              X                  Y                   Z               Mass
    ------------   -----------------  -----------------  -----------------  -----------------
         N           -0.015471693111    -1.106835142885     0.265881687183    14.003074004430
         C           -1.261967193111    -0.482049642885     0.069175687183    12.000000000000
         C            1.238961306889    -0.493946142885     0.127605687183    12.000000000000
         C           -2.417426693111    -1.149459142885     0.450520687183    12.000000000000
         C            2.267596306889    -1.149183142885    -0.565029312817    12.000000000000
         C           -1.365527693111     0.828422857115    -0.465224312817    12.000000000000
         C            1.510116306889     0.734549857115     0.752813687183    12.000000000000
         C           -3.670569693111    -0.569226142885     0.269936687183    12.000000000000
         C            3.541451306889    -0.585625142885    -0.636086312817    12.000000000000
         C           -2.625281693111     1.407898857115    -0.622653312817    12.000000000000
         C            2.778640306889     1.302739857115     0.653205687183    12.000000000000
         C           -3.783279693111     0.719819857115    -0.257011312817    12.000000000000
         C            3.802425306889     0.647768857115    -0.036949312817    12.000000000000
         H           -0.025891693111    -2.094958142885     0.035789687183     1.007825032230
         H           -2.329036693111    -2.142633142885     0.887733687183     1.007825032230
         H            2.062064306889    -2.099580142885    -1.055580312817     1.007825032230
         H           -0.477404693111     1.361411857115    -0.790666312817     1.007825032230
         H            0.730500306889     1.224295857115     1.330061687183     1.007825032230
         H           -4.561353693111    -1.120918142885     0.561619687183     1.007825032230
         H            4.327814306889    -1.109006142885    -1.175086312817     1.007825032230
         H           -2.697884693111     2.406787857115    -1.047268312817     1.007825032230
         H            2.974003306889     2.255351857115     1.140439687183     1.007825032230
         H           -4.760075693111     1.178276857115    -0.386099312817     1.007825032230
         H            4.791986306889     1.092093857115    -0.103044312817     1.007825032230

  Basis Set: AUG-CC-PVTZ
    Blend: AUG-CC-PVTZ
  Basis Set: (AUG-CC-PVTZ AUX)
    Blend: AUG-CC-PVTZ-JKFIT
	 Reference Energy          =    -515.4413873620919730 [Eh]
	 Singles Energy            =      -0.0000000000000000 [Eh]
	 Same-Spin Energy          =      -0.5798066482807436 [Eh]
	 Opposite-Spin Energy      =      -1.7961638797343564 [Eh]
	 Correlation Energy        =      -2.3759705280150998 [Eh]
	 Total Energy              =    -517.8173578901070186 [Eh]

	 ================> DF-SCS-MP2 Energies <==================
	-----------------------------------------------------------
	 SCS Same-Spin Scale       =       0.3333333333333333 [-]
	 SCS Opposite-Spin Scale   =       1.2000000000000000 [-]
	 SCS Same-Spin Energy      =      -0.1932688827602478 [Eh]
	 SCS Opposite-Spin Energy  =      -2.1553966556812276 [Eh]
	 SCS Correlation Energy    =      -2.3486655384414754 [Eh]
	 SCS Total Energy          =    -517.7900529005333965 [Eh]
	-----------------------------------------------------------

  Dipole Moment: [D]
     X:     0.1665      Y:    -0.6760      Z:    -0.3486     Total:     0.7786

*** Psi4 exiting successfully. Buy a developer a beer!
