                               Psi4 1.3.2 release

  ==> Input File <==

--------------------------------------------------------------------------
#psi4
#
memory 32 gb

molecule  {
0 1
  N       -0.0163110    -1.1135150     0.2687020
  C       -1.1759904    -0.3455766     0.0491219
  C        1.2381220    -0.5006260     0.1304260
  C       -2.4182660    -1.1561390     0.4533410
  C        2.2667570    -1.1558630    -0.5622090
  C       -1.3663670     0.8217430    -0.4624040
  C        1.5092770     0.7278700     0.7556340
  C       -3.6714090    -0.5759060     0.2727570
  C        3.5406120    -0.5923050    -0.6332660
  C       -2.6261210     1.4012190    -0.6198330
  C        2.7778010     1.2960600     0.6560260
  C       -3.7841190     0.7131400    -0.2541910
  C        3.8015860     0.6410890    -0.0341290
  H       -0.0267310    -2.1016380     0.0386100
  H       -2.3298760    -2.1493130     0.8905540
  H        2.0612250    -2.1062600    -1.0527600
  H       -0.4782440     1.3547320    -0.7878460
  H        0.7296610     1.2176160     1.3328820
  H       -4.5621930    -1.1275980     0.5644400
  H        4.3269750    -1.1156860    -1.1722660
  H       -2.6987240     2.4001080    -1.0444480
  H        2.9731640     2.2486720     1.1432600
  H       -4.7609150     1.1715970    -0.3832790
  H        4.7911470     1.0854140    -0.1002240
units angstrom
no_reorient  #important for SAPT in psi4, default
symmetry c1  #important for SAPT in psi4, default
}

set PROPERTIES_ORIGIN ["COM"]
properties('MP2/aug-cc-pvtz', properties = ['dipole'])
--------------------------------------------------------------------------

    Molecular point group: c1
  Charge       = 0
  Multiplicity = 1
  Basis Set: AUG-CC-PVTZ
    Blend: AUG-CC-PVTZ
  Basis Set: (AUG-CC-PVTZ AUX)
    Blend: AUG-CC-PVTZ-JKFIT

    Orbital Energies [Eh]
    ---------------------

    Doubly Occupied:

       1A    -15.581712     2A    -11.282181     3A    -11.280403
       4A    -11.242071     5A    -11.240683     6A    -11.240223
       7A    -11.239853     8A    -11.237248     9A    -11.233142
      10A    -11.230773    11A    -11.229088    12A    -11.227975
      13A    -11.214457    14A     -1.263192    15A     -1.151232
      16A     -1.127422    17A     -1.031052    18A     -1.015365
      19A     -1.011694    20A     -0.971106    21A     -0.847365
      22A     -0.837264    23A     -0.826017    24A     -0.787319
      25A     -0.715972    26A     -0.711544    27A     -0.679013
      28A     -0.661751    29A     -0.628588    30A     -0.618603
      31A     -0.606484    32A     -0.593094    33A     -0.587352
      34A     -0.575834    35A     -0.541298    36A     -0.521695
      37A     -0.512198    38A     -0.503825    39A     -0.495703
      40A     -0.474414    41A     -0.446732    42A     -0.353800
      43A     -0.339946    44A     -0.328118    45A     -0.281785

  @DF-RHF Final Energy:  -515.41556491800043

   => Energetics <=

    Nuclear Repulsion Energy =            695.9368408460004503
    One-Electron Energy =               -2077.6516366471996662
    Two-Electron Energy =                 866.2992308831987884
    Total Energy =                       -515.4155649180004275
  Basis Set: (AUG-CC-PVTZ AUX)
    Blend: AUG-CC-PVTZ-RI
    Molecular point group: c1

    Geometry (in Angstrom), charge = 0, multiplicity = 1:

       Center              X                  Y                   Z               Mass
    ------------   -----------------  -----------------  -----------------  -----------------
         N           -0.021632899812    -1.116994486678     0.267505027303    14.003074004430
         C           -1.181312299812    -0.349056086678     0.047924927303    12.000000000000
         C            1.232800100188    -0.504105486678     0.129229027303    12.000000000000
         C           -2.423587899812    -1.159618486678     0.452144027303    12.000000000000
         C            2.261435100188    -1.159342486678    -0.563405972697    12.000000000000
         C           -1.371688899812     0.818263513322    -0.463600972697    12.000000000000
         C            1.503955100188     0.724390513322     0.754437027303    12.000000000000
         C           -3.676730899812    -0.579385486678     0.271560027303    12.000000000000
         C            3.535290100188    -0.595784486678    -0.634462972697    12.000000000000
         C           -2.631442899812     1.397739513322    -0.621029972697    12.000000000000
         C            2.772479100188     1.292580513322     0.654829027303    12.000000000000
         C           -3.789440899812     0.709660513322    -0.255387972697    12.000000000000
         C            3.796264100188     0.637609513322    -0.035325972697    12.000000000000
         H           -0.032052899812    -2.105117486678     0.037413027303     1.007825032230
         H           -2.335197899812    -2.152792486678     0.889357027303     1.007825032230
         H            2.055903100188    -2.109739486678    -1.053956972697     1.007825032230
         H           -0.483565899812     1.351252513322    -0.789042972697     1.007825032230
         H            0.724339100188     1.214136513322     1.331685027303     1.007825032230
         H           -4.567514899812    -1.131077486678     0.563243027303     1.007825032230
         H            4.321653100188    -1.119165486678    -1.173462972697     1.007825032230
         H           -2.704045899812     2.396628513322    -1.045644972697     1.007825032230
         H            2.967842100188     2.245192513322     1.142063027303     1.007825032230
         H           -4.766236899812     1.168117513322    -0.384475972697     1.007825032230
         H            4.785825100188     1.081934513322    -0.101420972697     1.007825032230

  Basis Set: AUG-CC-PVTZ
    Blend: AUG-CC-PVTZ
  Basis Set: (AUG-CC-PVTZ AUX)
    Blend: AUG-CC-PVTZ-JKFIT
	 Reference Energy          =    -515.4155649180004275 [Eh]
	 Singles Energy            =      -0.0000000000000000 [Eh]
	 Same-Spin Energy          =      -0.5792171226504041 [Eh]
	 Opposite-Spin Energy      =      -1.7974072117492601 [Eh]
	 Correlation Energy        =      -2.3766243343996640 [Eh]
	 Total Energy              =    -517.7921892524001350 [Eh]

	 ================> DF-SCS-MP2 Energies <==================
	-----------------------------------------------------------
	 SCS Same-Spin Scale       =       0.3333333333333333 [-]
	 SCS Opposite-Spin Scale   =       1.2000000000000000 [-]
	 SCS Same-Spin Energy      =      -0.1930723742168014 [Eh]
	 SCS Opposite-Spin Energy  =      -2.1568886540991121 [Eh]
	 SCS Correlation Energy    =      -2.3499610283159136 [Eh]
	 SCS Total Energy          =    -517.7655259463163020 [Eh]
	-----------------------------------------------------------

  Dipole Moment: [D]
     X:     0.1439      Y:    -0.7018      Z:    -0.3649     Total:     0.8040

*** Psi4 exiting successfully. Buy a developer a beer!
