                               Psi4 1.4a3.dev225

  ==> Input File <==

--------------------------------------------------------------------------
#psi4
#
memory 32 gb

molecule  {
0 1
  N       -0.0163110    -1.1135150     0.2687020
  C       -1.2530910    -0.4674540     0.0795420
  C        1.2381220    -0.5006260     0.1304260
  C       -2.4597563    -1.1806621     0.4666515
  C        2.2667570    -1.1558630    -0.5622090
  C       -1.3663670     0.8217430    -0.4624040
  C        1.5092770     0.7278700     0.7556340
  C       -3.6714090    -0.5759060     0.2727570
  C        3.5406120    -0.5923050    -0.6332660
  C       -2.6261210     1.4012190    -0.6198330
  C        2.7778010     1.2960600     0.6560260
  C       -3.7841190     0.7131400    -0.2541910
  C        3.8015860     0.6410890    -0.0341290
  H       -0.0267310    -2.1016380     0.0386100
  H       -2.3298760    -2.1493130     0.8905540
  H        2.0612250    -2.1062600    -1.0527600
  H       -0.4782440     1.3547320    -0.7878460
  H        0.7296610     1.2176160     1.3328820
  H       -4.5621930    -1.1275980     0.5644400
  H        4.3269750    -1.1156860    -1.1722660
  H       -2.6987240     2.4001080    -1.0444480
  H        2.9731640     2.2486720     1.1432600
  H       -4.7609150     1.1715970    -0.3832790
  H        4.7911470     1.0854140    -0.1002240
units angstrom
no_reorient  #important for SAPT in psi4, default
symmetry c1  #important for SAPT in psi4, default
}

set PROPERTIES_ORIGIN ["COM"]
properties('MP2/aug-cc-pvtz', properties = ['dipole'])
--------------------------------------------------------------------------

    Molecular point group: c1
  Charge       = 0
  Multiplicity = 1
  Basis Set: AUG-CC-PVTZ
    Blend: AUG-CC-PVTZ
  Basis Set: (AUG-CC-PVTZ AUX)
    Blend: AUG-CC-PVTZ-JKFIT

    Orbital Energies [Eh]
    ---------------------

    Doubly Occupied:

       1A    -15.582313     2A    -11.289951     3A    -11.284169
       4A    -11.241473     5A    -11.240700     6A    -11.239040
       7A    -11.236736     8A    -11.234619     9A    -11.231502
      10A    -11.231500    11A    -11.229842    12A    -11.226780
      13A    -11.225347    14A     -1.261307    15A     -1.150404
      16A     -1.126878    17A     -1.021707    18A     -1.020111
      19A     -1.013869    20A     -0.970755    21A     -0.844178
      22A     -0.842227    23A     -0.821462    24A     -0.793181
      25A     -0.716020    26A     -0.708783    27A     -0.679885
      28A     -0.659305    29A     -0.629748    30A     -0.619597
      31A     -0.596145    32A     -0.594235    33A     -0.589547
      34A     -0.586680    35A     -0.542197    36A     -0.521310
      37A     -0.510990    38A     -0.502755    39A     -0.495338
      40A     -0.486959    41A     -0.449066    42A     -0.344600
      43A     -0.339602    44A     -0.336004    45A     -0.278459

  @DF-RHF Final Energy:  -515.43892433160613

   => Energetics <=

    Nuclear Repulsion Energy =            694.4698764226033063
    One-Electron Energy =               -2074.7230536002734880
    Two-Electron Energy =                 864.8142528460641643
    Total Energy =                       -515.4389243316061311
  Basis Set: (AUG-CC-PVTZ AUX)
    Blend: AUG-CC-PVTZ-RI
    Molecular point group: c1

    Geometry (in Angstrom), charge = 0, multiplicity = 1:

       Center              X                  Y                   Z               Mass
    ------------   -----------------  -----------------  -----------------  -----------------
         N           -0.013216683837    -1.106604665647     0.264401533069    14.003074004430
         C           -1.249996683837    -0.460543665647     0.075241533069    12.000000000000
         C            1.241216316163    -0.493715665647     0.126125533069    12.000000000000
         C           -2.456661983837    -1.173751765647     0.462351033069    12.000000000000
         C            2.269851316163    -1.148952665647    -0.566509466931    12.000000000000
         C           -1.363272683837     0.828653334353    -0.466704466931    12.000000000000
         C            1.512371316163     0.734780334353     0.751333533069    12.000000000000
         C           -3.668314683837    -0.568995665647     0.268456533069    12.000000000000
         C            3.543706316163    -0.585394665647    -0.637566466931    12.000000000000
         C           -2.623026683837     1.408129334353    -0.624133466931    12.000000000000
         C            2.780895316163     1.302970334353     0.651725533069    12.000000000000
         C           -3.781024683837     0.720050334353    -0.258491466931    12.000000000000
         C            3.804680316163     0.647999334353    -0.038429466931    12.000000000000
         H           -0.023636683837    -2.094727665647     0.034309533069     1.007825032230
         H           -2.326781683837    -2.142402665647     0.886253533069     1.007825032230
         H            2.064319316163    -2.099349665647    -1.057060466931     1.007825032230
         H           -0.475149683837     1.361642334353    -0.792146466931     1.007825032230
         H            0.732755316163     1.224526334353     1.328581533069     1.007825032230
         H           -4.559098683837    -1.120687665647     0.560139533069     1.007825032230
         H            4.330069316163    -1.108775665647    -1.176566466931     1.007825032230
         H           -2.695629683837     2.407018334353    -1.048748466931     1.007825032230
         H            2.976258316163     2.255582334353     1.138959533069     1.007825032230
         H           -4.757820683837     1.178507334353    -0.387579466931     1.007825032230
         H            4.794241316163     1.092324334353    -0.104524466931     1.007825032230

  Basis Set: AUG-CC-PVTZ
    Blend: AUG-CC-PVTZ
  Basis Set: (AUG-CC-PVTZ AUX)
    Blend: AUG-CC-PVTZ-JKFIT
	 Reference Energy          =    -515.4389243316061311 [Eh]
	 Singles Energy            =      -0.0000000000000000 [Eh]
	 Same-Spin Energy          =      -0.5796835578228818 [Eh]
	 Opposite-Spin Energy      =      -1.7962616664962314 [Eh]
	 Correlation Energy        =      -2.3759452243191133 [Eh]
	 Total Energy              =    -517.8148695559252701 [Eh]

	 ================> DF-SCS-MP2 Energies <==================
	-----------------------------------------------------------
	 SCS Same-Spin Scale       =       0.3333333333333333 [-]
	 SCS Opposite-Spin Scale   =       1.2000000000000000 [-]
	 SCS Same-Spin Energy      =      -0.1932278526076273 [Eh]
	 SCS Opposite-Spin Energy  =      -2.1555139997954775 [Eh]
	 SCS Correlation Energy    =      -2.3487418524031050 [Eh]
	 SCS Total Energy          =    -517.7876661840092538 [Eh]
	-----------------------------------------------------------

  Dipole Moment: [D]
     X:     0.2381      Y:    -0.7148      Z:    -0.3342     Total:     0.8242

*** Psi4 exiting successfully. Buy a developer a beer!
