                               Psi4 1.3.2 release

  ==> Input File <==

--------------------------------------------------------------------------
#psi4
#
memory 32 gb

molecule  {
0 1
  N       -0.0163110    -1.1135150     0.2687020
  C       -1.3056333    -0.5978303     0.0352101
  C        1.2381220    -0.5006260     0.1304260
  C       -2.4182660    -1.1561390     0.4533410
  C        2.2667570    -1.1558630    -0.5622090
  C       -1.3663670     0.8217430    -0.4624040
  C        1.5092770     0.7278700     0.7556340
  C       -3.6714090    -0.5759060     0.2727570
  C        3.5406120    -0.5923050    -0.6332660
  C       -2.6261210     1.4012190    -0.6198330
  C        2.7778010     1.2960600     0.6560260
  C       -3.7841190     0.7131400    -0.2541910
  C        3.8015860     0.6410890    -0.0341290
  H       -0.0267310    -2.1016380     0.0386100
  H       -2.3298760    -2.1493130     0.8905540
  H        2.0612250    -2.1062600    -1.0527600
  H       -0.4782440     1.3547320    -0.7878460
  H        0.7296610     1.2176160     1.3328820
  H       -4.5621930    -1.1275980     0.5644400
  H        4.3269750    -1.1156860    -1.1722660
  H       -2.6987240     2.4001080    -1.0444480
  H        2.9731640     2.2486720     1.1432600
  H       -4.7609150     1.1715970    -0.3832790
  H        4.7911470     1.0854140    -0.1002240
units angstrom
no_reorient  #important for SAPT in psi4, default
symmetry c1  #important for SAPT in psi4, default
}

set PROPERTIES_ORIGIN ["COM"]
properties('MP2/aug-cc-pvtz', properties = ['dipole'])
--------------------------------------------------------------------------

    Molecular point group: c1
  Charge       = 0
  Multiplicity = 1
  Basis Set: AUG-CC-PVTZ
    Blend: AUG-CC-PVTZ
  Basis Set: (AUG-CC-PVTZ AUX)
    Blend: AUG-CC-PVTZ-JKFIT

    Orbital Energies [Eh]
    ---------------------

    Doubly Occupied:

       1A    -15.579183     2A    -11.286246     3A    -11.283520
       4A    -11.241582     5A    -11.240736     6A    -11.240158
       7A    -11.238115     8A    -11.236718     9A    -11.235148
      10A    -11.231843    11A    -11.230317    12A    -11.227306
      13A    -11.219926    14A     -1.260599    15A     -1.153693
      16A     -1.127273    17A     -1.033961    18A     -1.017959
      19A     -1.005958    20A     -0.972651    21A     -0.848094
      22A     -0.839977    23A     -0.817809    24A     -0.794978
      25A     -0.720264    26A     -0.702098    27A     -0.680014
      28A     -0.657428    29A     -0.628566    30A     -0.624279
      31A     -0.603443    32A     -0.589450    33A     -0.587762
      34A     -0.578619    35A     -0.544382    36A     -0.521683
      37A     -0.508104    38A     -0.504341    39A     -0.497969
      40A     -0.480976    41A     -0.447933    42A     -0.349354
      43A     -0.341290    44A     -0.329927    45A     -0.280966

  @DF-RHF Final Energy:  -515.42176000834695

   => Energetics <=

    Nuclear Repulsion Energy =            694.5896975413641030
    One-Electron Energy =               -2074.9377243740159429
    Two-Electron Energy =                 864.9262668243048893
    Total Energy =                       -515.4217600083469506
  Basis Set: (AUG-CC-PVTZ AUX)
    Blend: AUG-CC-PVTZ-RI
    Molecular point group: c1

    Geometry (in Angstrom), charge = 0, multiplicity = 1:

       Center              X                  Y                   Z               Mass
    ------------   -----------------  -----------------  -----------------  -----------------
         N           -0.012432340191    -1.099092424887     0.268492326610    14.003074004430
         C           -1.301754640191    -0.583407724887     0.035000426610    12.000000000000
         C            1.242000659809    -0.486203424887     0.130216326610    12.000000000000
         C           -2.414387340191    -1.141716424887     0.453131326610    12.000000000000
         C            2.270635659809    -1.141440424887    -0.562418673390    12.000000000000
         C           -1.362488340191     0.836165575113    -0.462613673390    12.000000000000
         C            1.513155659809     0.742292575113     0.755424326610    12.000000000000
         C           -3.667530340191    -0.561483424887     0.272547326610    12.000000000000
         C            3.544490659809    -0.577882424887    -0.633475673390    12.000000000000
         C           -2.622242340191     1.415641575113    -0.620042673390    12.000000000000
         C            2.781679659809     1.310482575113     0.655816326610    12.000000000000
         C           -3.780240340191     0.727562575113    -0.254400673390    12.000000000000
         C            3.805464659809     0.655511575113    -0.034338673390    12.000000000000
         H           -0.022852340191    -2.087215424887     0.038400326610     1.007825032230
         H           -2.325997340191    -2.134890424887     0.890344326610     1.007825032230
         H            2.065103659809    -2.091837424887    -1.052969673390     1.007825032230
         H           -0.474365340191     1.369154575113    -0.788055673390     1.007825032230
         H            0.733539659809     1.232038575113     1.332672326610     1.007825032230
         H           -4.558314340191    -1.113175424887     0.564230326610     1.007825032230
         H            4.330853659809    -1.101263424887    -1.172475673390     1.007825032230
         H           -2.694845340191     2.414530575113    -1.044657673390     1.007825032230
         H            2.977042659809     2.263094575113     1.143050326610     1.007825032230
         H           -4.757036340191     1.186019575113    -0.383488673390     1.007825032230
         H            4.795025659809     1.099836575113    -0.100433673390     1.007825032230

  Basis Set: AUG-CC-PVTZ
    Blend: AUG-CC-PVTZ
  Basis Set: (AUG-CC-PVTZ AUX)
    Blend: AUG-CC-PVTZ-JKFIT
	 Reference Energy          =    -515.4217600083469506 [Eh]
	 Singles Energy            =      -0.0000000000000000 [Eh]
	 Same-Spin Energy          =      -0.5797180135841322 [Eh]
	 Opposite-Spin Energy      =      -1.7973715438013598 [Eh]
	 Correlation Energy        =      -2.3770895573854922 [Eh]
	 Total Energy              =    -517.7988495657324393 [Eh]

	 ================> DF-SCS-MP2 Energies <==================
	-----------------------------------------------------------
	 SCS Same-Spin Scale       =       0.3333333333333333 [-]
	 SCS Opposite-Spin Scale   =       1.2000000000000000 [-]
	 SCS Same-Spin Energy      =      -0.1932393378613774 [Eh]
	 SCS Opposite-Spin Energy  =      -2.1568458525616316 [Eh]
	 SCS Correlation Energy    =      -2.3500851904230089 [Eh]
	 SCS Total Energy          =    -517.7718451987699382 [Eh]
	-----------------------------------------------------------

  Dipole Moment: [D]
     X:     0.2168      Y:    -0.6329      Z:    -0.3525     Total:     0.7562

*** Psi4 exiting successfully. Buy a developer a beer!
