                               Psi4 1.4a3.dev225

  ==> Input File <==

--------------------------------------------------------------------------
#psi4
#
memory 32 gb

molecule  {
0 1
  N       -0.0163110    -1.1135150     0.2687020
  C       -1.2530910    -0.4674540     0.0795420
  C        1.2381220    -0.5006260     0.1304260
  C       -2.4016699    -1.1463297     0.4480168
  C        2.2667570    -1.1558630    -0.5622090
  C       -1.3663670     0.8217430    -0.4624040
  C        1.5092770     0.7278700     0.7556340
  C       -3.6714090    -0.5759060     0.2727570
  C        3.5406120    -0.5923050    -0.6332660
  C       -2.6261210     1.4012190    -0.6198330
  C        2.7778010     1.2960600     0.6560260
  C       -3.7841190     0.7131400    -0.2541910
  C        3.8015860     0.6410890    -0.0341290
  H       -0.0267310    -2.1016380     0.0386100
  H       -2.3298760    -2.1493130     0.8905540
  H        2.0612250    -2.1062600    -1.0527600
  H       -0.4782440     1.3547320    -0.7878460
  H        0.7296610     1.2176160     1.3328820
  H       -4.5621930    -1.1275980     0.5644400
  H        4.3269750    -1.1156860    -1.1722660
  H       -2.6987240     2.4001080    -1.0444480
  H        2.9731640     2.2486720     1.1432600
  H       -4.7609150     1.1715970    -0.3832790
  H        4.7911470     1.0854140    -0.1002240
units angstrom
no_reorient  #important for SAPT in psi4, default
symmetry c1  #important for SAPT in psi4, default
}

set PROPERTIES_ORIGIN ["COM"]
properties('MP2/aug-cc-pvtz', properties = ['dipole'])
--------------------------------------------------------------------------

    Molecular point group: c1
  Charge       = 0
  Multiplicity = 1
  Basis Set: AUG-CC-PVTZ
    Blend: AUG-CC-PVTZ
  Basis Set: (AUG-CC-PVTZ AUX)
    Blend: AUG-CC-PVTZ-JKFIT

    Orbital Energies [Eh]
    ---------------------

    Doubly Occupied:

       1A    -15.579710     2A    -11.283410     3A    -11.282274
       4A    -11.240973     5A    -11.240661     6A    -11.240281
       7A    -11.238790     8A    -11.233784     9A    -11.230855
      10A    -11.230287    11A    -11.229162    12A    -11.228934
      13A    -11.226989    14A     -1.261655    15A     -1.152409
      16A     -1.126766    17A     -1.025656    18A     -1.017956
      19A     -1.010493    20A     -0.973484    21A     -0.845828
      22A     -0.840872    23A     -0.820038    24A     -0.795149
      25A     -0.717231    26A     -0.707436    27A     -0.677910
      28A     -0.655984    29A     -0.628429    30A     -0.623126
      31A     -0.599994    32A     -0.593661    33A     -0.586730
      34A     -0.583757    35A     -0.542710    36A     -0.520772
      37A     -0.505781    38A     -0.503868    39A     -0.495882
      40A     -0.492235    41A     -0.448649    42A     -0.341728
      43A     -0.339961    44A     -0.336144    45A     -0.281533

  @DF-RHF Final Energy:  -515.44154869712736

   => Energetics <=

    Nuclear Repulsion Energy =            695.5381537770078921
    One-Electron Energy =               -2076.8795327015545809
    Two-Electron Energy =                 865.8998302274193293
    Total Energy =                       -515.4415486971273594
  Basis Set: (AUG-CC-PVTZ AUX)
    Blend: AUG-CC-PVTZ-RI
    Molecular point group: c1

    Geometry (in Angstrom), charge = 0, multiplicity = 1:

       Center              X                  Y                   Z               Mass
    ------------   -----------------  -----------------  -----------------  -----------------
         N           -0.017338987383    -1.109041183908     0.265724009413    14.003074004430
         C           -1.254118987383    -0.462980183908     0.076564009413    12.000000000000
         C            1.237094012617    -0.496152183908     0.127448009413    12.000000000000
         C           -2.402697887383    -1.141855883908     0.445038809413    12.000000000000
         C            2.265729012617    -1.151389183908    -0.565186990587    12.000000000000
         C           -1.367394987383     0.826216816092    -0.465381990587    12.000000000000
         C            1.508249012617     0.732343816092     0.752656009413    12.000000000000
         C           -3.672436987383    -0.571432183908     0.269779009413    12.000000000000
         C            3.539584012617    -0.587831183908    -0.636243990587    12.000000000000
         C           -2.627148987383     1.405692816092    -0.622810990587    12.000000000000
         C            2.776773012617     1.300533816092     0.653048009413    12.000000000000
         C           -3.785146987383     0.717613816092    -0.257168990587    12.000000000000
         C            3.800558012617     0.645562816092    -0.037106990587    12.000000000000
         H           -0.027758987383    -2.097164183908     0.035632009413     1.007825032230
         H           -2.330903987383    -2.144839183908     0.887576009413     1.007825032230
         H            2.060197012617    -2.101786183908    -1.055737990587     1.007825032230
         H           -0.479271987383     1.359205816092    -0.790823990587     1.007825032230
         H            0.728633012617     1.222089816092     1.329904009413     1.007825032230
         H           -4.563220987383    -1.123124183908     0.561462009413     1.007825032230
         H            4.325947012617    -1.111212183908    -1.175243990587     1.007825032230
         H           -2.699751987383     2.404581816092    -1.047425990587     1.007825032230
         H            2.972136012617     2.253145816092     1.140282009413     1.007825032230
         H           -4.761942987383     1.176070816092    -0.386256990587     1.007825032230
         H            4.790119012617     1.089887816092    -0.103201990587     1.007825032230

  Basis Set: AUG-CC-PVTZ
    Blend: AUG-CC-PVTZ
  Basis Set: (AUG-CC-PVTZ AUX)
    Blend: AUG-CC-PVTZ-JKFIT
	 Reference Energy          =    -515.4415486971273594 [Eh]
	 Singles Energy            =      -0.0000000000000000 [Eh]
	 Same-Spin Energy          =      -0.5798327966979888 [Eh]
	 Opposite-Spin Energy      =      -1.7961485436523892 [Eh]
	 Correlation Energy        =      -2.3759813403503780 [Eh]
	 Total Energy              =    -517.8175300374776953 [Eh]

	 ================> DF-SCS-MP2 Energies <==================
	-----------------------------------------------------------
	 SCS Same-Spin Scale       =       0.3333333333333333 [-]
	 SCS Opposite-Spin Scale   =       1.2000000000000000 [-]
	 SCS Same-Spin Energy      =      -0.1932775988993296 [Eh]
	 SCS Opposite-Spin Energy  =      -2.1553782523828668 [Eh]
	 SCS Correlation Energy    =      -2.3486558512821962 [Eh]
	 SCS Total Energy          =    -517.7902045484095197 [Eh]
	-----------------------------------------------------------

  Dipole Moment: [D]
     X:     0.1140      Y:    -0.6703      Z:    -0.3545     Total:     0.7668

*** Psi4 exiting successfully. Buy a developer a beer!
