                               Psi4 1.3.2 release

  ==> Input File <==

--------------------------------------------------------------------------
#psi4
#
memory 32 gb

molecule  {
0 1
  N       -0.0163110    -1.1135150     0.2687020
  C       -1.2288577    -0.4259740     0.0691547
  C        1.2381220    -0.5006260     0.1304260
  C       -2.4182660    -1.1561390     0.4533410
  C        2.2667570    -1.1558630    -0.5622090
  C       -1.3663670     0.8217430    -0.4624040
  C        1.5092770     0.7278700     0.7556340
  C       -3.6714090    -0.5759060     0.2727570
  C        3.5406120    -0.5923050    -0.6332660
  C       -2.6261210     1.4012190    -0.6198330
  C        2.7778010     1.2960600     0.6560260
  C       -3.7841190     0.7131400    -0.2541910
  C        3.8015860     0.6410890    -0.0341290
  H       -0.0267310    -2.1016380     0.0386100
  H       -2.3298760    -2.1493130     0.8905540
  H        2.0612250    -2.1062600    -1.0527600
  H       -0.4782440     1.3547320    -0.7878460
  H        0.7296610     1.2176160     1.3328820
  H       -4.5621930    -1.1275980     0.5644400
  H        4.3269750    -1.1156860    -1.1722660
  H       -2.6987240     2.4001080    -1.0444480
  H        2.9731640     2.2486720     1.1432600
  H       -4.7609150     1.1715970    -0.3832790
  H        4.7911470     1.0854140    -0.1002240
units angstrom
no_reorient  #important for SAPT in psi4, default
symmetry c1  #important for SAPT in psi4, default
}

set PROPERTIES_ORIGIN ["COM"]
properties('MP2/aug-cc-pvtz', properties = ['dipole'])
--------------------------------------------------------------------------

    Molecular point group: c1
  Charge       = 0
  Multiplicity = 1
  Basis Set: AUG-CC-PVTZ
    Blend: AUG-CC-PVTZ
  Basis Set: (AUG-CC-PVTZ AUX)
    Blend: AUG-CC-PVTZ-JKFIT

    Orbital Energies [Eh]
    ---------------------

    Doubly Occupied:

       1A    -15.580848     2A    -11.284274     3A    -11.282492
       4A    -11.240965     5A    -11.240328     6A    -11.239293
       7A    -11.238954     8A    -11.234980     9A    -11.233746
      10A    -11.230954    11A    -11.229281    12A    -11.226708
      13A    -11.223753    14A     -1.262016    15A     -1.151283
      16A     -1.126844    17A     -1.023424    18A     -1.017642
      19A     -1.013582    20A     -0.972250    21A     -0.845216
      22A     -0.840508    23A     -0.822436    24A     -0.792626
      25A     -0.715788    26A     -0.709664    27A     -0.678004
      28A     -0.658176    29A     -0.628789    30A     -0.620647
      31A     -0.600495    32A     -0.594199    33A     -0.587231
      34A     -0.583319    35A     -0.541853    36A     -0.520757
      37A     -0.509135    38A     -0.503404    39A     -0.495006
      40A     -0.488651    41A     -0.448631    42A     -0.344607
      43A     -0.339521    44A     -0.334495    45A     -0.280958

  @DF-RHF Final Energy:  -515.43903097942632

   => Energetics <=

    Nuclear Repulsion Energy =            695.4449259482506704
    One-Electron Energy =               -2076.6924484133783153
    Two-Electron Energy =                 865.8084914857012109
    Total Energy =                       -515.4390309794263203
  Basis Set: (AUG-CC-PVTZ AUX)
    Blend: AUG-CC-PVTZ-RI
    Molecular point group: c1

    Geometry (in Angstrom), charge = 0, multiplicity = 1:

       Center              X                  Y                   Z               Mass
    ------------   -----------------  -----------------  -----------------  -----------------
         N           -0.017880987862    -1.111288805363     0.266083329926    14.003074004430
         C           -1.230427687862    -0.423747805363     0.066536029926    12.000000000000
         C            1.236552012138    -0.498399805363     0.127807329926    12.000000000000
         C           -2.419835987862    -1.153912805363     0.450722329926    12.000000000000
         C            2.265187012138    -1.153636805363    -0.564827670074    12.000000000000
         C           -1.367936987862     0.823969194637    -0.465022670074    12.000000000000
         C            1.507707012138     0.730096194637     0.753015329926    12.000000000000
         C           -3.672978987862    -0.573679805363     0.270138329926    12.000000000000
         C            3.539042012138    -0.590078805363    -0.635884670074    12.000000000000
         C           -2.627690987862     1.403445194637    -0.622451670074    12.000000000000
         C            2.776231012138     1.298286194637     0.653407329926    12.000000000000
         C           -3.785688987862     0.715366194637    -0.256809670074    12.000000000000
         C            3.800016012138     0.643315194637    -0.036747670074    12.000000000000
         H           -0.028300987862    -2.099411805363     0.035991329926     1.007825032230
         H           -2.331445987862    -2.147086805363     0.887935329926     1.007825032230
         H            2.059655012138    -2.104033805363    -1.055378670074     1.007825032230
         H           -0.479813987862     1.356958194637    -0.790464670074     1.007825032230
         H            0.728091012138     1.219842194637     1.330263329926     1.007825032230
         H           -4.563762987862    -1.125371805363     0.561821329926     1.007825032230
         H            4.325405012138    -1.113459805363    -1.174884670074     1.007825032230
         H           -2.700293987862     2.402334194637    -1.047066670074     1.007825032230
         H            2.971594012138     2.250898194637     1.140641329926     1.007825032230
         H           -4.762484987862     1.173823194637    -0.385897670074     1.007825032230
         H            4.789577012138     1.087640194637    -0.102842670074     1.007825032230

  Basis Set: AUG-CC-PVTZ
    Blend: AUG-CC-PVTZ
  Basis Set: (AUG-CC-PVTZ AUX)
    Blend: AUG-CC-PVTZ-JKFIT
	 Reference Energy          =    -515.4390309794263203 [Eh]
	 Singles Energy            =      -0.0000000000000000 [Eh]
	 Same-Spin Energy          =      -0.5797005817324355 [Eh]
	 Opposite-Spin Energy      =      -1.7962938954305783 [Eh]
	 Correlation Energy        =      -2.3759944771630139 [Eh]
	 Total Energy              =    -517.8150254565892965 [Eh]

	 ================> DF-SCS-MP2 Energies <==================
	-----------------------------------------------------------
	 SCS Same-Spin Scale       =       0.3333333333333333 [-]
	 SCS Opposite-Spin Scale   =       1.2000000000000000 [-]
	 SCS Same-Spin Energy      =      -0.1932335272441452 [Eh]
	 SCS Opposite-Spin Energy  =      -2.1555526745166937 [Eh]
	 SCS Correlation Energy    =      -2.3487862017608387 [Eh]
	 SCS Total Energy          =    -517.7878171811871653 [Eh]
	-----------------------------------------------------------

  Dipole Moment: [D]
     X:     0.1497      Y:    -0.6933      Z:    -0.3527     Total:     0.7921

*** Psi4 exiting successfully. Buy a developer a beer!
