                               Psi4 1.3.2 release

  ==> Input File <==

--------------------------------------------------------------------------
#psi4
#
memory 32 gb

molecule  {
0 1
  N       -0.0163110    -1.1135150     0.2687020
  C       -1.3409230    -0.4215729     0.0661085
  C        1.2381220    -0.5006260     0.1304260
  C       -2.4182660    -1.1561390     0.4533410
  C        2.2667570    -1.1558630    -0.5622090
  C       -1.3663670     0.8217430    -0.4624040
  C        1.5092770     0.7278700     0.7556340
  C       -3.6714090    -0.5759060     0.2727570
  C        3.5406120    -0.5923050    -0.6332660
  C       -2.6261210     1.4012190    -0.6198330
  C        2.7778010     1.2960600     0.6560260
  C       -3.7841190     0.7131400    -0.2541910
  C        3.8015860     0.6410890    -0.0341290
  H       -0.0267310    -2.1016380     0.0386100
  H       -2.3298760    -2.1493130     0.8905540
  H        2.0612250    -2.1062600    -1.0527600
  H       -0.4782440     1.3547320    -0.7878460
  H        0.7296610     1.2176160     1.3328820
  H       -4.5621930    -1.1275980     0.5644400
  H        4.3269750    -1.1156860    -1.1722660
  H       -2.6987240     2.4001080    -1.0444480
  H        2.9731640     2.2486720     1.1432600
  H       -4.7609150     1.1715970    -0.3832790
  H        4.7911470     1.0854140    -0.1002240
units angstrom
no_reorient  #important for SAPT in psi4, default
symmetry c1  #important for SAPT in psi4, default
}

set PROPERTIES_ORIGIN ["COM"]
properties('MP2/aug-cc-pvtz', properties = ['dipole'])
--------------------------------------------------------------------------

    Molecular point group: c1
  Charge       = 0
  Multiplicity = 1
  Basis Set: AUG-CC-PVTZ
    Blend: AUG-CC-PVTZ
  Basis Set: (AUG-CC-PVTZ AUX)
    Blend: AUG-CC-PVTZ-JKFIT

    Orbital Energies [Eh]
    ---------------------

    Doubly Occupied:

       1A    -15.570786     2A    -11.280926     3A    -11.278259
       4A    -11.243414     5A    -11.242816     6A    -11.237255
       7A    -11.236801     8A    -11.232395     9A    -11.232075
      10A    -11.228774    11A    -11.228483    12A    -11.226036
      13A    -11.224625    14A     -1.238282    15A     -1.159798
      16A     -1.123605    17A     -1.026942    18A     -1.022774
      19A     -1.011343    20A     -0.972174    21A     -0.846947
      22A     -0.833644    23A     -0.821928    24A     -0.795314
      25A     -0.713999    26A     -0.702134    27A     -0.670938
      28A     -0.649288    29A     -0.632241    30A     -0.623512
      31A     -0.600419    32A     -0.592696    33A     -0.586513
      34A     -0.582631    35A     -0.537909    36A     -0.518502
      37A     -0.510314    38A     -0.506064    39A     -0.498056
      40A     -0.487452    41A     -0.442407    42A     -0.345326
      43A     -0.342268    44A     -0.336145    45A     -0.283999

  @DF-RHF Final Energy:  -515.43152046886689

   => Energetics <=

    Nuclear Repulsion Energy =            695.2163869065662993
    One-Electron Energy =               -2076.3393931163200250
    Two-Electron Energy =                 865.6914857408869466
    Total Energy =                       -515.4315204688668928
  Basis Set: (AUG-CC-PVTZ AUX)
    Blend: AUG-CC-PVTZ-RI
    Molecular point group: c1

    Geometry (in Angstrom), charge = 0, multiplicity = 1:

       Center              X                  Y                   Z               Mass
    ------------   -----------------  -----------------  -----------------  -----------------
         N           -0.009927883804    -1.111601144743     0.266299514112    14.003074004430
         C           -1.334539883804    -0.419659044743     0.063706014112    12.000000000000
         C            1.244505116196    -0.498712144743     0.128023514112    12.000000000000
         C           -2.411882883804    -1.154225144743     0.450938514112    12.000000000000
         C            2.273140116196    -1.153949144743    -0.564611485888    12.000000000000
         C           -1.359983883804     0.823656855257    -0.464806485888    12.000000000000
         C            1.515660116196     0.729783855257     0.753231514112    12.000000000000
         C           -3.665025883804    -0.573992144743     0.270354514112    12.000000000000
         C            3.546995116196    -0.590391144743    -0.635668485888    12.000000000000
         C           -2.619737883804     1.403132855257    -0.622235485888    12.000000000000
         C            2.784184116196     1.297973855257     0.653623514112    12.000000000000
         C           -3.777735883804     0.715053855257    -0.256593485888    12.000000000000
         C            3.807969116196     0.643002855257    -0.036531485888    12.000000000000
         H           -0.020347883804    -2.099724144743     0.036207514112     1.007825032230
         H           -2.323492883804    -2.147399144743     0.888151514112     1.007825032230
         H            2.067608116196    -2.104346144743    -1.055162485888     1.007825032230
         H           -0.471860883804     1.356645855257    -0.790248485888     1.007825032230
         H            0.736044116196     1.219529855257     1.330479514112     1.007825032230
         H           -4.555809883804    -1.125684144743     0.562037514112     1.007825032230
         H            4.333358116196    -1.113772144743    -1.174668485888     1.007825032230
         H           -2.692340883804     2.402021855257    -1.046850485888     1.007825032230
         H            2.979547116196     2.250585855257     1.140857514112     1.007825032230
         H           -4.754531883804     1.173510855257    -0.385681485888     1.007825032230
         H            4.797530116196     1.087327855257    -0.102626485888     1.007825032230

  Basis Set: AUG-CC-PVTZ
    Blend: AUG-CC-PVTZ
  Basis Set: (AUG-CC-PVTZ AUX)
    Blend: AUG-CC-PVTZ-JKFIT
	 Reference Energy          =    -515.4315204688668928 [Eh]
	 Singles Energy            =      -0.0000000000000000 [Eh]
	 Same-Spin Energy          =      -0.5795556567383096 [Eh]
	 Opposite-Spin Energy      =      -1.7960399677335834 [Eh]
	 Correlation Energy        =      -2.3755956244718930 [Eh]
	 Total Energy              =    -517.8071160933387773 [Eh]

	 ================> DF-SCS-MP2 Energies <==================
	-----------------------------------------------------------
	 SCS Same-Spin Scale       =       0.3333333333333333 [-]
	 SCS Opposite-Spin Scale   =       1.2000000000000000 [-]
	 SCS Same-Spin Energy      =      -0.1931852189127699 [Eh]
	 SCS Opposite-Spin Energy  =      -2.1552479612802999 [Eh]
	 SCS Correlation Energy    =      -2.3484331801930698 [Eh]
	 SCS Total Energy          =    -517.7799536490599621 [Eh]
	-----------------------------------------------------------

  Dipole Moment: [D]
     X:    -0.6316      Y:    -0.5249      Z:    -0.4216     Total:     0.9231

*** Psi4 exiting successfully. Buy a developer a beer!
