                               Psi4 1.3.2 release

  ==> Input File <==

--------------------------------------------------------------------------
#psi4
#
memory 32 gb

molecule  {
0 1
  N       -0.0163110    -1.1135150     0.2687020
  C       -1.2646444    -0.4884924     0.0848229
  C        1.2381220    -0.5006260     0.1304260
  C       -2.4182660    -1.1561390     0.4533410
  C        2.2667570    -1.1558630    -0.5622090
  C       -1.3663670     0.8217430    -0.4624040
  C        1.5092770     0.7278700     0.7556340
  C       -3.6714090    -0.5759060     0.2727570
  C        3.5406120    -0.5923050    -0.6332660
  C       -2.6261210     1.4012190    -0.6198330
  C        2.7778010     1.2960600     0.6560260
  C       -3.7841190     0.7131400    -0.2541910
  C        3.8015860     0.6410890    -0.0341290
  H       -0.0267310    -2.1016380     0.0386100
  H       -2.3298760    -2.1493130     0.8905540
  H        2.0612250    -2.1062600    -1.0527600
  H       -0.4782440     1.3547320    -0.7878460
  H        0.7296610     1.2176160     1.3328820
  H       -4.5621930    -1.1275980     0.5644400
  H        4.3269750    -1.1156860    -1.1722660
  H       -2.6987240     2.4001080    -1.0444480
  H        2.9731640     2.2486720     1.1432600
  H       -4.7609150     1.1715970    -0.3832790
  H        4.7911470     1.0854140    -0.1002240
units angstrom
no_reorient  #important for SAPT in psi4, default
symmetry c1  #important for SAPT in psi4, default
}

set PROPERTIES_ORIGIN ["COM"]
properties('MP2/aug-cc-pvtz', properties = ['dipole'])
--------------------------------------------------------------------------

    Molecular point group: c1
  Charge       = 0
  Multiplicity = 1
  Basis Set: AUG-CC-PVTZ
    Blend: AUG-CC-PVTZ
  Basis Set: (AUG-CC-PVTZ AUX)
    Blend: AUG-CC-PVTZ-JKFIT

    Orbital Energies [Eh]
    ---------------------

    Doubly Occupied:

       1A    -15.580307     2A    -11.284627     3A    -11.284234
       4A    -11.241201     5A    -11.240447     6A    -11.239777
       7A    -11.238582     8A    -11.234170     9A    -11.231091
      10A    -11.230483    11A    -11.229400    12A    -11.228339
      13A    -11.226513    14A     -1.261294    15A     -1.152112
      16A     -1.126832    17A     -1.026075    18A     -1.018230
      19A     -1.010389    20A     -0.972861    21A     -0.845510
      22A     -0.841446    23A     -0.819568    24A     -0.795393
      25A     -0.717520    26A     -0.706938    27A     -0.678671
      28A     -0.656559    29A     -0.628631    30A     -0.622622
      31A     -0.599536    32A     -0.592380    33A     -0.587146
      34A     -0.585522    35A     -0.542932    36A     -0.520964
      37A     -0.506648    38A     -0.503944    39A     -0.496192
      40A     -0.491074    41A     -0.448789    42A     -0.342265
      43A     -0.340245    44A     -0.336048    45A     -0.280523

  @DF-RHF Final Energy:  -515.44122255488594

   => Energetics <=

    Nuclear Repulsion Energy =            695.1228340842677653
    One-Electron Energy =               -2076.0400564484198185
    Two-Electron Energy =                 865.4759998092662272
    Total Energy =                       -515.4412225548859396
  Basis Set: (AUG-CC-PVTZ AUX)
    Blend: AUG-CC-PVTZ-RI
    Molecular point group: c1

    Geometry (in Angstrom), charge = 0, multiplicity = 1:

       Center              X                  Y                   Z               Mass
    ------------   -----------------  -----------------  -----------------  -----------------
         N           -0.015341260141    -1.106851969511     0.264971381580    14.003074004430
         C           -1.263674660141    -0.481829369511     0.081092281580    12.000000000000
         C            1.239091739859    -0.493962969511     0.126695381580    12.000000000000
         C           -2.417296260141    -1.149475969511     0.449610381580    12.000000000000
         C            2.267726739859    -1.149199969511    -0.565939618420    12.000000000000
         C           -1.365397260141     0.828406030489    -0.466134618420    12.000000000000
         C            1.510246739859     0.734533030489     0.751903381580    12.000000000000
         C           -3.670439260141    -0.569242969511     0.269026381580    12.000000000000
         C            3.541581739859    -0.585641969511    -0.636996618420    12.000000000000
         C           -2.625151260141     1.407882030489    -0.623563618420    12.000000000000
         C            2.778770739859     1.302723030489     0.652295381580    12.000000000000
         C           -3.783149260141     0.719803030489    -0.257921618420    12.000000000000
         C            3.802555739859     0.647752030489    -0.037859618420    12.000000000000
         H           -0.025761260141    -2.094974969511     0.034879381580     1.007825032230
         H           -2.328906260141    -2.142649969511     0.886823381580     1.007825032230
         H            2.062194739859    -2.099596969511    -1.056490618420     1.007825032230
         H           -0.477274260141     1.361395030489    -0.791576618420     1.007825032230
         H            0.730630739859     1.224279030489     1.329151381580     1.007825032230
         H           -4.561223260141    -1.120934969511     0.560709381580     1.007825032230
         H            4.327944739859    -1.109022969511    -1.175996618420     1.007825032230
         H           -2.697754260141     2.406771030489    -1.048178618420     1.007825032230
         H            2.974133739859     2.255335030489     1.139529381580     1.007825032230
         H           -4.759945260141     1.178260030489    -0.387009618420     1.007825032230
         H            4.792116739859     1.092077030489    -0.103954618420     1.007825032230

  Basis Set: AUG-CC-PVTZ
    Blend: AUG-CC-PVTZ
  Basis Set: (AUG-CC-PVTZ AUX)
    Blend: AUG-CC-PVTZ-JKFIT
	 Reference Energy          =    -515.4412225548859396 [Eh]
	 Singles Energy            =      -0.0000000000000000 [Eh]
	 Same-Spin Energy          =      -0.5798036153669450 [Eh]
	 Opposite-Spin Energy      =      -1.7961557646115898 [Eh]
	 Correlation Energy        =      -2.3759593799785348 [Eh]
	 Total Energy              =    -517.8171819348644931 [Eh]

	 ================> DF-SCS-MP2 Energies <==================
	-----------------------------------------------------------
	 SCS Same-Spin Scale       =       0.3333333333333333 [-]
	 SCS Opposite-Spin Scale   =       1.2000000000000000 [-]
	 SCS Same-Spin Energy      =      -0.1932678717889817 [Eh]
	 SCS Opposite-Spin Energy  =      -2.1553869175339075 [Eh]
	 SCS Correlation Energy    =      -2.3486547893228891 [Eh]
	 SCS Total Energy          =    -517.7898773442087759 [Eh]
	-----------------------------------------------------------

  Dipole Moment: [D]
     X:     0.1522      Y:    -0.6782      Z:    -0.3467     Total:     0.7767

*** Psi4 exiting successfully. Buy a developer a beer!
