                               Psi4 1.4a3.dev225

  ==> Input File <==

--------------------------------------------------------------------------
#psi4
#
memory 32 gb

molecule  {
0 1
  N       -0.0163110    -1.1135150     0.2687020
  C       -1.2091750    -0.4903946     0.0862588
  C        1.2381220    -0.5006260     0.1304260
  C       -2.4182660    -1.1561390     0.4533410
  C        2.2667570    -1.1558630    -0.5622090
  C       -1.3663670     0.8217430    -0.4624040
  C        1.5092770     0.7278700     0.7556340
  C       -3.6714090    -0.5759060     0.2727570
  C        3.5406120    -0.5923050    -0.6332660
  C       -2.6261210     1.4012190    -0.6198330
  C        2.7778010     1.2960600     0.6560260
  C       -3.7841190     0.7131400    -0.2541910
  C        3.8015860     0.6410890    -0.0341290
  H       -0.0267310    -2.1016380     0.0386100
  H       -2.3298760    -2.1493130     0.8905540
  H        2.0612250    -2.1062600    -1.0527600
  H       -0.4782440     1.3547320    -0.7878460
  H        0.7296610     1.2176160     1.3328820
  H       -4.5621930    -1.1275980     0.5644400
  H        4.3269750    -1.1156860    -1.1722660
  H       -2.6987240     2.4001080    -1.0444480
  H        2.9731640     2.2486720     1.1432600
  H       -4.7609150     1.1715970    -0.3832790
  H        4.7911470     1.0854140    -0.1002240
units angstrom
no_reorient  #important for SAPT in psi4, default
symmetry c1  #important for SAPT in psi4, default
}

set PROPERTIES_ORIGIN ["COM"]
properties('MP2/aug-cc-pvtz', properties = ['dipole'])
--------------------------------------------------------------------------

    Molecular point group: c1
  Charge       = 0
  Multiplicity = 1
  Basis Set: AUG-CC-PVTZ
    Blend: AUG-CC-PVTZ
  Basis Set: (AUG-CC-PVTZ AUX)
    Blend: AUG-CC-PVTZ-JKFIT

    Orbital Energies [Eh]
    ---------------------

    Doubly Occupied:

       1A    -15.585483     2A    -11.287353     3A    -11.286532
       4A    -11.243299     5A    -11.242443     6A    -11.237576
       7A    -11.237192     8A    -11.236887     9A    -11.233921
      10A    -11.232078    11A    -11.229662    12A    -11.227878
      13A    -11.222946    14A     -1.277016    15A     -1.151021
      16A     -1.125401    17A     -1.026011    18A     -1.019658
      19A     -1.007743    20A     -0.971200    21A     -0.846820
      22A     -0.846084    23A     -0.818453    24A     -0.794152
      25A     -0.720327    26A     -0.712552    27A     -0.680725
      28A     -0.660472    29A     -0.630092    30A     -0.621295
      31A     -0.600622    32A     -0.594199    33A     -0.589217
      34A     -0.579678    35A     -0.546595    36A     -0.521773
      37A     -0.508531    38A     -0.502817    39A     -0.498124
      40A     -0.483956    41A     -0.450478    42A     -0.343491
      43A     -0.338405    44A     -0.335568    45A     -0.276931

  @DF-RHF Final Energy:  -515.43802196343404

   => Energetics <=

    Nuclear Repulsion Energy =            695.3044039907082379
    One-Electron Energy =               -2076.3195344051696338
    Two-Electron Energy =                 865.5771084510274704
    Total Energy =                       -515.4380219634340392
  Basis Set: (AUG-CC-PVTZ AUX)
    Blend: AUG-CC-PVTZ-RI
    Molecular point group: c1

    Geometry (in Angstrom), charge = 0, multiplicity = 1:

       Center              X                  Y                   Z               Mass
    ------------   -----------------  -----------------  -----------------  -----------------
         N           -0.019277839174    -1.106716973268     0.264869477939    14.003074004430
         C           -1.212141839174    -0.483596573268     0.082426277939    12.000000000000
         C            1.235155160826    -0.493827973268     0.126593477939    12.000000000000
         C           -2.421232839174    -1.149340973268     0.449508477939    12.000000000000
         C            2.263790160826    -1.149064973268    -0.566041522061    12.000000000000
         C           -1.369333839174     0.828541026732    -0.466236522061    12.000000000000
         C            1.506310160826     0.734668026732     0.751801477939    12.000000000000
         C           -3.674375839174    -0.569107973268     0.268924477939    12.000000000000
         C            3.537645160826    -0.585506973268    -0.637098522061    12.000000000000
         C           -2.629087839174     1.408017026732    -0.623665522061    12.000000000000
         C            2.774834160826     1.302858026732     0.652193477939    12.000000000000
         C           -3.787085839174     0.719938026732    -0.258023522061    12.000000000000
         C            3.798619160826     0.647887026732    -0.037961522061    12.000000000000
         H           -0.029697839174    -2.094839973268     0.034777477939     1.007825032230
         H           -2.332842839174    -2.142514973268     0.886721477939     1.007825032230
         H            2.058258160826    -2.099461973268    -1.056592522061     1.007825032230
         H           -0.481210839174     1.361530026732    -0.791678522061     1.007825032230
         H            0.726694160826     1.224414026732     1.329049477939     1.007825032230
         H           -4.565159839174    -1.120799973268     0.560607477939     1.007825032230
         H            4.324008160826    -1.108887973268    -1.176098522061     1.007825032230
         H           -2.701690839174     2.406906026732    -1.048280522061     1.007825032230
         H            2.970197160826     2.255470026732     1.139427477939     1.007825032230
         H           -4.763881839174     1.178395026732    -0.387111522061     1.007825032230
         H            4.788180160826     1.092212026732    -0.104056522061     1.007825032230

  Basis Set: AUG-CC-PVTZ
    Blend: AUG-CC-PVTZ
  Basis Set: (AUG-CC-PVTZ AUX)
    Blend: AUG-CC-PVTZ-JKFIT
	 Reference Energy          =    -515.4380219634340392 [Eh]
	 Singles Energy            =      -0.0000000000000000 [Eh]
	 Same-Spin Energy          =      -0.5802652457790177 [Eh]
	 Opposite-Spin Energy      =      -1.7967558364127503 [Eh]
	 Correlation Energy        =      -2.3770210821917681 [Eh]
	 Total Energy              =    -517.8150430456257709 [Eh]

	 ================> DF-SCS-MP2 Energies <==================
	-----------------------------------------------------------
	 SCS Same-Spin Scale       =       0.3333333333333333 [-]
	 SCS Opposite-Spin Scale   =       1.2000000000000000 [-]
	 SCS Same-Spin Energy      =      -0.1934217485930059 [Eh]
	 SCS Opposite-Spin Energy  =      -2.1561070036953001 [Eh]
	 SCS Correlation Energy    =      -2.3495287522883062 [Eh]
	 SCS Total Energy          =    -517.7875507157223183 [Eh]
	-----------------------------------------------------------

  Dipole Moment: [D]
     X:     0.5847      Y:    -0.7699      Z:    -0.3083     Total:     1.0147

*** Psi4 exiting successfully. Buy a developer a beer!
