                               Psi4 1.4a3.dev225

  ==> Input File <==

--------------------------------------------------------------------------
#psi4
#
memory 32 gb

molecule  {
0 1
  N       -0.0163110    -1.1135150     0.2687020
  C       -1.2355246    -0.4766302     0.0822287
  C        1.2381220    -0.5006260     0.1304260
  C       -2.4182660    -1.1561390     0.4533410
  C        2.2667570    -1.1558630    -0.5622090
  C       -1.3663670     0.8217430    -0.4624040
  C        1.5092770     0.7278700     0.7556340
  C       -3.6714090    -0.5759060     0.2727570
  C        3.5406120    -0.5923050    -0.6332660
  C       -2.6261210     1.4012190    -0.6198330
  C        2.7778010     1.2960600     0.6560260
  C       -3.7841190     0.7131400    -0.2541910
  C        3.8015860     0.6410890    -0.0341290
  H       -0.0267310    -2.1016380     0.0386100
  H       -2.3298760    -2.1493130     0.8905540
  H        2.0612250    -2.1062600    -1.0527600
  H       -0.4782440     1.3547320    -0.7878460
  H        0.7296610     1.2176160     1.3328820
  H       -4.5621930    -1.1275980     0.5644400
  H        4.3269750    -1.1156860    -1.1722660
  H       -2.6987240     2.4001080    -1.0444480
  H        2.9731640     2.2486720     1.1432600
  H       -4.7609150     1.1715970    -0.3832790
  H        4.7911470     1.0854140    -0.1002240
units angstrom
no_reorient  #important for SAPT in psi4, default
symmetry c1  #important for SAPT in psi4, default
}

set PROPERTIES_ORIGIN ["COM"]
properties('MP2/aug-cc-pvtz', properties = ['dipole'])
--------------------------------------------------------------------------

    Molecular point group: c1
  Charge       = 0
  Multiplicity = 1
  Basis Set: AUG-CC-PVTZ
    Blend: AUG-CC-PVTZ
  Basis Set: (AUG-CC-PVTZ AUX)
    Blend: AUG-CC-PVTZ-JKFIT

    Orbital Energies [Eh]
    ---------------------

    Doubly Occupied:

       1A    -15.582452     2A    -11.285686     3A    -11.284776
       4A    -11.241970     5A    -11.241199     6A    -11.238743
       7A    -11.238062     8A    -11.235260     9A    -11.232162
      10A    -11.230418    11A    -11.230296    12A    -11.228168
      13A    -11.225151    14A     -1.267385    15A     -1.151133
      16A     -1.126539    17A     -1.024855    18A     -1.018670
      19A     -1.010274    20A     -0.972258    21A     -0.845458
      22A     -0.843339    23A     -0.819734    24A     -0.794468
      25A     -0.718147    26A     -0.709529    27A     -0.679452
      28A     -0.658401    29A     -0.629057    30A     -0.621617
      31A     -0.599755    32A     -0.593749    33A     -0.587942
      34A     -0.583291    35A     -0.544052    36A     -0.521190
      37A     -0.507746    38A     -0.503321    39A     -0.496360
      40A     -0.488793    41A     -0.449661    42A     -0.342586
      43A     -0.338443    44A     -0.336800    45A     -0.279326

  @DF-RHF Final Energy:  -515.44120376717933

   => Energetics <=

    Nuclear Repulsion Energy =            695.2503632598593413
    One-Electron Energy =               -2076.2677825909559033
    Two-Electron Energy =                 865.5762155639172306
    Total Energy =                       -515.4412037671793314
  Basis Set: (AUG-CC-PVTZ AUX)
    Blend: AUG-CC-PVTZ-RI
    Molecular point group: c1

    Geometry (in Angstrom), charge = 0, multiplicity = 1:

       Center              X                  Y                   Z               Mass
    ------------   -----------------  -----------------  -----------------  -----------------
         N           -0.017407848100    -1.107693811821     0.265155488012    14.003074004430
         C           -1.236621448100    -0.470809011821     0.078682188012    12.000000000000
         C            1.237025151900    -0.494804811821     0.126879488012    12.000000000000
         C           -2.419362848100    -1.150317811821     0.449794488012    12.000000000000
         C            2.265660151900    -1.150041811821    -0.565755511988    12.000000000000
         C           -1.367463848100     0.827564188179    -0.465950511988    12.000000000000
         C            1.508180151900     0.733691188179     0.752087488012    12.000000000000
         C           -3.672505848100    -0.570084811821     0.269210488012    12.000000000000
         C            3.539515151900    -0.586483811821    -0.636812511988    12.000000000000
         C           -2.627217848100     1.407040188179    -0.623379511988    12.000000000000
         C            2.776704151900     1.301881188179     0.652479488012    12.000000000000
         C           -3.785215848100     0.718961188179    -0.257737511988    12.000000000000
         C            3.800489151900     0.646910188179    -0.037675511988    12.000000000000
         H           -0.027827848100    -2.095816811821     0.035063488012     1.007825032230
         H           -2.330972848100    -2.143491811821     0.887007488012     1.007825032230
         H            2.060128151900    -2.100438811821    -1.056306511988     1.007825032230
         H           -0.479340848100     1.360553188179    -0.791392511988     1.007825032230
         H            0.728564151900     1.223437188179     1.329335488012     1.007825032230
         H           -4.563289848100    -1.121776811821     0.560893488012     1.007825032230
         H            4.325878151900    -1.109864811821    -1.175812511988     1.007825032230
         H           -2.699820848100     2.405929188179    -1.047994511988     1.007825032230
         H            2.972067151900     2.254493188179     1.139713488012     1.007825032230
         H           -4.762011848100     1.177418188179    -0.386825511988     1.007825032230
         H            4.790050151900     1.091235188179    -0.103770511988     1.007825032230

  Basis Set: AUG-CC-PVTZ
    Blend: AUG-CC-PVTZ
  Basis Set: (AUG-CC-PVTZ AUX)
    Blend: AUG-CC-PVTZ-JKFIT
	 Reference Energy          =    -515.4412037671793314 [Eh]
	 Singles Energy            =      -0.0000000000000000 [Eh]
	 Same-Spin Energy          =      -0.5799654823036486 [Eh]
	 Opposite-Spin Energy      =      -1.7963400776126515 [Eh]
	 Correlation Energy        =      -2.3763055599163003 [Eh]
	 Total Energy              =    -517.8175093270956495 [Eh]

	 ================> DF-SCS-MP2 Energies <==================
	-----------------------------------------------------------
	 SCS Same-Spin Scale       =       0.3333333333333333 [-]
	 SCS Opposite-Spin Scale   =       1.2000000000000000 [-]
	 SCS Same-Spin Energy      =      -0.1933218274345495 [Eh]
	 SCS Opposite-Spin Energy  =      -2.1556080931351818 [Eh]
	 SCS Correlation Energy    =      -2.3489299205697312 [Eh]
	 SCS Total Energy          =    -517.7901336877490621 [Eh]
	-----------------------------------------------------------

  Dipole Moment: [D]
     X:     0.3216      Y:    -0.7176      Z:    -0.3327     Total:     0.8539

*** Psi4 exiting successfully. Buy a developer a beer!
