                               Psi4 1.3.2 release

  ==> Input File <==

--------------------------------------------------------------------------
#psi4
#
memory 32 gb

molecule  {
0 1
  N       -0.0163110    -1.1135150     0.2687020
  C       -1.2896634    -0.5536718     0.0497266
  C        1.2381220    -0.5006260     0.1304260
  C       -2.4182660    -1.1561390     0.4533410
  C        2.2667570    -1.1558630    -0.5622090
  C       -1.3663670     0.8217430    -0.4624040
  C        1.5092770     0.7278700     0.7556340
  C       -3.6714090    -0.5759060     0.2727570
  C        3.5406120    -0.5923050    -0.6332660
  C       -2.6261210     1.4012190    -0.6198330
  C        2.7778010     1.2960600     0.6560260
  C       -3.7841190     0.7131400    -0.2541910
  C        3.8015860     0.6410890    -0.0341290
  H       -0.0267310    -2.1016380     0.0386100
  H       -2.3298760    -2.1493130     0.8905540
  H        2.0612250    -2.1062600    -1.0527600
  H       -0.4782440     1.3547320    -0.7878460
  H        0.7296610     1.2176160     1.3328820
  H       -4.5621930    -1.1275980     0.5644400
  H        4.3269750    -1.1156860    -1.1722660
  H       -2.6987240     2.4001080    -1.0444480
  H        2.9731640     2.2486720     1.1432600
  H       -4.7609150     1.1715970    -0.3832790
  H        4.7911470     1.0854140    -0.1002240
units angstrom
no_reorient  #important for SAPT in psi4, default
symmetry c1  #important for SAPT in psi4, default
}

set PROPERTIES_ORIGIN ["COM"]
properties('MP2/aug-cc-pvtz', properties = ['dipole'])
--------------------------------------------------------------------------

    Molecular point group: c1
  Charge       = 0
  Multiplicity = 1
  Basis Set: AUG-CC-PVTZ
    Blend: AUG-CC-PVTZ
  Basis Set: (AUG-CC-PVTZ AUX)
    Blend: AUG-CC-PVTZ-JKFIT

    Orbital Energies [Eh]
    ---------------------

    Doubly Occupied:

       1A    -15.579638     2A    -11.285391     3A    -11.283998
       4A    -11.241454     5A    -11.240644     6A    -11.240010
       7A    -11.237845     8A    -11.234820     9A    -11.234661
      10A    -11.231609    11A    -11.230031    12A    -11.226750
      13A    -11.223339    14A     -1.260899    15A     -1.152969
      16A     -1.127052    17A     -1.030471    18A     -1.018020
      19A     -1.007658    20A     -0.972889    21A     -0.846953
      22A     -0.840615    23A     -0.818224    24A     -0.795770
      25A     -0.719120    26A     -0.704020    27A     -0.679363
      28A     -0.656652    29A     -0.628738    30A     -0.623683
      31A     -0.601830    32A     -0.589915    33A     -0.587508
      34A     -0.582632    35A     -0.543675    36A     -0.521318
      37A     -0.506959    38A     -0.504224    39A     -0.497652
      40A     -0.486330    41A     -0.448438    42A     -0.345822
      43A     -0.341200    44A     -0.332458    45A     -0.280861

  @DF-RHF Final Energy:  -515.43288682974571

   => Energetics <=

    Nuclear Repulsion Energy =            694.8163846524723795
    One-Electron Energy =               -2075.4103259519833955
    Two-Electron Energy =                 865.1610544697653040
    Total Energy =                       -515.4328868297457120
  Basis Set: (AUG-CC-PVTZ AUX)
    Blend: AUG-CC-PVTZ-RI
    Molecular point group: c1

    Geometry (in Angstrom), charge = 0, multiplicity = 1:

       Center              X                  Y                   Z               Mass
    ------------   -----------------  -----------------  -----------------  -----------------
         N           -0.013565699727    -1.102226286533     0.267462112662    14.003074004430
         C           -1.286918099727    -0.542383086533     0.048486712662    12.000000000000
         C            1.240867300273    -0.489337286533     0.129186112662    12.000000000000
         C           -2.415520699727    -1.144850286533     0.452101112662    12.000000000000
         C            2.269502300273    -1.144574286533    -0.563448887338    12.000000000000
         C           -1.363621699727     0.833031713467    -0.463643887338    12.000000000000
         C            1.512022300273     0.739158713467     0.754394112662    12.000000000000
         C           -3.668663699727    -0.564617286533     0.271517112662    12.000000000000
         C            3.543357300273    -0.581016286533    -0.634505887338    12.000000000000
         C           -2.623375699727     1.412507713467    -0.621072887338    12.000000000000
         C            2.780546300273     1.307348713467     0.654786112662    12.000000000000
         C           -3.781373699727     0.724428713467    -0.255430887338    12.000000000000
         C            3.804331300273     0.652377713467    -0.035368887338    12.000000000000
         H           -0.023985699727    -2.090349286533     0.037370112662     1.007825032230
         H           -2.327130699727    -2.138024286533     0.889314112662     1.007825032230
         H            2.063970300273    -2.094971286533    -1.053999887338     1.007825032230
         H           -0.475498699727     1.366020713467    -0.789085887338     1.007825032230
         H            0.732406300273     1.228904713467     1.331642112662     1.007825032230
         H           -4.559447699727    -1.116309286533     0.563200112662     1.007825032230
         H            4.329720300273    -1.104397286533    -1.173505887338     1.007825032230
         H           -2.695978699727     2.411396713467    -1.045687887338     1.007825032230
         H            2.975909300273     2.259960713467     1.142020112662     1.007825032230
         H           -4.758169699727     1.182885713467    -0.384518887338     1.007825032230
         H            4.793892300273     1.096702713467    -0.101463887338     1.007825032230

  Basis Set: AUG-CC-PVTZ
    Blend: AUG-CC-PVTZ
  Basis Set: (AUG-CC-PVTZ AUX)
    Blend: AUG-CC-PVTZ-JKFIT
	 Reference Energy          =    -515.4328868297457120 [Eh]
	 Singles Energy            =      -0.0000000000000000 [Eh]
	 Same-Spin Energy          =      -0.5797627946393039 [Eh]
	 Opposite-Spin Energy      =      -1.7966818997009737 [Eh]
	 Correlation Energy        =      -2.3764446943402775 [Eh]
	 Total Energy              =    -517.8093315240860193 [Eh]

	 ================> DF-SCS-MP2 Energies <==================
	-----------------------------------------------------------
	 SCS Same-Spin Scale       =       0.3333333333333333 [-]
	 SCS Opposite-Spin Scale   =       1.2000000000000000 [-]
	 SCS Same-Spin Energy      =      -0.1932542648797680 [Eh]
	 SCS Opposite-Spin Energy  =      -2.1560182796411684 [Eh]
	 SCS Correlation Energy    =      -2.3492725445209364 [Eh]
	 SCS Total Energy          =    -517.7821593742665982 [Eh]
	-----------------------------------------------------------

  Dipole Moment: [D]
     X:     0.2011      Y:    -0.6505      Z:    -0.3504     Total:     0.7657

*** Psi4 exiting successfully. Buy a developer a beer!
