                               Psi4 1.3.2 release

  ==> Input File <==

--------------------------------------------------------------------------
#psi4
#
memory 32 gb

molecule  {
0 1
  N       -0.0048553    -1.0938054     0.2595216
  C       -1.2530910    -0.4674540     0.0795420
  C        1.2381220    -0.5006260     0.1304260
  C       -2.4182660    -1.1561390     0.4533410
  C        2.2667570    -1.1558630    -0.5622090
  C       -1.3663670     0.8217430    -0.4624040
  C        1.5092770     0.7278700     0.7556340
  C       -3.6714090    -0.5759060     0.2727570
  C        3.5406120    -0.5923050    -0.6332660
  C       -2.6261210     1.4012190    -0.6198330
  C        2.7778010     1.2960600     0.6560260
  C       -3.7841190     0.7131400    -0.2541910
  C        3.8015860     0.6410890    -0.0341290
  H       -0.0267310    -2.1016380     0.0386100
  H       -2.3298760    -2.1493130     0.8905540
  H        2.0612250    -2.1062600    -1.0527600
  H       -0.4782440     1.3547320    -0.7878460
  H        0.7296610     1.2176160     1.3328820
  H       -4.5621930    -1.1275980     0.5644400
  H        4.3269750    -1.1156860    -1.1722660
  H       -2.6987240     2.4001080    -1.0444480
  H        2.9731640     2.2486720     1.1432600
  H       -4.7609150     1.1715970    -0.3832790
  H        4.7911470     1.0854140    -0.1002240
units angstrom
no_reorient  #important for SAPT in psi4, default
symmetry c1  #important for SAPT in psi4, default
}

set PROPERTIES_ORIGIN ["COM"]
properties('MP2/aug-cc-pvtz', properties = ['dipole'])
--------------------------------------------------------------------------

    Molecular point group: c1
  Charge       = 0
  Multiplicity = 1
  Basis Set: AUG-CC-PVTZ
    Blend: AUG-CC-PVTZ
  Basis Set: (AUG-CC-PVTZ AUX)
    Blend: AUG-CC-PVTZ-JKFIT

    Orbital Energies [Eh]
    ---------------------

    Doubly Occupied:

       1A    -15.581982     2A    -11.285673     3A    -11.282679
       4A    -11.240605     5A    -11.240242     6A    -11.239779
       7A    -11.239111     8A    -11.232855     9A    -11.231782
      10A    -11.229664    11A    -11.228362    12A    -11.228070
      13A    -11.226947    14A     -1.265078    15A     -1.151979
      16A     -1.126636    17A     -1.025290    18A     -1.018143
      19A     -1.011877    20A     -0.971655    21A     -0.845829
      22A     -0.842475    23A     -0.821113    24A     -0.793376
      25A     -0.718858    26A     -0.706114    27A     -0.678157
      28A     -0.657976    29A     -0.629330    30A     -0.621754
      31A     -0.600077    32A     -0.592178    33A     -0.586224
      34A     -0.585599    35A     -0.544173    36A     -0.520738
      37A     -0.507577    38A     -0.503686    39A     -0.495293
      40A     -0.491429    41A     -0.449165    42A     -0.342083
      43A     -0.338688    44A     -0.337433    45A     -0.279119

  @DF-RHF Final Energy:  -515.44089104144621

   => Energetics <=

    Nuclear Repulsion Energy =            695.6109342897187844
    One-Electron Energy =               -2077.0099468180042095
    Two-Electron Energy =                 865.9581214868391044
    Total Energy =                       -515.4408910414462071
  Basis Set: (AUG-CC-PVTZ AUX)
    Blend: AUG-CC-PVTZ-RI
    Molecular point group: c1

    Geometry (in Angstrom), charge = 0, multiplicity = 1:

       Center              X                  Y                   Z               Mass
    ------------   -----------------  -----------------  -----------------  -----------------
         N           -0.005654188205    -1.090267678199     0.256926031471    14.003074004430
         C           -1.253889888205    -0.463916278199     0.076946431471    12.000000000000
         C            1.237323111795    -0.497088278199     0.127830431471    12.000000000000
         C           -2.419064888205    -1.152601278199     0.450745431471    12.000000000000
         C            2.265958111795    -1.152325278199    -0.564804568529    12.000000000000
         C           -1.367165888205     0.825280721801    -0.464999568529    12.000000000000
         C            1.508478111795     0.731407721801     0.753038431471    12.000000000000
         C           -3.672207888205    -0.572368278199     0.270161431471    12.000000000000
         C            3.539813111795    -0.588767278199    -0.635861568529    12.000000000000
         C           -2.626919888205     1.404756721801    -0.622428568529    12.000000000000
         C            2.777002111795     1.299597721801     0.653430431471    12.000000000000
         C           -3.784917888205     0.716677721801    -0.256786568529    12.000000000000
         C            3.800787111795     0.644626721801    -0.036724568529    12.000000000000
         H           -0.027529888205    -2.098100278199     0.036014431471     1.007825032230
         H           -2.330674888205    -2.145775278199     0.887958431471     1.007825032230
         H            2.060426111795    -2.102722278199    -1.055355568529     1.007825032230
         H           -0.479042888205     1.358269721801    -0.790441568529     1.007825032230
         H            0.728862111795     1.221153721801     1.330286431471     1.007825032230
         H           -4.562991888205    -1.124060278199     0.561844431471     1.007825032230
         H            4.326176111795    -1.112148278199    -1.174861568529     1.007825032230
         H           -2.699522888205     2.403645721801    -1.047043568529     1.007825032230
         H            2.972365111795     2.252209721801     1.140664431471     1.007825032230
         H           -4.761713888205     1.175134721801    -0.385874568529     1.007825032230
         H            4.790348111795     1.088951721801    -0.102819568529     1.007825032230

  Basis Set: AUG-CC-PVTZ
    Blend: AUG-CC-PVTZ
  Basis Set: (AUG-CC-PVTZ AUX)
    Blend: AUG-CC-PVTZ-JKFIT
	 Reference Energy          =    -515.4408910414462071 [Eh]
	 Singles Energy            =      -0.0000000000000000 [Eh]
	 Same-Spin Energy          =      -0.5800975191635132 [Eh]
	 Opposite-Spin Energy      =      -1.7964112084883415 [Eh]
	 Correlation Energy        =      -2.3765087276518546 [Eh]
	 Total Energy              =    -517.8173997690980741 [Eh]

	 ================> DF-SCS-MP2 Energies <==================
	-----------------------------------------------------------
	 SCS Same-Spin Scale       =       0.3333333333333333 [-]
	 SCS Opposite-Spin Scale   =       1.2000000000000000 [-]
	 SCS Same-Spin Energy      =      -0.1933658397211711 [Eh]
	 SCS Opposite-Spin Energy  =      -2.1556934501860097 [Eh]
	 SCS Correlation Energy    =      -2.3490592899071805 [Eh]
	 SCS Total Energy          =    -517.7899503313533387 [Eh]
	-----------------------------------------------------------

  Dipole Moment: [D]
     X:     0.0463      Y:    -0.7221      Z:    -0.3250     Total:     0.7932

*** Psi4 exiting successfully. Buy a developer a beer!
