                               Psi4 1.3.2 release

  ==> Input File <==

--------------------------------------------------------------------------
#psi4
#
memory 32 gb

molecule  {
0 1
  N       -0.0163110    -1.1135150     0.2687020
  C       -1.2530910    -0.4674540     0.0795420
  C        1.2381220    -0.5006260     0.1304260
  C       -2.5842273    -1.2542316     0.5065829
  C        2.2667570    -1.1558630    -0.5622090
  C       -1.3663670     0.8217430    -0.4624040
  C        1.5092770     0.7278700     0.7556340
  C       -3.6714090    -0.5759060     0.2727570
  C        3.5406120    -0.5923050    -0.6332660
  C       -2.6261210     1.4012190    -0.6198330
  C        2.7778010     1.2960600     0.6560260
  C       -3.7841190     0.7131400    -0.2541910
  C        3.8015860     0.6410890    -0.0341290
  H       -0.0267310    -2.1016380     0.0386100
  H       -2.3298760    -2.1493130     0.8905540
  H        2.0612250    -2.1062600    -1.0527600
  H       -0.4782440     1.3547320    -0.7878460
  H        0.7296610     1.2176160     1.3328820
  H       -4.5621930    -1.1275980     0.5644400
  H        4.3269750    -1.1156860    -1.1722660
  H       -2.6987240     2.4001080    -1.0444480
  H        2.9731640     2.2486720     1.1432600
  H       -4.7609150     1.1715970    -0.3832790
  H        4.7911470     1.0854140    -0.1002240
units angstrom
no_reorient  #important for SAPT in psi4, default
symmetry c1  #important for SAPT in psi4, default
}

set PROPERTIES_ORIGIN ["COM"]
properties('MP2/aug-cc-pvtz', properties = ['dipole'])
--------------------------------------------------------------------------

    Molecular point group: c1
  Charge       = 0
  Multiplicity = 1
  Basis Set: AUG-CC-PVTZ
    Blend: AUG-CC-PVTZ
  Basis Set: (AUG-CC-PVTZ AUX)
    Blend: AUG-CC-PVTZ-JKFIT

    Orbital Energies [Eh]
    ---------------------

    Doubly Occupied:

       1A    -15.586497     2A    -11.299923     3A    -11.285074
       4A    -11.242136     5A    -11.241219     6A    -11.240338
       7A    -11.235827     8A    -11.234787     9A    -11.232375
      10A    -11.230822    11A    -11.229600    12A    -11.222517
      13A    -11.222278    14A     -1.260795    15A     -1.147833
      16A     -1.127443    17A     -1.029850    18A     -1.018621
      19A     -1.014168    20A     -0.965672    21A     -0.847738
      22A     -0.840204    23A     -0.823896    24A     -0.788731
      25A     -0.714170    26A     -0.709538    27A     -0.690093
      28A     -0.665742    29A     -0.634432    30A     -0.616920
      31A     -0.601312    32A     -0.594304    33A     -0.587795
      34A     -0.579411    35A     -0.542192    36A     -0.524190
      37A     -0.515754    38A     -0.500602    39A     -0.496203
      40A     -0.466516    41A     -0.444077    42A     -0.356962
      43A     -0.341304    44A     -0.330833    45A     -0.272629

  @DF-RHF Final Energy:  -515.40140489504404

   => Energetics <=

    Nuclear Repulsion Energy =            692.3760318582045556
    One-Electron Energy =               -2070.4482295904758757
    Two-Electron Energy =                 862.6707928372273955
    Total Energy =                       -515.4014048950440383
  Basis Set: (AUG-CC-PVTZ AUX)
    Blend: AUG-CC-PVTZ-RI
    Molecular point group: c1

    Geometry (in Angstrom), charge = 0, multiplicity = 1:

       Center              X                  Y                   Z               Mass
    ------------   -----------------  -----------------  -----------------  -----------------
         N           -0.004383166100    -1.101383550021     0.261567662287    14.003074004430
         C           -1.241163166100    -0.455322550021     0.072407662287    12.000000000000
         C            1.250049833900    -0.488494550021     0.123291662287    12.000000000000
         C           -2.572299466100    -1.242100150021     0.499448562287    12.000000000000
         C            2.278684833900    -1.143731550021    -0.569343337713    12.000000000000
         C           -1.354439166100     0.833874449979    -0.469538337713    12.000000000000
         C            1.521204833900     0.740001449979     0.748499662287    12.000000000000
         C           -3.659481166100    -0.563774550021     0.265622662287    12.000000000000
         C            3.552539833900    -0.580173550021    -0.640400337713    12.000000000000
         C           -2.614193166100     1.413350449979    -0.626967337713    12.000000000000
         C            2.789728833900     1.308191449979     0.648891662287    12.000000000000
         C           -3.772191166100     0.725271449979    -0.261325337713    12.000000000000
         C            3.813513833900     0.653220449979    -0.041263337713    12.000000000000
         H           -0.014803166100    -2.089506550021     0.031475662287     1.007825032230
         H           -2.317948166100    -2.137181550021     0.883419662287     1.007825032230
         H            2.073152833900    -2.094128550021    -1.059894337713     1.007825032230
         H           -0.466316166100     1.366863449979    -0.794980337713     1.007825032230
         H            0.741588833900     1.229747449979     1.325747662287     1.007825032230
         H           -4.550265166100    -1.115466550021     0.557305662287     1.007825032230
         H            4.338902833900    -1.103554550021    -1.179400337713     1.007825032230
         H           -2.686796166100     2.412239449979    -1.051582337713     1.007825032230
         H            2.985091833900     2.260803449979     1.136125662287     1.007825032230
         H           -4.748987166100     1.183728449979    -0.390413337713     1.007825032230
         H            4.803074833900     1.097545449979    -0.107358337713     1.007825032230

  Basis Set: AUG-CC-PVTZ
    Blend: AUG-CC-PVTZ
  Basis Set: (AUG-CC-PVTZ AUX)
    Blend: AUG-CC-PVTZ-JKFIT
	 Reference Energy          =    -515.4014048950440383 [Eh]
	 Singles Energy            =      -0.0000000000000000 [Eh]
	 Same-Spin Energy          =      -0.5792228176534364 [Eh]
	 Opposite-Spin Energy      =      -1.7979604557309921 [Eh]
	 Correlation Energy        =      -2.3771832733844285 [Eh]
	 Total Energy              =    -517.7785881684284277 [Eh]

	 ================> DF-SCS-MP2 Energies <==================
	-----------------------------------------------------------
	 SCS Same-Spin Scale       =       0.3333333333333333 [-]
	 SCS Opposite-Spin Scale   =       1.2000000000000000 [-]
	 SCS Same-Spin Energy      =      -0.1930742725511455 [Eh]
	 SCS Opposite-Spin Energy  =      -2.1575525468771906 [Eh]
	 SCS Correlation Energy    =      -2.3506268194283360 [Eh]
	 SCS Total Energy          =    -517.7520317144724231 [Eh]
	-----------------------------------------------------------

  Dipole Moment: [D]
     X:     0.4214      Y:    -0.7941      Z:    -0.2935     Total:     0.9457

*** Psi4 exiting successfully. Buy a developer a beer!
