                               Psi4 1.3.2 release

  ==> Input File <==

--------------------------------------------------------------------------
#psi4
#
memory 32 gb

molecule  {
0 1
  N       -0.0163110    -1.1135150     0.2687020
  C       -1.1869983    -0.3441561     0.1259464
  C        1.2381220    -0.5006260     0.1304260
  C       -2.4182660    -1.1561390     0.4533410
  C        2.2667570    -1.1558630    -0.5622090
  C       -1.3663670     0.8217430    -0.4624040
  C        1.5092770     0.7278700     0.7556340
  C       -3.6714090    -0.5759060     0.2727570
  C        3.5406120    -0.5923050    -0.6332660
  C       -2.6261210     1.4012190    -0.6198330
  C        2.7778010     1.2960600     0.6560260
  C       -3.7841190     0.7131400    -0.2541910
  C        3.8015860     0.6410890    -0.0341290
  H       -0.0267310    -2.1016380     0.0386100
  H       -2.3298760    -2.1493130     0.8905540
  H        2.0612250    -2.1062600    -1.0527600
  H       -0.4782440     1.3547320    -0.7878460
  H        0.7296610     1.2176160     1.3328820
  H       -4.5621930    -1.1275980     0.5644400
  H        4.3269750    -1.1156860    -1.1722660
  H       -2.6987240     2.4001080    -1.0444480
  H        2.9731640     2.2486720     1.1432600
  H       -4.7609150     1.1715970    -0.3832790
  H        4.7911470     1.0854140    -0.1002240
units angstrom
no_reorient  #important for SAPT in psi4, default
symmetry c1  #important for SAPT in psi4, default
}

set PROPERTIES_ORIGIN ["COM"]
properties('MP2/aug-cc-pvtz', properties = ['dipole'])
--------------------------------------------------------------------------

    Molecular point group: c1
  Charge       = 0
  Multiplicity = 1
  Basis Set: AUG-CC-PVTZ
    Blend: AUG-CC-PVTZ
  Basis Set: (AUG-CC-PVTZ AUX)
    Blend: AUG-CC-PVTZ-JKFIT

    Orbital Energies [Eh]
    ---------------------

    Doubly Occupied:

       1A    -15.581467     2A    -11.284646     3A    -11.281030
       4A    -11.241256     5A    -11.240500     6A    -11.239982
       7A    -11.239817     8A    -11.238076     9A    -11.232561
      10A    -11.230021    11A    -11.228292    12A    -11.228167
      13A    -11.219183    14A     -1.262468    15A     -1.150628
      16A     -1.126810    17A     -1.027618    18A     -1.014716
      19A     -1.013272    20A     -0.971201    21A     -0.846867
      22A     -0.838010    23A     -0.824349    24A     -0.789327
      25A     -0.715875    26A     -0.711325    27A     -0.678962
      28A     -0.660323    29A     -0.628025    30A     -0.619066
      31A     -0.604466    32A     -0.593175    33A     -0.587003
      34A     -0.578628    35A     -0.541245    36A     -0.521610
      37A     -0.510943    38A     -0.503711    39A     -0.495070
      40A     -0.479269    41A     -0.448004    42A     -0.350034
      43A     -0.339632    44A     -0.329716    45A     -0.280369

  @DF-RHF Final Energy:  -515.42254392123243

   => Energetics <=

    Nuclear Repulsion Energy =            695.7343245875809998
    One-Electron Energy =               -2077.2603110452041619
    Two-Electron Energy =                 866.1034425363908440
    Total Energy =                       -515.4225439212324318
  Basis Set: (AUG-CC-PVTZ AUX)
    Blend: AUG-CC-PVTZ-RI
    Molecular point group: c1

    Geometry (in Angstrom), charge = 0, multiplicity = 1:

       Center              X                  Y                   Z               Mass
    ------------   -----------------  -----------------  -----------------  -----------------
         N           -0.020851685875    -1.117095297404     0.262052909272    14.003074004430
         C           -1.191538985875    -0.347736397404     0.119297309272    12.000000000000
         C            1.233581314125    -0.504206297404     0.123776909272    12.000000000000
         C           -2.422806685875    -1.159719297404     0.446691909272    12.000000000000
         C            2.262216314125    -1.159443297404    -0.568858090728    12.000000000000
         C           -1.370907685875     0.818162702596    -0.469053090728    12.000000000000
         C            1.504736314125     0.724289702596     0.748984909272    12.000000000000
         C           -3.675949685875    -0.579486297404     0.266107909272    12.000000000000
         C            3.536071314125    -0.595885297404    -0.639915090728    12.000000000000
         C           -2.630661685875     1.397638702596    -0.626482090728    12.000000000000
         C            2.773260314125     1.292479702596     0.649376909272    12.000000000000
         C           -3.788659685875     0.709559702596    -0.260840090728    12.000000000000
         C            3.797045314125     0.637508702596    -0.040778090728    12.000000000000
         H           -0.031271685875    -2.105218297404     0.031960909272     1.007825032230
         H           -2.334416685875    -2.152893297404     0.883904909272     1.007825032230
         H            2.056684314125    -2.109840297404    -1.059409090728     1.007825032230
         H           -0.482784685875     1.351151702596    -0.794495090728     1.007825032230
         H            0.725120314125     1.214035702596     1.326232909272     1.007825032230
         H           -4.566733685875    -1.131178297404     0.557790909272     1.007825032230
         H            4.322434314125    -1.119266297404    -1.178915090728     1.007825032230
         H           -2.703264685875     2.396527702596    -1.051097090728     1.007825032230
         H            2.968623314125     2.245091702596     1.136610909272     1.007825032230
         H           -4.765455685875     1.168016702596    -0.389928090728     1.007825032230
         H            4.786606314125     1.081833702596    -0.106873090728     1.007825032230

  Basis Set: AUG-CC-PVTZ
    Blend: AUG-CC-PVTZ
  Basis Set: (AUG-CC-PVTZ AUX)
    Blend: AUG-CC-PVTZ-JKFIT
	 Reference Energy          =    -515.4225439212324318 [Eh]
	 Singles Energy            =      -0.0000000000000000 [Eh]
	 Same-Spin Energy          =      -0.5797007302884705 [Eh]
	 Opposite-Spin Energy      =      -1.7975166786985530 [Eh]
	 Correlation Energy        =      -2.3772174089870237 [Eh]
	 Total Energy              =    -517.7997613302194395 [Eh]

	 ================> DF-SCS-MP2 Energies <==================
	-----------------------------------------------------------
	 SCS Same-Spin Scale       =       0.3333333333333333 [-]
	 SCS Opposite-Spin Scale   =       1.2000000000000000 [-]
	 SCS Same-Spin Energy      =      -0.1932335767628235 [Eh]
	 SCS Opposite-Spin Energy  =      -2.1570200144382636 [Eh]
	 SCS Correlation Energy    =      -2.3502535912010871 [Eh]
	 SCS Total Energy          =    -517.7727975124334989 [Eh]
	-----------------------------------------------------------

  Dipole Moment: [D]
     X:     0.0425      Y:    -0.7151      Z:    -0.3544     Total:     0.7992

*** Psi4 exiting successfully. Buy a developer a beer!
