                               Psi4 1.3.2 release

  ==> Input File <==

--------------------------------------------------------------------------
#psi4
#
memory 32 gb

molecule  {
0 1
  N       -0.0163110    -1.1135150     0.2687020
  C       -1.2104931    -0.3843838     0.1102790
  C        1.2381220    -0.5006260     0.1304260
  C       -2.4182660    -1.1561390     0.4533410
  C        2.2667570    -1.1558630    -0.5622090
  C       -1.3663670     0.8217430    -0.4624040
  C        1.5092770     0.7278700     0.7556340
  C       -3.6714090    -0.5759060     0.2727570
  C        3.5406120    -0.5923050    -0.6332660
  C       -2.6261210     1.4012190    -0.6198330
  C        2.7778010     1.2960600     0.6560260
  C       -3.7841190     0.7131400    -0.2541910
  C        3.8015860     0.6410890    -0.0341290
  H       -0.0267310    -2.1016380     0.0386100
  H       -2.3298760    -2.1493130     0.8905540
  H        2.0612250    -2.1062600    -1.0527600
  H       -0.4782440     1.3547320    -0.7878460
  H        0.7296610     1.2176160     1.3328820
  H       -4.5621930    -1.1275980     0.5644400
  H        4.3269750    -1.1156860    -1.1722660
  H       -2.6987240     2.4001080    -1.0444480
  H        2.9731640     2.2486720     1.1432600
  H       -4.7609150     1.1715970    -0.3832790
  H        4.7911470     1.0854140    -0.1002240
units angstrom
no_reorient  #important for SAPT in psi4, default
symmetry c1  #important for SAPT in psi4, default
}

set PROPERTIES_ORIGIN ["COM"]
properties('MP2/aug-cc-pvtz', properties = ['dipole'])
--------------------------------------------------------------------------

    Molecular point group: c1
  Charge       = 0
  Multiplicity = 1
  Basis Set: AUG-CC-PVTZ
    Blend: AUG-CC-PVTZ
  Basis Set: (AUG-CC-PVTZ AUX)
    Blend: AUG-CC-PVTZ-JKFIT

    Orbital Energies [Eh]
    ---------------------

    Doubly Occupied:

       1A    -15.581162     2A    -11.284718     3A    -11.281881
       4A    -11.240714     5A    -11.240122     6A    -11.239582
       7A    -11.239025     8A    -11.237551     9A    -11.233080
      10A    -11.230377    11A    -11.228584    12A    -11.227423
      13A    -11.221987    14A     -1.262137    15A     -1.150914
      16A     -1.126762    17A     -1.024696    18A     -1.016099
      19A     -1.013988    20A     -0.971788    21A     -0.845858
      22A     -0.839556    23A     -0.823176    24A     -0.791347
      25A     -0.715360    26A     -0.711007    27A     -0.678318
      28A     -0.659098    29A     -0.628302    30A     -0.619969
      31A     -0.602228    32A     -0.593674    33A     -0.587086
      34A     -0.581644    35A     -0.541618    36A     -0.521050
      37A     -0.509904    38A     -0.503653    39A     -0.494986
      40A     -0.485174    41A     -0.448513    42A     -0.346691
      43A     -0.339619    44A     -0.332402    45A     -0.280453

  @DF-RHF Final Energy:  -515.43327660351520

   => Energetics <=

    Nuclear Repulsion Energy =            695.5793039479902973
    One-Electron Energy =               -2076.9586083953531670
    Two-Electron Energy =                 865.9460278438475598
    Total Energy =                       -515.4332766035151963
  Basis Set: (AUG-CC-PVTZ AUX)
    Blend: AUG-CC-PVTZ-RI
    Molecular point group: c1

    Geometry (in Angstrom), charge = 0, multiplicity = 1:

       Center              X                  Y                   Z               Mass
    ------------   -----------------  -----------------  -----------------  -----------------
         N           -0.019184295620    -1.114240398661     0.263164800843    14.003074004430
         C           -1.213366395620    -0.385109198661     0.104741800843    12.000000000000
         C            1.235248704380    -0.501351398661     0.124888800843    12.000000000000
         C           -2.421139295620    -1.156864398661     0.447803800843    12.000000000000
         C            2.263883704380    -1.156588398661    -0.567746199157    12.000000000000
         C           -1.369240295620     0.821017601339    -0.467941199157    12.000000000000
         C            1.506403704380     0.727144601339     0.750096800843    12.000000000000
         C           -3.674282295620    -0.576631398661     0.267219800843    12.000000000000
         C            3.537738704380    -0.593030398661    -0.638803199157    12.000000000000
         C           -2.628994295620     1.400493601339    -0.625370199157    12.000000000000
         C            2.774927704380     1.295334601339     0.650488800843    12.000000000000
         C           -3.786992295620     0.712414601339    -0.259728199157    12.000000000000
         C            3.798712704380     0.640363601339    -0.039666199157    12.000000000000
         H           -0.029604295620    -2.102363398661     0.033072800843     1.007825032230
         H           -2.332749295620    -2.150038398661     0.885016800843     1.007825032230
         H            2.058351704380    -2.106985398661    -1.058297199157     1.007825032230
         H           -0.481117295620     1.354006601339    -0.793383199157     1.007825032230
         H            0.726787704380     1.216890601339     1.327344800843     1.007825032230
         H           -4.565066295620    -1.128323398661     0.558902800843     1.007825032230
         H            4.324101704380    -1.116411398661    -1.177803199157     1.007825032230
         H           -2.701597295620     2.399382601339    -1.049985199157     1.007825032230
         H            2.970290704380     2.247946601339     1.137722800843     1.007825032230
         H           -4.763788295620     1.170871601339    -0.388816199157     1.007825032230
         H            4.788273704380     1.084688601339    -0.105761199157     1.007825032230

  Basis Set: AUG-CC-PVTZ
    Blend: AUG-CC-PVTZ
  Basis Set: (AUG-CC-PVTZ AUX)
    Blend: AUG-CC-PVTZ-JKFIT
	 Reference Energy          =    -515.4332766035151963 [Eh]
	 Singles Energy            =      -0.0000000000000000 [Eh]
	 Same-Spin Energy          =      -0.5797344676449457 [Eh]
	 Opposite-Spin Energy      =      -1.7967637596502288 [Eh]
	 Correlation Energy        =      -2.3764982272951745 [Eh]
	 Total Energy              =    -517.8097748308103974 [Eh]

	 ================> DF-SCS-MP2 Energies <==================
	-----------------------------------------------------------
	 SCS Same-Spin Scale       =       0.3333333333333333 [-]
	 SCS Opposite-Spin Scale   =       1.2000000000000000 [-]
	 SCS Same-Spin Energy      =      -0.1932448225483152 [Eh]
	 SCS Opposite-Spin Energy  =      -2.1561165115802745 [Eh]
	 SCS Correlation Energy    =      -2.3493613341285897 [Eh]
	 SCS Total Energy          =    -517.7826379376438126 [Eh]
	-----------------------------------------------------------

  Dipole Moment: [D]
     X:     0.0824      Y:    -0.7081      Z:    -0.3511     Total:     0.7947

*** Psi4 exiting successfully. Buy a developer a beer!
