                               Psi4 1.3.2 release

  ==> Input File <==

--------------------------------------------------------------------------
#psi4
#
memory 32 gb

molecule  {
0 1
  N       -0.0281434    -1.1330278     0.2778247
  C       -1.2530910    -0.4674540     0.0795420
  C        1.2381220    -0.5006260     0.1304260
  C       -2.4182660    -1.1561390     0.4533410
  C        2.2667570    -1.1558630    -0.5622090
  C       -1.3663670     0.8217430    -0.4624040
  C        1.5092770     0.7278700     0.7556340
  C       -3.6714090    -0.5759060     0.2727570
  C        3.5406120    -0.5923050    -0.6332660
  C       -2.6261210     1.4012190    -0.6198330
  C        2.7778010     1.2960600     0.6560260
  C       -3.7841190     0.7131400    -0.2541910
  C        3.8015860     0.6410890    -0.0341290
  H       -0.0267310    -2.1016380     0.0386100
  H       -2.3298760    -2.1493130     0.8905540
  H        2.0612250    -2.1062600    -1.0527600
  H       -0.4782440     1.3547320    -0.7878460
  H        0.7296610     1.2176160     1.3328820
  H       -4.5621930    -1.1275980     0.5644400
  H        4.3269750    -1.1156860    -1.1722660
  H       -2.6987240     2.4001080    -1.0444480
  H        2.9731640     2.2486720     1.1432600
  H       -4.7609150     1.1715970    -0.3832790
  H        4.7911470     1.0854140    -0.1002240
units angstrom
no_reorient  #important for SAPT in psi4, default
symmetry c1  #important for SAPT in psi4, default
}

set PROPERTIES_ORIGIN ["COM"]
properties('MP2/aug-cc-pvtz', properties = ['dipole'])
--------------------------------------------------------------------------

    Molecular point group: c1
  Charge       = 0
  Multiplicity = 1
  Basis Set: AUG-CC-PVTZ
    Blend: AUG-CC-PVTZ
  Basis Set: (AUG-CC-PVTZ AUX)
    Blend: AUG-CC-PVTZ-JKFIT

    Orbital Energies [Eh]
    ---------------------

    Doubly Occupied:

       1A    -15.579065     2A    -11.284580     3A    -11.283739
       4A    -11.241627     5A    -11.241014     6A    -11.238817
       7A    -11.238597     8A    -11.235170     9A    -11.232384
      10A    -11.230603    11A    -11.229632    12A    -11.228328
      13A    -11.226109    14A     -1.258293    15A     -1.151650
      16A     -1.126912    17A     -1.023511    18A     -1.018768
      19A     -1.011329    20A     -0.973754    21A     -0.844576
      22A     -0.840328    23A     -0.819827    24A     -0.796036
      25A     -0.715138    26A     -0.709514    27A     -0.678458
      28A     -0.655777    29A     -0.628207    30A     -0.622207
      31A     -0.597945    32A     -0.594983    33A     -0.587877
      34A     -0.584994    35A     -0.540956    36A     -0.520855
      37A     -0.507005    38A     -0.503604    39A     -0.495666
      40A     -0.491320    41A     -0.448430    42A     -0.342505
      43A     -0.338802    44A     -0.337217    45A     -0.282142

  @DF-RHF Final Energy:  -515.44170890162695

   => Energetics <=

    Nuclear Repulsion Energy =            694.8447876277147088
    One-Electron Energy =               -2075.4964922547887909
    Two-Electron Energy =                 865.2099957254472429
    Total Energy =                       -515.4417089016269529
  Basis Set: (AUG-CC-PVTZ AUX)
    Blend: AUG-CC-PVTZ-RI
    Molecular point group: c1

    Geometry (in Angstrom), charge = 0, multiplicity = 1:

       Center              X                  Y                   Z               Mass
    ------------   -----------------  -----------------  -----------------  -----------------
         N           -0.027013690250    -1.126241885326     0.273713364997    14.003074004430
         C           -1.251961290250    -0.460668085326     0.075430664997    12.000000000000
         C            1.239251709750    -0.493840085326     0.126314664997    12.000000000000
         C           -2.417136290250    -1.149353085326     0.449229664997    12.000000000000
         C            2.267886709750    -1.149077085326    -0.566320335003    12.000000000000
         C           -1.365237290250     0.828528914674    -0.466515335003    12.000000000000
         C            1.510406709750     0.734655914674     0.751522664997    12.000000000000
         C           -3.670279290250    -0.569120085326     0.268645664997    12.000000000000
         C            3.541741709750    -0.585519085326    -0.637377335003    12.000000000000
         C           -2.624991290250     1.408004914674    -0.623944335003    12.000000000000
         C            2.778930709750     1.302845914674     0.651914664997    12.000000000000
         C           -3.782989290250     0.719925914674    -0.258302335003    12.000000000000
         C            3.802715709750     0.647874914674    -0.038240335003    12.000000000000
         H           -0.025601290250    -2.094852085326     0.034498664997     1.007825032230
         H           -2.328746290250    -2.142527085326     0.886442664997     1.007825032230
         H            2.062354709750    -2.099474085326    -1.056871335003     1.007825032230
         H           -0.477114290250     1.361517914674    -0.791957335003     1.007825032230
         H            0.730790709750     1.224401914674     1.328770664997     1.007825032230
         H           -4.561063290250    -1.120812085326     0.560328664997     1.007825032230
         H            4.328104709750    -1.108900085326    -1.176377335003     1.007825032230
         H           -2.697594290250     2.406893914674    -1.048559335003     1.007825032230
         H            2.974293709750     2.255457914674     1.139148664997     1.007825032230
         H           -4.759785290250     1.178382914674    -0.387390335003     1.007825032230
         H            4.792276709750     1.092199914674    -0.104335335003     1.007825032230

  Basis Set: AUG-CC-PVTZ
    Blend: AUG-CC-PVTZ
  Basis Set: (AUG-CC-PVTZ AUX)
    Blend: AUG-CC-PVTZ-JKFIT
	 Reference Energy          =    -515.4417089016269529 [Eh]
	 Singles Energy            =      -0.0000000000000000 [Eh]
	 Same-Spin Energy          =      -0.5795494552063558 [Eh]
	 Opposite-Spin Energy      =      -1.7959523862507929 [Eh]
	 Correlation Energy        =      -2.3755018414571487 [Eh]
	 Total Energy              =    -517.8172107430840470 [Eh]

	 ================> DF-SCS-MP2 Energies <==================
	-----------------------------------------------------------
	 SCS Same-Spin Scale       =       0.3333333333333333 [-]
	 SCS Opposite-Spin Scale   =       1.2000000000000000 [-]
	 SCS Same-Spin Energy      =      -0.1931831517354519 [Eh]
	 SCS Opposite-Spin Energy  =      -2.1551428635009513 [Eh]
	 SCS Correlation Energy    =      -2.3483260152364034 [Eh]
	 SCS Total Energy          =    -517.7900349168633056 [Eh]
	-----------------------------------------------------------

  Dipole Moment: [D]
     X:     0.2525      Y:    -0.6440      Z:    -0.3727     Total:     0.7857

*** Psi4 exiting successfully. Buy a developer a beer!
