                               Psi4 1.3.2 release

  ==> Input File <==

--------------------------------------------------------------------------
#psi4
#
memory 32 gb

molecule  {
0 1
  N        0.0466541    -0.9925176     0.2128539
  C       -1.2530910    -0.4674540     0.0795420
  C        1.2381220    -0.5006260     0.1304260
  C       -2.4182660    -1.1561390     0.4533410
  C        2.2667570    -1.1558630    -0.5622090
  C       -1.3663670     0.8217430    -0.4624040
  C        1.5092770     0.7278700     0.7556340
  C       -3.6714090    -0.5759060     0.2727570
  C        3.5406120    -0.5923050    -0.6332660
  C       -2.6261210     1.4012190    -0.6198330
  C        2.7778010     1.2960600     0.6560260
  C       -3.7841190     0.7131400    -0.2541910
  C        3.8015860     0.6410890    -0.0341290
  H       -0.0267310    -2.1016380     0.0386100
  H       -2.3298760    -2.1493130     0.8905540
  H        2.0612250    -2.1062600    -1.0527600
  H       -0.4782440     1.3547320    -0.7878460
  H        0.7296610     1.2176160     1.3328820
  H       -4.5621930    -1.1275980     0.5644400
  H        4.3269750    -1.1156860    -1.1722660
  H       -2.6987240     2.4001080    -1.0444480
  H        2.9731640     2.2486720     1.1432600
  H       -4.7609150     1.1715970    -0.3832790
  H        4.7911470     1.0854140    -0.1002240
units angstrom
no_reorient  #important for SAPT in psi4, default
symmetry c1  #important for SAPT in psi4, default
}

set PROPERTIES_ORIGIN ["COM"]
properties('MP2/aug-cc-pvtz', properties = ['dipole'])
--------------------------------------------------------------------------

    Molecular point group: c1
  Charge       = 0
  Multiplicity = 1
  Basis Set: AUG-CC-PVTZ
    Blend: AUG-CC-PVTZ
  Basis Set: (AUG-CC-PVTZ AUX)
    Blend: AUG-CC-PVTZ-JKFIT

    Orbital Energies [Eh]
    ---------------------

    Doubly Occupied:

       1A    -15.590429     2A    -11.292224     3A    -11.277751
       4A    -11.244324     5A    -11.240924     6A    -11.238187
       7A    -11.237809     8A    -11.236383     9A    -11.230056
      10A    -11.229628    11A    -11.226394    12A    -11.222164
      13A    -11.220810    14A     -1.287237    15A     -1.154851
      16A     -1.124983    17A     -1.031681    18A     -1.019056
      19A     -1.011089    20A     -0.966530    21A     -0.853718
      22A     -0.846078    23A     -0.824351    24A     -0.787934
      25A     -0.729196    26A     -0.698381    27A     -0.676398
      28A     -0.662387    29A     -0.634201    30A     -0.621602
      31A     -0.603478    32A     -0.590880    33A     -0.583346
      34A     -0.578445    35A     -0.552051    36A     -0.520554
      37A     -0.507786    38A     -0.504487    39A     -0.498012
      40A     -0.484680    41A     -0.450286    42A     -0.343216
      43A     -0.339123    44A     -0.336131    45A     -0.271110

  @DF-RHF Final Energy:  -515.41483256212280

   => Energetics <=

    Nuclear Repulsion Energy =            697.5934014198832074
    One-Electron Energy =               -2080.8557870586678291
    Two-Electron Energy =                 867.8475530766617112
    Total Energy =                       -515.4148325621227968
  Basis Set: (AUG-CC-PVTZ AUX)
    Blend: AUG-CC-PVTZ-RI
    Molecular point group: c1

    Geometry (in Angstrom), charge = 0, multiplicity = 1:

       Center              X                  Y                   Z               Mass
    ------------   -----------------  -----------------  -----------------  -----------------
         N            0.041589474207    -0.997368001059     0.214123104931    14.003074004430
         C           -1.258155625793    -0.472304401059     0.080811204931    12.000000000000
         C            1.233057374207    -0.505476401059     0.131695204931    12.000000000000
         C           -2.423330625793    -1.160989401059     0.454610204931    12.000000000000
         C            2.261692374207    -1.160713401059    -0.560939795069    12.000000000000
         C           -1.371431625793     0.816892598941    -0.461134795069    12.000000000000
         C            1.504212374207     0.723019598941     0.756903204931    12.000000000000
         C           -3.676473625793    -0.580756401059     0.274026204931    12.000000000000
         C            3.535547374207    -0.597155401059    -0.631996795069    12.000000000000
         C           -2.631185625793     1.396368598941    -0.618563795069    12.000000000000
         C            2.772736374207     1.291209598941     0.657295204931    12.000000000000
         C           -3.789183625793     0.708289598941    -0.252921795069    12.000000000000
         C            3.796521374207     0.636238598941    -0.032859795069    12.000000000000
         H           -0.031795625793    -2.106488401059     0.039879204931     1.007825032230
         H           -2.334940625793    -2.154163401059     0.891823204931     1.007825032230
         H            2.056160374207    -2.111110401059    -1.051490795069     1.007825032230
         H           -0.483308625793     1.349881598941    -0.786576795069     1.007825032230
         H            0.724596374207     1.212765598941     1.334151204931     1.007825032230
         H           -4.567257625793    -1.132448401059     0.565709204931     1.007825032230
         H            4.321910374207    -1.120536401059    -1.170996795069     1.007825032230
         H           -2.703788625793     2.395257598941    -1.043178795069     1.007825032230
         H            2.968099374207     2.243821598941     1.144529204931     1.007825032230
         H           -4.765979625793     1.166746598941    -0.382009795069     1.007825032230
         H            4.786082374207     1.080563598941    -0.098954795069     1.007825032230

  Basis Set: AUG-CC-PVTZ
    Blend: AUG-CC-PVTZ
  Basis Set: (AUG-CC-PVTZ AUX)
    Blend: AUG-CC-PVTZ-JKFIT
	 Reference Energy          =    -515.4148325621227968 [Eh]
	 Singles Energy            =      -0.0000000000000000 [Eh]
	 Same-Spin Energy          =      -0.5820227022205556 [Eh]
	 Opposite-Spin Energy      =      -1.7991550040949222 [Eh]
	 Correlation Energy        =      -2.3811777063154778 [Eh]
	 Total Energy              =    -517.7960102684382946 [Eh]

	 ================> DF-SCS-MP2 Energies <==================
	-----------------------------------------------------------
	 SCS Same-Spin Scale       =       0.3333333333333333 [-]
	 SCS Opposite-Spin Scale   =       1.2000000000000000 [-]
	 SCS Same-Spin Energy      =      -0.1940075674068519 [Eh]
	 SCS Opposite-Spin Energy  =      -2.1589860049139067 [Eh]
	 SCS Correlation Energy    =      -2.3529935723207585 [Eh]
	 SCS Total Energy          =    -517.7678261344435668 [Eh]
	-----------------------------------------------------------

  Dipole Moment: [D]
     X:    -0.5434      Y:    -0.8802      Z:    -0.2188     Total:     1.0574

*** Psi4 exiting successfully. Buy a developer a beer!
