                               Psi4 1.3.2 release

  ==> Input File <==

--------------------------------------------------------------------------
#psi4
#
memory 32 gb

molecule  {
0 1
  N        0.0062202    -1.0739050     0.2502864
  C       -1.2530910    -0.4674540     0.0795420
  C        1.2381220    -0.5006260     0.1304260
  C       -2.4182660    -1.1561390     0.4533410
  C        2.2667570    -1.1558630    -0.5622090
  C       -1.3663670     0.8217430    -0.4624040
  C        1.5092770     0.7278700     0.7556340
  C       -3.6714090    -0.5759060     0.2727570
  C        3.5406120    -0.5923050    -0.6332660
  C       -2.6261210     1.4012190    -0.6198330
  C        2.7778010     1.2960600     0.6560260
  C       -3.7841190     0.7131400    -0.2541910
  C        3.8015860     0.6410890    -0.0341290
  H       -0.0267310    -2.1016380     0.0386100
  H       -2.3298760    -2.1493130     0.8905540
  H        2.0612250    -2.1062600    -1.0527600
  H       -0.4782440     1.3547320    -0.7878460
  H        0.7296610     1.2176160     1.3328820
  H       -4.5621930    -1.1275980     0.5644400
  H        4.3269750    -1.1156860    -1.1722660
  H       -2.6987240     2.4001080    -1.0444480
  H        2.9731640     2.2486720     1.1432600
  H       -4.7609150     1.1715970    -0.3832790
  H        4.7911470     1.0854140    -0.1002240
units angstrom
no_reorient  #important for SAPT in psi4, default
symmetry c1  #important for SAPT in psi4, default
}

set PROPERTIES_ORIGIN ["COM"]
properties('MP2/aug-cc-pvtz', properties = ['dipole'])
--------------------------------------------------------------------------

    Molecular point group: c1
  Charge       = 0
  Multiplicity = 1
  Basis Set: AUG-CC-PVTZ
    Blend: AUG-CC-PVTZ
  Basis Set: (AUG-CC-PVTZ AUX)
    Blend: AUG-CC-PVTZ-JKFIT

    Orbital Energies [Eh]
    ---------------------

    Doubly Occupied:

       1A    -15.583547     2A    -11.286790     3A    -11.281695
       4A    -11.241002     5A    -11.240067     6A    -11.239414
       7A    -11.239128     8A    -11.232951     9A    -11.231630
      10A    -11.228482    11A    -11.228229    12A    -11.227455
      13A    -11.226713    14A     -1.268938    15A     -1.152310
      16A     -1.126427    17A     -1.026348    18A     -1.017987
      19A     -1.012015    20A     -0.970617    21A     -0.846831
      22A     -0.843433    23A     -0.821772    24A     -0.792148
      25A     -0.720925    26A     -0.704389    27A     -0.677886
      28A     -0.659003    29A     -0.630071    30A     -0.621590
      31A     -0.601111    32A     -0.590822    33A     -0.585687
      34A     -0.585136    35A     -0.545896    36A     -0.520625
      37A     -0.507798    38A     -0.503763    39A     -0.495680
      40A     -0.490628    41A     -0.449479    42A     -0.342025
      43A     -0.338759    44A     -0.337346    45A     -0.277562

  @DF-RHF Final Energy:  -515.43841887630185

   => Energetics <=

    Nuclear Repulsion Energy =            696.0009224279931459
    One-Electron Energy =               -2077.7744696271302018
    Two-Electron Energy =                 866.3351283228352031
    Total Energy =                       -515.4384188763018528
  Basis Set: (AUG-CC-PVTZ AUX)
    Blend: AUG-CC-PVTZ-RI
    Molecular point group: c1

    Geometry (in Angstrom), charge = 0, multiplicity = 1:

       Center              X                  Y                   Z               Mass
    ------------   -----------------  -----------------  -----------------  -----------------
         N            0.004504097138    -1.072015324658     0.248455642162    14.003074004430
         C           -1.254807102862    -0.465564324658     0.077711242162    12.000000000000
         C            1.236405897138    -0.498736324658     0.128595242162    12.000000000000
         C           -2.419982102862    -1.154249324658     0.451510242162    12.000000000000
         C            2.265040897138    -1.153973324658    -0.564039757838    12.000000000000
         C           -1.368083102862     0.823632675342    -0.464234757838    12.000000000000
         C            1.507560897138     0.729759675342     0.753803242162    12.000000000000
         C           -3.673125102862    -0.574016324658     0.270926242162    12.000000000000
         C            3.538895897138    -0.590415324658    -0.635096757838    12.000000000000
         C           -2.627837102862     1.403108675342    -0.621663757838    12.000000000000
         C            2.776084897138     1.297949675342     0.654195242162    12.000000000000
         C           -3.785835102862     0.715029675342    -0.256021757838    12.000000000000
         C            3.799869897138     0.642978675342    -0.035959757838    12.000000000000
         H           -0.028447102862    -2.099748324658     0.036779242162     1.007825032230
         H           -2.331592102862    -2.147423324658     0.888723242162     1.007825032230
         H            2.059508897138    -2.104370324658    -1.054590757838     1.007825032230
         H           -0.479960102862     1.356621675342    -0.789676757838     1.007825032230
         H            0.727944897138     1.219505675342     1.331051242162     1.007825032230
         H           -4.563909102862    -1.125708324658     0.562609242162     1.007825032230
         H            4.325258897138    -1.113796324658    -1.174096757838     1.007825032230
         H           -2.700440102862     2.401997675342    -1.046278757838     1.007825032230
         H            2.971447897138     2.250561675342     1.141429242162     1.007825032230
         H           -4.762631102862     1.173486675342    -0.385109757838     1.007825032230
         H            4.789430897138     1.087303675342    -0.102054757838     1.007825032230

  Basis Set: AUG-CC-PVTZ
    Blend: AUG-CC-PVTZ
  Basis Set: (AUG-CC-PVTZ AUX)
    Blend: AUG-CC-PVTZ-JKFIT
	 Reference Energy          =    -515.4384188763018528 [Eh]
	 Singles Energy            =      -0.0000000000000000 [Eh]
	 Same-Spin Energy          =      -0.5804234522694537 [Eh]
	 Opposite-Spin Energy      =      -1.7967824410741566 [Eh]
	 Correlation Energy        =      -2.3772058933436102 [Eh]
	 Total Energy              =    -517.8156247696454102 [Eh]

	 ================> DF-SCS-MP2 Energies <==================
	-----------------------------------------------------------
	 SCS Same-Spin Scale       =       0.3333333333333333 [-]
	 SCS Opposite-Spin Scale   =       1.2000000000000000 [-]
	 SCS Same-Spin Energy      =      -0.1934744840898179 [Eh]
	 SCS Opposite-Spin Energy  =      -2.1561389292889879 [Eh]
	 SCS Correlation Energy    =      -2.3496134133788056 [Eh]
	 SCS Total Energy          =    -517.7880322896807002 [Eh]
	-----------------------------------------------------------

  Dipole Moment: [D]
     X:    -0.0643      Y:    -0.7586      Z:    -0.3022     Total:     0.8191

*** Psi4 exiting successfully. Buy a developer a beer!
