                               Psi4 1.4a3.dev225

  ==> Input File <==

--------------------------------------------------------------------------
#psi4
#
memory 32 gb

molecule  {
0 1
  N       -0.0163110    -1.1135150     0.2687020
  C       -1.2530910    -0.4674540     0.0795420
  C        1.2381220    -0.5006260     0.1304260
  C       -2.4348621    -1.1659483     0.4586652
  C        2.2667570    -1.1558630    -0.5622090
  C       -1.3663670     0.8217430    -0.4624040
  C        1.5092770     0.7278700     0.7556340
  C       -3.6714090    -0.5759060     0.2727570
  C        3.5406120    -0.5923050    -0.6332660
  C       -2.6261210     1.4012190    -0.6198330
  C        2.7778010     1.2960600     0.6560260
  C       -3.7841190     0.7131400    -0.2541910
  C        3.8015860     0.6410890    -0.0341290
  H       -0.0267310    -2.1016380     0.0386100
  H       -2.3298760    -2.1493130     0.8905540
  H        2.0612250    -2.1062600    -1.0527600
  H       -0.4782440     1.3547320    -0.7878460
  H        0.7296610     1.2176160     1.3328820
  H       -4.5621930    -1.1275980     0.5644400
  H        4.3269750    -1.1156860    -1.1722660
  H       -2.6987240     2.4001080    -1.0444480
  H        2.9731640     2.2486720     1.1432600
  H       -4.7609150     1.1715970    -0.3832790
  H        4.7911470     1.0854140    -0.1002240
units angstrom
no_reorient  #important for SAPT in psi4, default
symmetry c1  #important for SAPT in psi4, default
}

set PROPERTIES_ORIGIN ["COM"]
properties('MP2/aug-cc-pvtz', properties = ['dipole'])
--------------------------------------------------------------------------

    Molecular point group: c1
  Charge       = 0
  Multiplicity = 1
  Basis Set: AUG-CC-PVTZ
    Blend: AUG-CC-PVTZ
  Basis Set: (AUG-CC-PVTZ AUX)
    Blend: AUG-CC-PVTZ-JKFIT

    Orbital Energies [Eh]
    ---------------------

    Doubly Occupied:

       1A    -15.581238     2A    -11.286889     3A    -11.283865
       4A    -11.241270     5A    -11.240531     6A    -11.238907
       7A    -11.238379     8A    -11.234278     9A    -11.231238
      10A    -11.231028    11A    -11.229564    12A    -11.227694
      13A    -11.226024    14A     -1.261425    15A     -1.151178
      16A     -1.126825    17A     -1.023177    18A     -1.018991
      19A     -1.012656    20A     -0.971916    21A     -0.844537
      22A     -0.841881    23A     -0.820873    24A     -0.794117
      25A     -0.716545    26A     -0.708251    27A     -0.678884
      28A     -0.657843    29A     -0.629074    30A     -0.620911
      31A     -0.597780    32A     -0.593851    33A     -0.587981
      34A     -0.586265    35A     -0.542358    36A     -0.520961
      37A     -0.508887    38A     -0.503292    39A     -0.495155
      40A     -0.490181    41A     -0.448948    42A     -0.342991
      43A     -0.338463    44A     -0.337533    45A     -0.279764

  @DF-RHF Final Energy:  -515.44144144369011

   => Energetics <=

    Nuclear Repulsion Energy =            694.9188711853762470
    One-Electron Energy =               -2075.6318266319940449
    Two-Electron Energy =                 865.2715140029276881
    Total Energy =                       -515.4414414436901097
  Basis Set: (AUG-CC-PVTZ AUX)
    Blend: AUG-CC-PVTZ-RI
    Molecular point group: c1

    Geometry (in Angstrom), charge = 0, multiplicity = 1:

       Center              X                  Y                   Z               Mass
    ------------   -----------------  -----------------  -----------------  -----------------
         N           -0.014983387384    -1.107648881676     0.264968308645    14.003074004430
         C           -1.251763387384    -0.461587881676     0.075808308645    12.000000000000
         C            1.239449612616    -0.494759881676     0.126692308645    12.000000000000
         C           -2.433534487384    -1.160082181676     0.454931508645    12.000000000000
         C            2.268084612616    -1.149996881676    -0.565942691355    12.000000000000
         C           -1.365039387384     0.827609118324    -0.466137691355    12.000000000000
         C            1.510604612616     0.733736118324     0.751900308645    12.000000000000
         C           -3.670081387384    -0.570039881676     0.269023308645    12.000000000000
         C            3.541939612616    -0.586438881676    -0.636999691355    12.000000000000
         C           -2.624793387384     1.407085118324    -0.623566691355    12.000000000000
         C            2.779128612616     1.301926118324     0.652292308645    12.000000000000
         C           -3.782791387384     0.719006118324    -0.257924691355    12.000000000000
         C            3.802913612616     0.646955118324    -0.037862691355    12.000000000000
         H           -0.025403387384    -2.095771881676     0.034876308645     1.007825032230
         H           -2.328548387384    -2.143446881676     0.886820308645     1.007825032230
         H            2.062552612616    -2.100393881676    -1.056493691355     1.007825032230
         H           -0.476916387384     1.360598118324    -0.791579691355     1.007825032230
         H            0.730988612616     1.223482118324     1.329148308645     1.007825032230
         H           -4.560865387384    -1.121731881676     0.560706308645     1.007825032230
         H            4.328302612616    -1.109819881676    -1.175999691355     1.007825032230
         H           -2.697396387384     2.405974118324    -1.048181691355     1.007825032230
         H            2.974491612616     2.254538118324     1.139526308645     1.007825032230
         H           -4.759587387384     1.177463118324    -0.387012691355     1.007825032230
         H            4.792474612616     1.091280118324    -0.103957691355     1.007825032230

  Basis Set: AUG-CC-PVTZ
    Blend: AUG-CC-PVTZ
  Basis Set: (AUG-CC-PVTZ AUX)
    Blend: AUG-CC-PVTZ-JKFIT
	 Reference Energy          =    -515.4414414436901097 [Eh]
	 Singles Energy            =      -0.0000000000000000 [Eh]
	 Same-Spin Energy          =      -0.5797648872738905 [Eh]
	 Opposite-Spin Energy      =      -1.7961571540836805 [Eh]
	 Correlation Energy        =      -2.3759220413575708 [Eh]
	 Total Energy              =    -517.8173634850477356 [Eh]

	 ================> DF-SCS-MP2 Energies <==================
	-----------------------------------------------------------
	 SCS Same-Spin Scale       =       0.3333333333333333 [-]
	 SCS Opposite-Spin Scale   =       1.2000000000000000 [-]
	 SCS Same-Spin Energy      =      -0.1932549624246302 [Eh]
	 SCS Opposite-Spin Energy  =      -2.1553885849004164 [Eh]
	 SCS Correlation Energy    =      -2.3486435473250467 [Eh]
	 SCS Total Energy          =    -517.7900849910151919 [Eh]
	-----------------------------------------------------------

  Dipole Moment: [D]
     X:     0.1880      Y:    -0.6966      Z:    -0.3427     Total:     0.7987

*** Psi4 exiting successfully. Buy a developer a beer!
