                               Psi4 1.3.2 release

  ==> Input File <==

--------------------------------------------------------------------------
#psi4
#
memory 32 gb

molecule  {
0 1
  N       -0.0658645    -1.1903263     0.3048196
  C       -1.2530910    -0.4674540     0.0795420
  C        1.2381220    -0.5006260     0.1304260
  C       -2.4182660    -1.1561390     0.4533410
  C        2.2667570    -1.1558630    -0.5622090
  C       -1.3663670     0.8217430    -0.4624040
  C        1.5092770     0.7278700     0.7556340
  C       -3.6714090    -0.5759060     0.2727570
  C        3.5406120    -0.5923050    -0.6332660
  C       -2.6261210     1.4012190    -0.6198330
  C        2.7778010     1.2960600     0.6560260
  C       -3.7841190     0.7131400    -0.2541910
  C        3.8015860     0.6410890    -0.0341290
  H       -0.0267310    -2.1016380     0.0386100
  H       -2.3298760    -2.1493130     0.8905540
  H        2.0612250    -2.1062600    -1.0527600
  H       -0.4782440     1.3547320    -0.7878460
  H        0.7296610     1.2176160     1.3328820
  H       -4.5621930    -1.1275980     0.5644400
  H        4.3269750    -1.1156860    -1.1722660
  H       -2.6987240     2.4001080    -1.0444480
  H        2.9731640     2.2486720     1.1432600
  H       -4.7609150     1.1715970    -0.3832790
  H        4.7911470     1.0854140    -0.1002240
units angstrom
no_reorient  #important for SAPT in psi4, default
symmetry c1  #important for SAPT in psi4, default
}

set PROPERTIES_ORIGIN ["COM"]
properties('MP2/aug-cc-pvtz', properties = ['dipole'])
--------------------------------------------------------------------------

    Molecular point group: c1
  Charge       = 0
  Multiplicity = 1
  Basis Set: AUG-CC-PVTZ
    Blend: AUG-CC-PVTZ
  Basis Set: (AUG-CC-PVTZ AUX)
    Blend: AUG-CC-PVTZ-JKFIT

    Orbital Energies [Eh]
    ---------------------

    Doubly Occupied:

       1A    -15.575304     2A    -11.287134     3A    -11.281578
       4A    -11.243002     5A    -11.242659     6A    -11.238265
       7A    -11.238069     8A    -11.236921     9A    -11.236015
      10A    -11.233917    11A    -11.228767    12A    -11.226895
      13A    -11.225296    14A     -1.250469    15A     -1.151813
      16A     -1.127141    17A     -1.021753    18A     -1.019815
      19A     -1.010322    20A     -0.976984    21A     -0.843483
      22A     -0.837525    23A     -0.818137    24A     -0.800462
      25A     -0.715976    26A     -0.709215    27A     -0.678195
      28A     -0.652270    29A     -0.627389    30A     -0.623002
      31A     -0.600736    32A     -0.591353    33A     -0.589698
      34A     -0.583943    35A     -0.537269    36A     -0.520339
      37A     -0.506230    38A     -0.503363    39A     -0.497569
      40A     -0.488274    41A     -0.447117    42A     -0.343462
      43A     -0.339395    44A     -0.336495    45A     -0.286441

  @DF-RHF Final Energy:  -515.43294730454454

   => Energetics <=

    Nuclear Repulsion Energy =            693.7360442114538728
    One-Electron Energy =               -2073.2790635846149598
    Two-Electron Energy =                 864.1100720686165459
    Total Energy =                       -515.4329473045445411
  Basis Set: (AUG-CC-PVTZ AUX)
    Blend: AUG-CC-PVTZ-RI
    Molecular point group: c1

    Geometry (in Angstrom), charge = 0, multiplicity = 1:

       Center              X                  Y                   Z               Mass
    ------------   -----------------  -----------------  -----------------  -----------------
         N           -0.061610927147    -1.178795224924     0.298472689362    14.003074004430
         C           -1.248837427147    -0.455922924924     0.073195089362    12.000000000000
         C            1.242375572853    -0.489094924924     0.124079089362    12.000000000000
         C           -2.414012427147    -1.144607924924     0.446994089362    12.000000000000
         C            2.271010572853    -1.144331924924    -0.568555910638    12.000000000000
         C           -1.362113427147     0.833274075076    -0.468750910638    12.000000000000
         C            1.513530572853     0.739401075076     0.749287089362    12.000000000000
         C           -3.667155427147    -0.564374924924     0.266410089362    12.000000000000
         C            3.544865572853    -0.580773924924    -0.639612910638    12.000000000000
         C           -2.621867427147     1.412750075076    -0.626179910638    12.000000000000
         C            2.782054572853     1.307591075076     0.649679089362    12.000000000000
         C           -3.779865427147     0.724671075076    -0.260537910638    12.000000000000
         C            3.805839572853     0.652620075076    -0.040475910638    12.000000000000
         H           -0.022477427147    -2.090106924924     0.032263089362     1.007825032230
         H           -2.325622427147    -2.137781924924     0.884207089362     1.007825032230
         H            2.065478572853    -2.094728924924    -1.059106910638     1.007825032230
         H           -0.473990427147     1.366263075076    -0.794192910638     1.007825032230
         H            0.733914572853     1.229147075076     1.326535089362     1.007825032230
         H           -4.557939427147    -1.116066924924     0.558093089362     1.007825032230
         H            4.331228572853    -1.104154924924    -1.178612910638     1.007825032230
         H           -2.694470427147     2.411639075076    -1.050794910638     1.007825032230
         H            2.977417572853     2.260203075076     1.136913089362     1.007825032230
         H           -4.756661427147     1.183128075076    -0.389625910638     1.007825032230
         H            4.795400572853     1.096945075076    -0.106570910638     1.007825032230

  Basis Set: AUG-CC-PVTZ
    Blend: AUG-CC-PVTZ
  Basis Set: (AUG-CC-PVTZ AUX)
    Blend: AUG-CC-PVTZ-JKFIT
	 Reference Energy          =    -515.4329473045445411 [Eh]
	 Singles Energy            =      -0.0000000000000000 [Eh]
	 Same-Spin Energy          =      -0.5790156751167281 [Eh]
	 Opposite-Spin Energy      =      -1.7959850503306318 [Eh]
	 Correlation Energy        =      -2.3750007254473600 [Eh]
	 Total Energy              =    -517.8079480299918487 [Eh]

	 ================> DF-SCS-MP2 Energies <==================
	-----------------------------------------------------------
	 SCS Same-Spin Scale       =       0.3333333333333333 [-]
	 SCS Opposite-Spin Scale   =       1.2000000000000000 [-]
	 SCS Same-Spin Energy      =      -0.1930052250389094 [Eh]
	 SCS Opposite-Spin Energy  =      -2.1551820603967582 [Eh]
	 SCS Correlation Energy    =      -2.3481872854356673 [Eh]
	 SCS Total Energy          =    -517.7811345899801836 [Eh]
	-----------------------------------------------------------

  Dipole Moment: [D]
     X:     0.5189      Y:    -0.5187      Z:    -0.4485     Total:     0.8599

*** Psi4 exiting successfully. Buy a developer a beer!
