                               Psi4 1.3.2 release

  ==> Input File <==

--------------------------------------------------------------------------
#psi4
#
memory 32 gb

molecule  {
0 1
  N        0.0272170    -1.0335561     0.2316629
  C       -1.2530910    -0.4674540     0.0795420
  C        1.2381220    -0.5006260     0.1304260
  C       -2.4182660    -1.1561390     0.4533410
  C        2.2667570    -1.1558630    -0.5622090
  C       -1.3663670     0.8217430    -0.4624040
  C        1.5092770     0.7278700     0.7556340
  C       -3.6714090    -0.5759060     0.2727570
  C        3.5406120    -0.5923050    -0.6332660
  C       -2.6261210     1.4012190    -0.6198330
  C        2.7778010     1.2960600     0.6560260
  C       -3.7841190     0.7131400    -0.2541910
  C        3.8015860     0.6410890    -0.0341290
  H       -0.0267310    -2.1016380     0.0386100
  H       -2.3298760    -2.1493130     0.8905540
  H        2.0612250    -2.1062600    -1.0527600
  H       -0.4782440     1.3547320    -0.7878460
  H        0.7296610     1.2176160     1.3328820
  H       -4.5621930    -1.1275980     0.5644400
  H        4.3269750    -1.1156860    -1.1722660
  H       -2.6987240     2.4001080    -1.0444480
  H        2.9731640     2.2486720     1.1432600
  H       -4.7609150     1.1715970    -0.3832790
  H        4.7911470     1.0854140    -0.1002240
units angstrom
no_reorient  #important for SAPT in psi4, default
symmetry c1  #important for SAPT in psi4, default
}

set PROPERTIES_ORIGIN ["COM"]
properties('MP2/aug-cc-pvtz', properties = ['dipole'])
--------------------------------------------------------------------------

    Molecular point group: c1
  Charge       = 0
  Multiplicity = 1
  Basis Set: AUG-CC-PVTZ
    Blend: AUG-CC-PVTZ
  Basis Set: (AUG-CC-PVTZ AUX)
    Blend: AUG-CC-PVTZ-JKFIT

    Orbital Energies [Eh]
    ---------------------

    Doubly Occupied:

       1A    -15.586871     2A    -11.289318     3A    -11.279705
       4A    -11.242611     5A    -11.240112     6A    -11.238953
       7A    -11.237775     8A    -11.235465     9A    -11.229068
      10A    -11.228928    11A    -11.228642    12A    -11.225243
      13A    -11.223843    14A     -1.277550    15A     -1.153337
      16A     -1.125829    17A     -1.028799    18A     -1.018184
      19A     -1.011839    20A     -0.968561    21A     -0.849806
      22A     -0.844900    23A     -0.823081    24A     -0.789901
      25A     -0.725134    26A     -0.701158    27A     -0.677183
      28A     -0.660859    29A     -0.631909    30A     -0.621448
      31A     -0.602651    32A     -0.589951    33A     -0.584830
      34A     -0.582061    35A     -0.549291    36A     -0.520456
      37A     -0.508000    38A     -0.504036    39A     -0.496828
      40A     -0.488081    41A     -0.449980    42A     -0.342350
      43A     -0.338957    44A     -0.336865    45A     -0.274370

  @DF-RHF Final Energy:  -515.42933633118037

   => Energetics <=

    Nuclear Repulsion Energy =            696.7920106224289611
    One-Electron Energy =               -2079.3132601916631756
    Two-Electron Energy =                 867.0919132380538485
    Total Energy =                       -515.4293363311803660
  Basis Set: (AUG-CC-PVTZ AUX)
    Blend: AUG-CC-PVTZ-RI
    Molecular point group: c1

    Geometry (in Angstrom), charge = 0, multiplicity = 1:

       Center              X                  Y                   Z               Mass
    ------------   -----------------  -----------------  -----------------  -----------------
         N            0.023762052597    -1.035007908336     0.231374442479    14.003074004430
         C           -1.256545947403    -0.468905808336     0.079253542479    12.000000000000
         C            1.234667052597    -0.502077808336     0.130137542479    12.000000000000
         C           -2.421720947403    -1.157590808336     0.453052542479    12.000000000000
         C            2.263302052597    -1.157314808336    -0.562497457521    12.000000000000
         C           -1.369821947403     0.820291191664    -0.462692457521    12.000000000000
         C            1.505822052597     0.726418191664     0.755345542479    12.000000000000
         C           -3.674863947403    -0.577357808336     0.272468542479    12.000000000000
         C            3.537157052597    -0.593756808336    -0.633554457521    12.000000000000
         C           -2.629575947403     1.399767191664    -0.620121457521    12.000000000000
         C            2.774346052597     1.294608191664     0.655737542479    12.000000000000
         C           -3.787573947403     0.711688191664    -0.254479457521    12.000000000000
         C            3.798131052597     0.639637191664    -0.034417457521    12.000000000000
         H           -0.030185947403    -2.103089808336     0.038321542479     1.007825032230
         H           -2.333330947403    -2.150764808336     0.890265542479     1.007825032230
         H            2.057770052597    -2.107711808336    -1.053048457521     1.007825032230
         H           -0.481698947403     1.353280191664    -0.788134457521     1.007825032230
         H            0.726206052597     1.216164191664     1.332593542479     1.007825032230
         H           -4.565647947403    -1.129049808336     0.564151542479     1.007825032230
         H            4.323520052597    -1.117137808336    -1.172554457521     1.007825032230
         H           -2.702178947403     2.398656191664    -1.044736457521     1.007825032230
         H            2.969709052597     2.247220191664     1.142971542479     1.007825032230
         H           -4.764369947403     1.170145191664    -0.383567457521     1.007825032230
         H            4.787692052597     1.083962191664    -0.100512457521     1.007825032230

  Basis Set: AUG-CC-PVTZ
    Blend: AUG-CC-PVTZ
  Basis Set: (AUG-CC-PVTZ AUX)
    Blend: AUG-CC-PVTZ-JKFIT
	 Reference Energy          =    -515.4293363311803660 [Eh]
	 Singles Energy            =      -0.0000000000000000 [Eh]
	 Same-Spin Energy          =      -0.5811683461834157 [Eh]
	 Opposite-Spin Energy      =      -1.7977983870355756 [Eh]
	 Correlation Energy        =      -2.3789667332189914 [Eh]
	 Total Energy              =    -517.8083030643994107 [Eh]

	 ================> DF-SCS-MP2 Energies <==================
	-----------------------------------------------------------
	 SCS Same-Spin Scale       =       0.3333333333333333 [-]
	 SCS Opposite-Spin Scale   =       1.2000000000000000 [-]
	 SCS Same-Spin Energy      =      -0.1937227820611386 [Eh]
	 SCS Opposite-Spin Energy  =      -2.1573580644426906 [Eh]
	 SCS Correlation Energy    =      -2.3510808465038293 [Eh]
	 SCS Total Energy          =    -517.7804171776841713 [Eh]
	-----------------------------------------------------------

  Dipole Moment: [D]
     X:    -0.2979      Y:    -0.8252      Z:    -0.2589     Total:     0.9147

*** Psi4 exiting successfully. Buy a developer a beer!
