                               Psi4 1.3.2 release

  ==> Input File <==

--------------------------------------------------------------------------
#psi4
#
memory 32 gb

molecule  {
0 1
  N       -0.0163110    -1.1135150     0.2687020
  C       -1.2758175    -0.5097211     0.0901597
  C        1.2381220    -0.5006260     0.1304260
  C       -2.4182660    -1.1561390     0.4533410
  C        2.2667570    -1.1558630    -0.5622090
  C       -1.3663670     0.8217430    -0.4624040
  C        1.5092770     0.7278700     0.7556340
  C       -3.6714090    -0.5759060     0.2727570
  C        3.5406120    -0.5923050    -0.6332660
  C       -2.6261210     1.4012190    -0.6198330
  C        2.7778010     1.2960600     0.6560260
  C       -3.7841190     0.7131400    -0.2541910
  C        3.8015860     0.6410890    -0.0341290
  H       -0.0267310    -2.1016380     0.0386100
  H       -2.3298760    -2.1493130     0.8905540
  H        2.0612250    -2.1062600    -1.0527600
  H       -0.4782440     1.3547320    -0.7878460
  H        0.7296610     1.2176160     1.3328820
  H       -4.5621930    -1.1275980     0.5644400
  H        4.3269750    -1.1156860    -1.1722660
  H       -2.6987240     2.4001080    -1.0444480
  H        2.9731640     2.2486720     1.1432600
  H       -4.7609150     1.1715970    -0.3832790
  H        4.7911470     1.0854140    -0.1002240
units angstrom
no_reorient  #important for SAPT in psi4, default
symmetry c1  #important for SAPT in psi4, default
}

set PROPERTIES_ORIGIN ["COM"]
properties('MP2/aug-cc-pvtz', properties = ['dipole'])
--------------------------------------------------------------------------

    Molecular point group: c1
  Charge       = 0
  Multiplicity = 1
  Basis Set: AUG-CC-PVTZ
    Blend: AUG-CC-PVTZ
  Basis Set: (AUG-CC-PVTZ AUX)
    Blend: AUG-CC-PVTZ-JKFIT

    Orbital Energies [Eh]
    ---------------------

    Doubly Occupied:

       1A    -15.580128     2A    -11.284831     3A    -11.284447
       4A    -11.241274     5A    -11.240483     6A    -11.240025
       7A    -11.238311     8A    -11.234294     9A    -11.232552
      10A    -11.231124    11A    -11.229425    12A    -11.226611
      13A    -11.225916    14A     -1.261067    15A     -1.152534
      16A     -1.126913    17A     -1.028137    18A     -1.018033
      19A     -1.009110    20A     -0.972972    21A     -0.846125
      22A     -0.841286    23A     -0.818817    24A     -0.795836
      25A     -0.718181    26A     -0.706025    27A     -0.679070
      28A     -0.656452    29A     -0.628536    30A     -0.623237
      31A     -0.600540    32A     -0.591019    33A     -0.587364
      34A     -0.584852    35A     -0.543413    36A     -0.521155
      37A     -0.506364    38A     -0.504330    39A     -0.496975
      40A     -0.489577    41A     -0.448688    42A     -0.343682
      43A     -0.340947    44A     -0.334390    45A     -0.280421

  @DF-RHF Final Energy:  -515.43895433944340

   => Energetics <=

    Nuclear Repulsion Energy =            695.0251072895241577
    One-Electron Energy =               -2075.8371864043092501
    Two-Electron Energy =                 865.3731247753416937
    Total Energy =                       -515.4389543394433986
  Basis Set: (AUG-CC-PVTZ AUX)
    Blend: AUG-CC-PVTZ-RI
    Molecular point group: c1

    Geometry (in Angstrom), charge = 0, multiplicity = 1:

       Center              X                  Y                   Z               Mass
    ------------   -----------------  -----------------  -----------------  -----------------
         N           -0.014548322212    -1.105345400929     0.264592636993    14.003074004430
         C           -1.274054822212    -0.501551500929     0.086050336993    12.000000000000
         C            1.239884677788    -0.492456400929     0.126316636993    12.000000000000
         C           -2.416503322212    -1.147969400929     0.449231636993    12.000000000000
         C            2.268519677788    -1.147693400929    -0.566318363007    12.000000000000
         C           -1.364604322212     0.829912599071    -0.466513363007    12.000000000000
         C            1.511039677788     0.736039599071     0.751524636993    12.000000000000
         C           -3.669646322212    -0.567736400929     0.268647636993    12.000000000000
         C            3.542374677788    -0.584135400929    -0.637375363007    12.000000000000
         C           -2.624358322212     1.409388599071    -0.623942363007    12.000000000000
         C            2.779563677788     1.304229599071     0.651916636993    12.000000000000
         C           -3.782356322212     0.721309599071    -0.258300363007    12.000000000000
         C            3.803348677788     0.649258599071    -0.038238363007    12.000000000000
         H           -0.024968322212    -2.093468400929     0.034500636993     1.007825032230
         H           -2.328113322212    -2.141143400929     0.886444636993     1.007825032230
         H            2.062987677788    -2.098090400929    -1.056869363007     1.007825032230
         H           -0.476481322212     1.362901599071    -0.791955363007     1.007825032230
         H            0.731423677788     1.225785599071     1.328772636993     1.007825032230
         H           -4.560430322212    -1.119428400929     0.560330636993     1.007825032230
         H            4.328737677788    -1.107516400929    -1.176375363007     1.007825032230
         H           -2.696961322212     2.408277599071    -1.048557363007     1.007825032230
         H            2.974926677788     2.256841599071     1.139150636993     1.007825032230
         H           -4.759152322212     1.179766599071    -0.387388363007     1.007825032230
         H            4.792909677788     1.093583599071    -0.104333363007     1.007825032230

  Basis Set: AUG-CC-PVTZ
    Blend: AUG-CC-PVTZ
  Basis Set: (AUG-CC-PVTZ AUX)
    Blend: AUG-CC-PVTZ-JKFIT
	 Reference Energy          =    -515.4389543394433986 [Eh]
	 Singles Energy            =      -0.0000000000000000 [Eh]
	 Same-Spin Energy          =      -0.5797648309907173 [Eh]
	 Opposite-Spin Energy      =      -1.7962445871007433 [Eh]
	 Correlation Energy        =      -2.3760094180914608 [Eh]
	 Total Energy              =    -517.8149637575348834 [Eh]

	 ================> DF-SCS-MP2 Energies <==================
	-----------------------------------------------------------
	 SCS Same-Spin Scale       =       0.3333333333333333 [-]
	 SCS Opposite-Spin Scale   =       1.2000000000000000 [-]
	 SCS Same-Spin Energy      =      -0.1932549436635724 [Eh]
	 SCS Opposite-Spin Energy  =      -2.1554935045208921 [Eh]
	 SCS Correlation Energy    =      -2.3487484481844643 [Eh]
	 SCS Total Energy          =    -517.7877027876278362 [Eh]
	-----------------------------------------------------------

  Dipole Moment: [D]
     X:     0.1515      Y:    -0.6723      Z:    -0.3450     Total:     0.7707

*** Psi4 exiting successfully. Buy a developer a beer!
