                               Psi4 1.3.2 release

  ==> Input File <==

--------------------------------------------------------------------------
#psi4
#
memory 32 gb

molecule  {
0 1
  N       -0.0163110    -1.1135150     0.2687020
  C       -1.2530910    -0.4674540     0.0795420
  C        1.2381220    -0.5006260     0.1304260
  C       -2.4182660    -1.1561390     0.4533410
  C        2.2667570    -1.1558630    -0.5622090
  C       -1.3663670     0.8217430    -0.4624040
  C        1.5092770     0.7278700     0.7556340
  C       -3.6714090    -0.5759060     0.2727570
  C        3.5406120    -0.5923050    -0.6332660
  C       -2.6261210     1.4012190    -0.6198330
  C        2.7778010     1.2960600     0.6560260
  C       -3.7841190     0.7131400    -0.2541910
  C        3.8015860     0.6410890    -0.0341290
  H       -0.0267310    -2.1016380     0.0386100
  H       -2.3298760    -2.1493130     0.8905540
  H        2.0612250    -2.1062600    -1.0527600
  H       -0.4782440     1.3547320    -0.7878460
  H        0.7296610     1.2176160     1.3328820
  H       -4.5621930    -1.1275980     0.5644400
  H        4.3269750    -1.1156860    -1.1722660
  H       -2.6987240     2.4001080    -1.0444480
  H        2.9731640     2.2486720     1.1432600
  H       -4.7609150     1.1715970    -0.3832790
  H        4.7911470     1.0854140    -0.1002240
units angstrom
no_reorient  #important for SAPT in psi4, default
symmetry c1  #important for SAPT in psi4, default
}

set PROPERTIES_ORIGIN ["COM"]
properties('MP2/aug-cc-pvtz', properties = ['dipole'])
--------------------------------------------------------------------------

    Molecular point group: c1
  Charge       = 0
  Multiplicity = 1
  Basis Set: AUG-CC-PVTZ
    Blend: AUG-CC-PVTZ
  Basis Set: (AUG-CC-PVTZ AUX)
    Blend: AUG-CC-PVTZ-JKFIT

    Orbital Energies [Eh]
    ---------------------

    Doubly Occupied:

       1A    -15.580486     2A    -11.284656     3A    -11.283644
       4A    -11.241125     5A    -11.240409     6A    -11.239513
       7A    -11.238839     8A    -11.234036     9A    -11.231051
      10A    -11.230675    11A    -11.229367    12A    -11.228311
      13A    -11.226498    14A     -1.261528    15A     -1.151763
      16A     -1.126794    17A     -1.024344    18A     -1.018419
      19A     -1.011635    20A     -0.972700    21A     -0.845110
      22A     -0.841409    23A     -0.820462    24A     -0.794672
      25A     -0.716891    26A     -0.707857    27A     -0.678352
      28A     -0.656898    29A     -0.628709    30A     -0.621964
      31A     -0.598924    32A     -0.593742    33A     -0.587106
      34A     -0.585334    35A     -0.542512    36A     -0.520826
      37A     -0.507305    38A     -0.503638    39A     -0.495270
      40A     -0.491680    41A     -0.448814    42A     -0.342255
      43A     -0.338699    44A     -0.337383    45A     -0.280646

  @DF-RHF Final Energy:  -515.44198374743939

   => Energetics <=

    Nuclear Repulsion Energy =            695.2253999921169907
    One-Electron Energy =               -2076.2502731507638600
    Two-Electron Energy =                 865.5828894112074750
    Total Energy =                       -515.4419837474393944
  Basis Set: (AUG-CC-PVTZ AUX)
    Blend: AUG-CC-PVTZ-RI
    Molecular point group: c1

    Geometry (in Angstrom), charge = 0, multiplicity = 1:

       Center              X                  Y                   Z               Mass
    ------------   -----------------  -----------------  -----------------  -----------------
         N           -0.016161187384    -1.108345032792     0.265346159029    14.003074004430
         C           -1.252941187384    -0.462284032792     0.076186159029    12.000000000000
         C            1.238271812616    -0.495456032792     0.127070159029    12.000000000000
         C           -2.418116187384    -1.150969032792     0.449985159029    12.000000000000
         C            2.266906812616    -1.150693032792    -0.565564840971    12.000000000000
         C           -1.366217187384     0.826912967208    -0.465759840971    12.000000000000
         C            1.509426812616     0.733039967208     0.752278159029    12.000000000000
         C           -3.671259187384    -0.570736032792     0.269401159029    12.000000000000
         C            3.540761812616    -0.587135032792    -0.636621840971    12.000000000000
         C           -2.625971187384     1.406388967208    -0.623188840971    12.000000000000
         C            2.777950812616     1.301229967208     0.652670159029    12.000000000000
         C           -3.783969187384     0.718309967208    -0.257546840971    12.000000000000
         C            3.801735812616     0.646258967208    -0.037484840971    12.000000000000
         H           -0.026581187384    -2.096468032792     0.035254159029     1.007825032230
         H           -2.329726187384    -2.144143032792     0.887198159029     1.007825032230
         H            2.061374812616    -2.101090032792    -1.056115840971     1.007825032230
         H           -0.478094187384     1.359901967208    -0.791201840971     1.007825032230
         H            0.729810812616     1.222785967208     1.329526159029     1.007825032230
         H           -4.562043187384    -1.122428032792     0.561084159029     1.007825032230
         H            4.327124812616    -1.110516032792    -1.175621840971     1.007825032230
         H           -2.698574187384     2.405277967208    -1.047803840971     1.007825032230
         H            2.973313812616     2.253841967208     1.139904159029     1.007825032230
         H           -4.760765187384     1.176766967208    -0.386634840971     1.007825032230
         H            4.791296812616     1.090583967208    -0.103579840971     1.007825032230

  Basis Set: AUG-CC-PVTZ
    Blend: AUG-CC-PVTZ
  Basis Set: (AUG-CC-PVTZ AUX)
    Blend: AUG-CC-PVTZ-JKFIT
	 Reference Energy          =    -515.4419837474393944 [Eh]
	 Singles Energy            =      -0.0000000000000000 [Eh]
	 Same-Spin Energy          =      -0.5798054951031382 [Eh]
	 Opposite-Spin Energy      =      -1.7961340927791067 [Eh]
	 Correlation Energy        =      -2.3759395878822449 [Eh]
	 Total Energy              =    -517.8179233353216659 [Eh]

	 ================> DF-SCS-MP2 Energies <==================
	-----------------------------------------------------------
	 SCS Same-Spin Scale       =       0.3333333333333333 [-]
	 SCS Opposite-Spin Scale   =       1.2000000000000000 [-]
	 SCS Same-Spin Energy      =      -0.1932684983677127 [Eh]
	 SCS Opposite-Spin Energy  =      -2.1553609113349279 [Eh]
	 SCS Correlation Energy    =      -2.3486294097026406 [Eh]
	 SCS Total Energy          =    -517.7906131571420474 [Eh]
	-----------------------------------------------------------

  Dipole Moment: [D]
     X:     0.1521      Y:    -0.6837      Z:    -0.3485     Total:     0.7823

*** Psi4 exiting successfully. Buy a developer a beer!
