                               Psi4 1.4a3.dev225

  ==> Input File <==

--------------------------------------------------------------------------
#psi4
#
memory 32 gb

molecule  {
0 1
  N       -0.0163110    -1.1135150     0.2687020
  C       -1.2970070    -0.4445134     0.0728252
  C        1.2381220    -0.5006260     0.1304260
  C       -2.4182660    -1.1561390     0.4533410
  C        2.2667570    -1.1558630    -0.5622090
  C       -1.3663670     0.8217430    -0.4624040
  C        1.5092770     0.7278700     0.7556340
  C       -3.6714090    -0.5759060     0.2727570
  C        3.5406120    -0.5923050    -0.6332660
  C       -2.6261210     1.4012190    -0.6198330
  C        2.7778010     1.2960600     0.6560260
  C       -3.7841190     0.7131400    -0.2541910
  C        3.8015860     0.6410890    -0.0341290
  H       -0.0267310    -2.1016380     0.0386100
  H       -2.3298760    -2.1493130     0.8905540
  H        2.0612250    -2.1062600    -1.0527600
  H       -0.4782440     1.3547320    -0.7878460
  H        0.7296610     1.2176160     1.3328820
  H       -4.5621930    -1.1275980     0.5644400
  H        4.3269750    -1.1156860    -1.1722660
  H       -2.6987240     2.4001080    -1.0444480
  H        2.9731640     2.2486720     1.1432600
  H       -4.7609150     1.1715970    -0.3832790
  H        4.7911470     1.0854140    -0.1002240
units angstrom
no_reorient  #important for SAPT in psi4, default
symmetry c1  #important for SAPT in psi4, default
}

set PROPERTIES_ORIGIN ["COM"]
properties('MP2/aug-cc-pvtz', properties = ['dipole'])
--------------------------------------------------------------------------

    Molecular point group: c1
  Charge       = 0
  Multiplicity = 1
  Basis Set: AUG-CC-PVTZ
    Blend: AUG-CC-PVTZ
  Basis Set: (AUG-CC-PVTZ AUX)
    Blend: AUG-CC-PVTZ-JKFIT

    Orbital Energies [Eh]
    ---------------------

    Doubly Occupied:

       1A    -15.575661     2A    -11.282457     3A    -11.280912
       4A    -11.241435     5A    -11.240790     6A    -11.239131
       7A    -11.238547     8A    -11.231535     9A    -11.231163
      10A    -11.229497    11A    -11.228559    12A    -11.228449
      13A    -11.226908    14A     -1.248709    15A     -1.155013
      16A     -1.125907    17A     -1.024119    18A     -1.020309
      19A     -1.012590    20A     -0.972949    21A     -0.845321
      22A     -0.837145    23A     -0.821659    24A     -0.795099
      25A     -0.714659    26A     -0.704675    27A     -0.674855
      28A     -0.652964    29A     -0.629287    30A     -0.622950
      31A     -0.596184    32A     -0.595927    33A     -0.587730
      34A     -0.584854    35A     -0.539445    36A     -0.519813
      37A     -0.507795    38A     -0.503699    39A     -0.498057
      40A     -0.491473    41A     -0.445957    42A     -0.342994
      43A     -0.340101    44A     -0.337390    45A     -0.282979

  @DF-RHF Final Energy:  -515.43958841046810

   => Energetics <=

    Nuclear Repulsion Energy =            695.1983830029834053
    One-Electron Energy =               -2076.2606430416972216
    Two-Electron Energy =                 865.6226716282455982
    Total Energy =                       -515.4395884104681045
  Basis Set: (AUG-CC-PVTZ AUX)
    Blend: AUG-CC-PVTZ-RI
    Molecular point group: c1

    Geometry (in Angstrom), charge = 0, multiplicity = 1:

       Center              X                  Y                   Z               Mass
    ------------   -----------------  -----------------  -----------------  -----------------
         N           -0.013044535594    -1.109973092316     0.265822840119    14.003074004430
         C           -1.293740535594    -0.440971492316     0.069946040119    12.000000000000
         C            1.241388464406    -0.497084092316     0.127546840119    12.000000000000
         C           -2.414999535594    -1.152597092316     0.450461840119    12.000000000000
         C            2.270023464406    -1.152321092316    -0.565088159881    12.000000000000
         C           -1.363100535594     0.825284907684    -0.465283159881    12.000000000000
         C            1.512543464406     0.731411907684     0.752754840119    12.000000000000
         C           -3.668142535594    -0.572364092316     0.269877840119    12.000000000000
         C            3.543878464406    -0.588763092316    -0.636145159881    12.000000000000
         C           -2.622854535594     1.404760907684    -0.622712159881    12.000000000000
         C            2.781067464406     1.299601907684     0.653146840119    12.000000000000
         C           -3.780852535594     0.716681907684    -0.257070159881    12.000000000000
         C            3.804852464406     0.644630907684    -0.037008159881    12.000000000000
         H           -0.023464535594    -2.098096092316     0.035730840119     1.007825032230
         H           -2.326609535594    -2.145771092316     0.887674840119     1.007825032230
         H            2.064491464406    -2.102718092316    -1.055639159881     1.007825032230
         H           -0.474977535594     1.358273907684    -0.790725159881     1.007825032230
         H            0.732927464406     1.221157907684     1.330002840119     1.007825032230
         H           -4.558926535594    -1.124056092316     0.561560840119     1.007825032230
         H            4.330241464406    -1.112144092316    -1.175145159881     1.007825032230
         H           -2.695457535594     2.403649907684    -1.047327159881     1.007825032230
         H            2.976430464406     2.252213907684     1.140380840119     1.007825032230
         H           -4.757648535594     1.175138907684    -0.386158159881     1.007825032230
         H            4.794413464406     1.088955907684    -0.103103159881     1.007825032230

  Basis Set: AUG-CC-PVTZ
    Blend: AUG-CC-PVTZ
  Basis Set: (AUG-CC-PVTZ AUX)
    Blend: AUG-CC-PVTZ-JKFIT
	 Reference Energy          =    -515.4395884104681045 [Eh]
	 Singles Energy            =      -0.0000000000000000 [Eh]
	 Same-Spin Energy          =      -0.5795611577727492 [Eh]
	 Opposite-Spin Energy      =      -1.7958880709057767 [Eh]
	 Correlation Energy        =      -2.3754492286785260 [Eh]
	 Total Energy              =    -517.8150376391466807 [Eh]

	 ================> DF-SCS-MP2 Energies <==================
	-----------------------------------------------------------
	 SCS Same-Spin Scale       =       0.3333333333333333 [-]
	 SCS Opposite-Spin Scale   =       1.2000000000000000 [-]
	 SCS Same-Spin Energy      =      -0.1931870525909164 [Eh]
	 SCS Opposite-Spin Energy  =      -2.1550656850869321 [Eh]
	 SCS Correlation Energy    =      -2.3482527376778486 [Eh]
	 SCS Total Energy          =    -517.7878411481459580 [Eh]
	-----------------------------------------------------------

  Dipole Moment: [D]
     X:    -0.2521      Y:    -0.6023      Z:    -0.3861     Total:     0.7586

*** Psi4 exiting successfully. Buy a developer a beer!
