                               Psi4 1.3.2 release

  ==> Input File <==

--------------------------------------------------------------------------
#psi4
#
memory 32 gb

molecule  {
0 1
  N       -0.0163110    -1.1135150     0.2687020
  C       -1.3166412    -0.5964098     0.1120346
  C        1.2381220    -0.5006260     0.1304260
  C       -2.4182660    -1.1561390     0.4533410
  C        2.2667570    -1.1558630    -0.5622090
  C       -1.3663670     0.8217430    -0.4624040
  C        1.5092770     0.7278700     0.7556340
  C       -3.6714090    -0.5759060     0.2727570
  C        3.5406120    -0.5923050    -0.6332660
  C       -2.6261210     1.4012190    -0.6198330
  C        2.7778010     1.2960600     0.6560260
  C       -3.7841190     0.7131400    -0.2541910
  C        3.8015860     0.6410890    -0.0341290
  H       -0.0267310    -2.1016380     0.0386100
  H       -2.3298760    -2.1493130     0.8905540
  H        2.0612250    -2.1062600    -1.0527600
  H       -0.4782440     1.3547320    -0.7878460
  H        0.7296610     1.2176160     1.3328820
  H       -4.5621930    -1.1275980     0.5644400
  H        4.3269750    -1.1156860    -1.1722660
  H       -2.6987240     2.4001080    -1.0444480
  H        2.9731640     2.2486720     1.1432600
  H       -4.7609150     1.1715970    -0.3832790
  H        4.7911470     1.0854140    -0.1002240
units angstrom
no_reorient  #important for SAPT in psi4, default
symmetry c1  #important for SAPT in psi4, default
}

set PROPERTIES_ORIGIN ["COM"]
properties('MP2/aug-cc-pvtz', properties = ['dipole'])
--------------------------------------------------------------------------

    Molecular point group: c1
  Charge       = 0
  Multiplicity = 1
  Basis Set: AUG-CC-PVTZ
    Blend: AUG-CC-PVTZ
  Basis Set: (AUG-CC-PVTZ AUX)
    Blend: AUG-CC-PVTZ-JKFIT

    Orbital Energies [Eh]
    ---------------------

    Doubly Occupied:

       1A    -15.579513     2A    -11.287288     3A    -11.282498
       4A    -11.241524     5A    -11.240779     6A    -11.240590
       7A    -11.239787     8A    -11.236712     9A    -11.234720
      10A    -11.231194    11A    -11.229459    12A    -11.227746
      13A    -11.215866    14A     -1.260290    15A     -1.155018
      16A     -1.127635    17A     -1.037832    18A     -1.017626
      19A     -1.004908    20A     -0.972866    21A     -0.849184
      22A     -0.840146    23A     -0.818217    24A     -0.794031
      25A     -0.721077    26A     -0.702500    27A     -0.681338
      28A     -0.658175    29A     -0.628162    30A     -0.624706
      31A     -0.604680    32A     -0.589794    33A     -0.587902
      34A     -0.576250    35A     -0.546010    36A     -0.522280
      37A     -0.508954    38A     -0.505160    39A     -0.497702
      40A     -0.477745    41A     -0.447191    42A     -0.353831
      43A     -0.341130    44A     -0.328097    45A     -0.280223

  @DF-RHF Final Energy:  -515.41457979757524

   => Energetics <=

    Nuclear Repulsion Energy =            694.6803659176928250
    One-Electron Energy =               -2075.0932183718150554
    Two-Electron Energy =                 864.9982726565469875
    Total Energy =                       -515.4145797975752430
  Basis Set: (AUG-CC-PVTZ AUX)
    Blend: AUG-CC-PVTZ-RI
    Molecular point group: c1

    Geometry (in Angstrom), charge = 0, multiplicity = 1:

       Center              X                  Y                   Z               Mass
    ------------   -----------------  -----------------  -----------------  -----------------
         N           -0.011651126254    -1.099193235613     0.263040208579    14.003074004430
         C           -1.311981326254    -0.582088035613     0.106372808579    12.000000000000
         C            1.242781873746    -0.486304235613     0.124764208579    12.000000000000
         C           -2.413606126254    -1.141817235613     0.447679208579    12.000000000000
         C            2.271416873746    -1.141541235613    -0.567870791421    12.000000000000
         C           -1.361707126254     0.836064764387    -0.468065791421    12.000000000000
         C            1.513936873746     0.742191764387     0.749972208579    12.000000000000
         C           -3.666749126254    -0.561584235613     0.267095208579    12.000000000000
         C            3.545271873746    -0.577983235613    -0.638927791421    12.000000000000
         C           -2.621461126254     1.415540764387    -0.625494791421    12.000000000000
         C            2.782460873746     1.310381764387     0.650364208579    12.000000000000
         C           -3.779459126254     0.727461764387    -0.259852791421    12.000000000000
         C            3.806245873746     0.655410764387    -0.039790791421    12.000000000000
         H           -0.022071126254    -2.087316235613     0.032948208579     1.007825032230
         H           -2.325216126254    -2.134991235613     0.884892208579     1.007825032230
         H            2.065884873746    -2.091938235613    -1.058421791421     1.007825032230
         H           -0.473584126254     1.369053764387    -0.793507791421     1.007825032230
         H            0.734320873746     1.231937764387     1.327220208579     1.007825032230
         H           -4.557533126254    -1.113276235613     0.558778208579     1.007825032230
         H            4.331634873746    -1.101364235613    -1.177927791421     1.007825032230
         H           -2.694064126254     2.414429764387    -1.050109791421     1.007825032230
         H            2.977823873746     2.262993764387     1.137598208579     1.007825032230
         H           -4.756255126254     1.185918764387    -0.388940791421     1.007825032230
         H            4.795806873746     1.099735764387    -0.105885791421     1.007825032230

  Basis Set: AUG-CC-PVTZ
    Blend: AUG-CC-PVTZ
  Basis Set: (AUG-CC-PVTZ AUX)
    Blend: AUG-CC-PVTZ-JKFIT
	 Reference Energy          =    -515.4145797975752430 [Eh]
	 Singles Energy            =      -0.0000000000000000 [Eh]
	 Same-Spin Energy          =      -0.5793413666312682 [Eh]
	 Opposite-Spin Energy      =      -1.7972453510810835 [Eh]
	 Correlation Energy        =      -2.3765867177123519 [Eh]
	 Total Energy              =    -517.7911665152876139 [Eh]

	 ================> DF-SCS-MP2 Energies <==================
	-----------------------------------------------------------
	 SCS Same-Spin Scale       =       0.3333333333333333 [-]
	 SCS Opposite-Spin Scale   =       1.2000000000000000 [-]
	 SCS Same-Spin Energy      =      -0.1931137888770894 [Eh]
	 SCS Opposite-Spin Energy  =      -2.1566944212973000 [Eh]
	 SCS Correlation Energy    =      -2.3498082101743893 [Eh]
	 SCS Total Energy          =    -517.7643880077496306 [Eh]
	-----------------------------------------------------------

  Dipole Moment: [D]
     X:     0.1383      Y:    -0.6508      Z:    -0.3375     Total:     0.7461

*** Psi4 exiting successfully. Buy a developer a beer!
