                               Psi4 1.3.2 release

  ==> Input File <==

--------------------------------------------------------------------------
#psi4
#
memory 32 gb

molecule  {
0 1
  N       -0.0163110    -1.1135150     0.2687020
  C       -1.0774270    -0.5592162     0.1064090
  C        1.2381220    -0.5006260     0.1304260
  C       -2.4182660    -1.1561390     0.4533410
  C        2.2667570    -1.1558630    -0.5622090
  C       -1.3663670     0.8217430    -0.4624040
  C        1.5092770     0.7278700     0.7556340
  C       -3.6714090    -0.5759060     0.2727570
  C        3.5406120    -0.5923050    -0.6332660
  C       -2.6261210     1.4012190    -0.6198330
  C        2.7778010     1.2960600     0.6560260
  C       -3.7841190     0.7131400    -0.2541910
  C        3.8015860     0.6410890    -0.0341290
  H       -0.0267310    -2.1016380     0.0386100
  H       -2.3298760    -2.1493130     0.8905540
  H        2.0612250    -2.1062600    -1.0527600
  H       -0.4782440     1.3547320    -0.7878460
  H        0.7296610     1.2176160     1.3328820
  H       -4.5621930    -1.1275980     0.5644400
  H        4.3269750    -1.1156860    -1.1722660
  H       -2.6987240     2.4001080    -1.0444480
  H        2.9731640     2.2486720     1.1432600
  H       -4.7609150     1.1715970    -0.3832790
  H        4.7911470     1.0854140    -0.1002240
units angstrom
no_reorient  #important for SAPT in psi4, default
symmetry c1  #important for SAPT in psi4, default
}

set PROPERTIES_ORIGIN ["COM"]
properties('MP2/aug-cc-pvtz', properties = ['dipole'])
--------------------------------------------------------------------------

    Molecular point group: c1
  Charge       = 0
  Multiplicity = 1
  Basis Set: AUG-CC-PVTZ
    Blend: AUG-CC-PVTZ
  Basis Set: (AUG-CC-PVTZ AUX)
    Blend: AUG-CC-PVTZ-JKFIT

    Orbital Energies [Eh]
    ---------------------

    Doubly Occupied:

       1A    -15.603400     2A    -11.296698     3A    -11.296171
       4A    -11.251438     5A    -11.250032     6A    -11.249000
       7A    -11.244752     8A    -11.242312     9A    -11.231144
      10A    -11.230498    11A    -11.224585    12A    -11.224408
      13A    -11.207874    14A     -1.341956    15A     -1.160727
      16A     -1.110896    17A     -1.038503    18A     -1.028604
      19A     -0.993372    20A     -0.959399    21A     -0.867117
      22A     -0.857244    23A     -0.814106    24A     -0.792866
      25A     -0.732283    26A     -0.731940    27A     -0.686391
      28A     -0.663300    29A     -0.643204    30A     -0.624909
      31A     -0.606012    32A     -0.598942    33A     -0.591595
      34A     -0.564461    35A     -0.554766    36A     -0.527967
      37A     -0.509199    38A     -0.508183    39A     -0.503388
      40A     -0.462007    41A     -0.437847    42A     -0.350989
      43A     -0.343912    44A     -0.327750    45A     -0.258745

  @DF-RHF Final Energy:  -515.37874146006686

   => Energetics <=

    Nuclear Repulsion Energy =            695.9285991648755498
    One-Electron Energy =               -2077.1248987537360335
    Two-Electron Energy =                 865.8175581287936211
    Total Energy =                       -515.3787414600668626
  Basis Set: (AUG-CC-PVTZ AUX)
    Blend: AUG-CC-PVTZ-RI
    Molecular point group: c1

    Geometry (in Angstrom), charge = 0, multiplicity = 1:

       Center              X                  Y                   Z               Mass
    ------------   -----------------  -----------------  -----------------  -----------------
         N           -0.028627794543    -1.101832808890     0.263439448863    14.003074004430
         C           -1.089743794543    -0.547534008890     0.101146448863    12.000000000000
         C            1.225805205457    -0.488943808890     0.125163448863    12.000000000000
         C           -2.430582794543    -1.144456808890     0.448078448863    12.000000000000
         C            2.254440205457    -1.144180808890    -0.567471551137    12.000000000000
         C           -1.378683794543     0.833425191110    -0.467666551137    12.000000000000
         C            1.496960205457     0.739552191110     0.750371448863    12.000000000000
         C           -3.683725794543    -0.564223808890     0.267494448863    12.000000000000
         C            3.528295205457    -0.580622808890    -0.638528551137    12.000000000000
         C           -2.638437794543     1.412901191110    -0.625095551137    12.000000000000
         C            2.765484205457     1.307742191110     0.650763448863    12.000000000000
         C           -3.796435794543     0.724822191110    -0.259453551137    12.000000000000
         C            3.789269205457     0.652771191110    -0.039391551137    12.000000000000
         H           -0.039047794543    -2.089955808890     0.033347448863     1.007825032230
         H           -2.342192794543    -2.137630808890     0.885291448863     1.007825032230
         H            2.048908205457    -2.094577808890    -1.058022551137     1.007825032230
         H           -0.490560794543     1.366414191110    -0.793108551137     1.007825032230
         H            0.717344205457     1.229298191110     1.327619448863     1.007825032230
         H           -4.574509794543    -1.115915808890     0.559177448863     1.007825032230
         H            4.314658205457    -1.104003808890    -1.177528551137     1.007825032230
         H           -2.711040794543     2.411790191110    -1.049710551137     1.007825032230
         H            2.960847205457     2.260354191110     1.137997448863     1.007825032230
         H           -4.773231794543     1.183279191110    -0.388541551137     1.007825032230
         H            4.778830205457     1.097096191110    -0.105486551137     1.007825032230

  Basis Set: AUG-CC-PVTZ
    Blend: AUG-CC-PVTZ
  Basis Set: (AUG-CC-PVTZ AUX)
    Blend: AUG-CC-PVTZ-JKFIT
	 Reference Energy          =    -515.3787414600668626 [Eh]
	 Singles Energy            =      -0.0000000000000000 [Eh]
	 Same-Spin Energy          =      -0.5824112391362697 [Eh]
	 Opposite-Spin Energy      =      -1.8001817718844588 [Eh]
	 Correlation Energy        =      -2.3825930110207283 [Eh]
	 Total Energy              =    -517.7613344710875936 [Eh]

	 ================> DF-SCS-MP2 Energies <==================
	-----------------------------------------------------------
	 SCS Same-Spin Scale       =       0.3333333333333333 [-]
	 SCS Opposite-Spin Scale   =       1.2000000000000000 [-]
	 SCS Same-Spin Energy      =      -0.1941370797120899 [Eh]
	 SCS Opposite-Spin Energy  =      -2.1602181262613507 [Eh]
	 SCS Correlation Energy    =      -2.3543552059734405 [Eh]
	 SCS Total Energy          =    -517.7330966660402964 [Eh]
	-----------------------------------------------------------

  Dipole Moment: [D]
     X:     2.0587      Y:    -1.0544      Z:    -0.1708     Total:     2.3193

*** Psi4 exiting successfully. Buy a developer a beer!
