                               Psi4 1.4a3.dev225

  ==> Input File <==

--------------------------------------------------------------------------
#psi4
#
memory 32 gb

molecule  {
0 1
  N        0.0000000    -0.0000010    -0.1165990
  H       -0.8052750    -0.4477535     0.2644231
  H        0.8062600    -0.4830070     0.2720660
  H        0.0151680     0.9397460     0.2720610
units angstrom
no_reorient  #important for SAPT in psi4, default
symmetry c1  #important for SAPT in psi4, default
}

set PROPERTIES_ORIGIN ["COM"]
properties('MP2/aug-cc-pvtz', properties = ['dipole'])
--------------------------------------------------------------------------

    Molecular point group: c1
  Charge       = 0
  Multiplicity = 1
  Basis Set: AUG-CC-PVTZ
    Blend: AUG-CC-PVTZ
  Basis Set: (AUG-CC-PVTZ AUX)
    Blend: AUG-CC-PVTZ-JKFIT

    Orbital Energies [Eh]
    ---------------------

    Doubly Occupied:

       1A    -15.541433     2A     -1.144260     3A     -0.631644
       4A     -0.626128     5A     -0.430772

  @DF-RHF Final Energy:   -56.22013720682112

   => Energetics <=

    Nuclear Repulsion Energy =             11.9810180806038442
    One-Electron Energy =                 -99.6538371873944442
    Two-Electron Energy =                  31.4526818999694733
    Total Energy =                        -56.2201372068211214
  Basis Set: (AUG-CC-PVTZ AUX)
    Blend: AUG-CC-PVTZ-RI
    Molecular point group: c1

    Geometry (in Angstrom), charge = 0, multiplicity = 1:

       Center              X                  Y                   Z               Mass
    ------------   -----------------  -----------------  -----------------  -----------------
         N           -0.000956118451    -0.000532041769    -0.068564169783    14.003074004430
         H           -0.806231118451    -0.448284541769     0.312457930217     1.007825032230
         H            0.805303881549    -0.483538041769     0.320100830217     1.007825032230
         H            0.014211881549     0.939214958231     0.320095830217     1.007825032230

  Basis Set: AUG-CC-PVTZ
    Blend: AUG-CC-PVTZ
  Basis Set: (AUG-CC-PVTZ AUX)
    Blend: AUG-CC-PVTZ-JKFIT
	 Reference Energy          =     -56.2201372068211214 [Eh]
	 Singles Energy            =      -0.0000000000000000 [Eh]
	 Same-Spin Energy          =      -0.0560560387052115 [Eh]
	 Opposite-Spin Energy      =      -0.2009965999689363 [Eh]
	 Correlation Energy        =      -0.2570526386741478 [Eh]
	 Total Energy              =     -56.4771898454952677 [Eh]

	 ================> DF-SCS-MP2 Energies <==================
	-----------------------------------------------------------
	 SCS Same-Spin Scale       =       0.3333333333333333 [-]
	 SCS Opposite-Spin Scale   =       1.2000000000000000 [-]
	 SCS Same-Spin Energy      =      -0.0186853462350705 [Eh]
	 SCS Opposite-Spin Energy  =      -0.2411959199627235 [Eh]
	 SCS Correlation Energy    =      -0.2598812661977941 [Eh]
	 SCS Total Energy          =     -56.4800184730189159 [Eh]
	-----------------------------------------------------------

  Dipole Moment: [D]
     X:     0.0047      Y:     0.0026      Z:     1.5449     Total:     1.5449

*** Psi4 exiting successfully. Buy a developer a beer!
