                               Psi4 1.3.2 release

  ==> Input File <==

--------------------------------------------------------------------------
#psi4
#
memory 32 gb

molecule  {
0 1
  N        0.0000000    -0.0000010    -0.1165090
  H       -0.8360046    -0.4455038     0.2535215
  H        0.8127380    -0.4721540     0.2718550
  H        0.0025460     0.9399080     0.2718510
units angstrom
no_reorient  #important for SAPT in psi4, default
symmetry c1  #important for SAPT in psi4, default
}

set PROPERTIES_ORIGIN ["COM"]
properties('MP2/aug-cc-pvtz', properties = ['dipole'])
--------------------------------------------------------------------------

    Molecular point group: c1
  Charge       = 0
  Multiplicity = 1
  Basis Set: AUG-CC-PVTZ
    Blend: AUG-CC-PVTZ
  Basis Set: (AUG-CC-PVTZ AUX)
    Blend: AUG-CC-PVTZ-JKFIT

    Orbital Energies [Eh]
    ---------------------

    Doubly Occupied:

       1A    -15.543407     2A     -1.139967     3A     -0.630298
       4A     -0.623161     5A     -0.429182

  @DF-RHF Final Energy:   -56.21984908407126

   => Energetics <=

    Nuclear Repulsion Energy =             11.8996773440811339
    One-Electron Energy =                 -99.5070237758078662
    Two-Electron Energy =                  31.3874973476554828
    Total Energy =                        -56.2198490840712566
  Basis Set: (AUG-CC-PVTZ AUX)
    Blend: AUG-CC-PVTZ-RI
    Molecular point group: c1

    Geometry (in Angstrom), charge = 0, multiplicity = 1:

       Center              X                  Y                   Z               Mass
    ------------   -----------------  -----------------  -----------------  -----------------
         N            0.001226481023    -0.001317197741    -0.067877987727    14.003074004430
         H           -0.834778118977    -0.446819997741     0.302152512273     1.007825032230
         H            0.813964481023    -0.473470197741     0.320486012273     1.007825032230
         H            0.003772481023     0.938591802259     0.320482012273     1.007825032230

  Basis Set: AUG-CC-PVTZ
    Blend: AUG-CC-PVTZ
  Basis Set: (AUG-CC-PVTZ AUX)
    Blend: AUG-CC-PVTZ-JKFIT
	 Reference Energy          =     -56.2198490840712566 [Eh]
	 Singles Energy            =      -0.0000000000000000 [Eh]
	 Same-Spin Energy          =      -0.0561121858499066 [Eh]
	 Opposite-Spin Energy      =      -0.2012538999773849 [Eh]
	 Correlation Energy        =      -0.2573660858272915 [Eh]
	 Total Energy              =     -56.4772151698985496 [Eh]

	 ================> DF-SCS-MP2 Energies <==================
	-----------------------------------------------------------
	 SCS Same-Spin Scale       =       0.3333333333333333 [-]
	 SCS Opposite-Spin Scale   =       1.2000000000000000 [-]
	 SCS Same-Spin Energy      =      -0.0187040619499689 [Eh]
	 SCS Opposite-Spin Energy  =      -0.2415046799728618 [Eh]
	 SCS Correlation Energy    =      -0.2602087419228307 [Eh]
	 SCS Total Energy          =     -56.4800578259940878 [Eh]
	-----------------------------------------------------------

  Dipole Moment: [D]
     X:    -0.0226      Y:     0.0112      Z:     1.5219     Total:     1.5221

*** Psi4 exiting successfully. Buy a developer a beer!
