                               Psi4 1.3.2 release

  ==> Input File <==

--------------------------------------------------------------------------
#psi4
#
memory 32 gb

molecule  {
0 1
  N        0.0000000    -0.0000010    -0.1165090
  H       -0.7472693    -0.5309444     0.3239302
  H        0.8127380    -0.4721540     0.2718550
  H        0.0025460     0.9399080     0.2718510
units angstrom
no_reorient  #important for SAPT in psi4, default
symmetry c1  #important for SAPT in psi4, default
}

set PROPERTIES_ORIGIN ["COM"]
properties('MP2/aug-cc-pvtz', properties = ['dipole'])
--------------------------------------------------------------------------

    Molecular point group: c1
  Charge       = 0
  Multiplicity = 1
  Basis Set: AUG-CC-PVTZ
    Blend: AUG-CC-PVTZ
  Basis Set: (AUG-CC-PVTZ AUX)
    Blend: AUG-CC-PVTZ-JKFIT

    Orbital Energies [Eh]
    ---------------------

    Doubly Occupied:

       1A    -15.544519     2A     -1.143028     3A     -0.635169
       4A     -0.613147     5A     -0.434008

  @DF-RHF Final Energy:   -56.21871389288400

   => Energetics <=

    Nuclear Repulsion Energy =             11.9111885801095259
    One-Electron Energy =                 -99.5200639127604063
    Two-Electron Energy =                  31.3901614397668887
    Total Energy =                        -56.2187138928839971
  Basis Set: (AUG-CC-PVTZ AUX)
    Blend: AUG-CC-PVTZ-RI
    Molecular point group: c1

    Geometry (in Angstrom), charge = 0, multiplicity = 1:

       Center              X                  Y                   Z               Mass
    ------------   -----------------  -----------------  -----------------  -----------------
         N           -0.004025884330     0.003740149755    -0.072045576234    14.003074004430
         H           -0.751295184330    -0.527203250245     0.368393623766     1.007825032230
         H            0.808712115670    -0.468412850245     0.316318423766     1.007825032230
         H           -0.001479884330     0.943649149755     0.316314423766     1.007825032230

  Basis Set: AUG-CC-PVTZ
    Blend: AUG-CC-PVTZ
  Basis Set: (AUG-CC-PVTZ AUX)
    Blend: AUG-CC-PVTZ-JKFIT
	 Reference Energy          =     -56.2187138928839971 [Eh]
	 Singles Energy            =      -0.0000000000000000 [Eh]
	 Same-Spin Energy          =      -0.0561814069611036 [Eh]
	 Opposite-Spin Energy      =      -0.2014268409295430 [Eh]
	 Correlation Energy        =      -0.2576082478906466 [Eh]
	 Total Energy              =     -56.4763221407746414 [Eh]

	 ================> DF-SCS-MP2 Energies <==================
	-----------------------------------------------------------
	 SCS Same-Spin Scale       =       0.3333333333333333 [-]
	 SCS Opposite-Spin Scale   =       1.2000000000000000 [-]
	 SCS Same-Spin Energy      =      -0.0187271356537012 [Eh]
	 SCS Opposite-Spin Energy  =      -0.2417122091154516 [Eh]
	 SCS Correlation Energy    =      -0.2604393447691528 [Eh]
	 SCS Total Energy          =     -56.4791532376531507 [Eh]
	-----------------------------------------------------------

  Dipole Moment: [D]
     X:     0.0729      Y:    -0.0309      Z:     1.5947     Total:     1.5967

*** Psi4 exiting successfully. Buy a developer a beer!
