                               Psi4 1.4a3.dev225

  ==> Input File <==

--------------------------------------------------------------------------
#psi4
#
memory 32 gb

molecule  {
0 1
  N        0.0000000    -0.0000010    -0.1165990
  H       -0.7810455    -0.4342814     0.2529587
  H        0.8062600    -0.4830070     0.2720660
  H        0.0151680     0.9397460     0.2720610
units angstrom
no_reorient  #important for SAPT in psi4, default
symmetry c1  #important for SAPT in psi4, default
}

set PROPERTIES_ORIGIN ["COM"]
properties('MP2/aug-cc-pvtz', properties = ['dipole'])
--------------------------------------------------------------------------

    Molecular point group: c1
  Charge       = 0
  Multiplicity = 1
  Basis Set: AUG-CC-PVTZ
    Blend: AUG-CC-PVTZ
  Basis Set: (AUG-CC-PVTZ AUX)
    Blend: AUG-CC-PVTZ-JKFIT

    Orbital Energies [Eh]
    ---------------------

    Doubly Occupied:

       1A    -15.537908     2A     -1.150138     3A     -0.640026
       4A     -0.626229     5A     -0.431273

  @DF-RHF Final Energy:   -56.21906525899193

   => Energetics <=

    Nuclear Repulsion Energy =             12.1060964187075069
    One-Electron Energy =                 -99.8791752972753670
    Two-Electron Energy =                  31.5540136195759260
    Total Energy =                        -56.2190652589919324
  Basis Set: (AUG-CC-PVTZ AUX)
    Blend: AUG-CC-PVTZ-RI
    Molecular point group: c1

    Geometry (in Angstrom), charge = 0, multiplicity = 1:

       Center              X                  Y                   Z               Mass
    ------------   -----------------  -----------------  -----------------  -----------------
         N           -0.002390296126    -0.001329474034    -0.067885576063    14.003074004430
         H           -0.783435796126    -0.435609874034     0.301672123937     1.007825032230
         H            0.803869703874    -0.484335474034     0.320779423937     1.007825032230
         H            0.012777703874     0.938417525966     0.320774423937     1.007825032230

  Basis Set: AUG-CC-PVTZ
    Blend: AUG-CC-PVTZ
  Basis Set: (AUG-CC-PVTZ AUX)
    Blend: AUG-CC-PVTZ-JKFIT
	 Reference Energy          =     -56.2190652589919324 [Eh]
	 Singles Energy            =      -0.0000000000000000 [Eh]
	 Same-Spin Energy          =      -0.0559685939488360 [Eh]
	 Opposite-Spin Energy      =      -0.2005956781158882 [Eh]
	 Correlation Energy        =      -0.2565642720647242 [Eh]
	 Total Energy              =     -56.4756295310566543 [Eh]

	 ================> DF-SCS-MP2 Energies <==================
	-----------------------------------------------------------
	 SCS Same-Spin Scale       =       0.3333333333333333 [-]
	 SCS Opposite-Spin Scale   =       1.2000000000000000 [-]
	 SCS Same-Spin Energy      =      -0.0186561979829453 [Eh]
	 SCS Opposite-Spin Energy  =      -0.2407148137390659 [Eh]
	 SCS Correlation Energy    =      -0.2593710117220112 [Eh]
	 SCS Total Energy          =     -56.4784362707139422 [Eh]
	-----------------------------------------------------------

  Dipole Moment: [D]
     X:     0.0122      Y:     0.0068      Z:     1.5495     Total:     1.5496

*** Psi4 exiting successfully. Buy a developer a beer!
