                               Psi4 1.3.2 release

  ==> Input File <==

--------------------------------------------------------------------------
#psi4
#
memory 32 gb

molecule  {
0 1
  N        0.0000000    -0.0000010    -0.1165090
  H       -0.8954492    -0.5137373     0.3100420
  H        0.8127380    -0.4721540     0.2718550
  H        0.0025460     0.9399080     0.2718510
units angstrom
no_reorient  #important for SAPT in psi4, default
symmetry c1  #important for SAPT in psi4, default
}

set PROPERTIES_ORIGIN ["COM"]
properties('MP2/aug-cc-pvtz', properties = ['dipole'])
--------------------------------------------------------------------------

    Molecular point group: c1
  Charge       = 0
  Multiplicity = 1
  Basis Set: AUG-CC-PVTZ
    Blend: AUG-CC-PVTZ
  Basis Set: (AUG-CC-PVTZ AUX)
    Blend: AUG-CC-PVTZ-JKFIT

    Orbital Energies [Eh]
    ---------------------

    Doubly Occupied:

       1A    -15.554507     2A     -1.126001     3A     -0.626414
       4A     -0.599169     5A     -0.429035

  @DF-RHF Final Energy:   -56.21052346167559

   => Energetics <=

    Nuclear Repulsion Energy =             11.5452029322033862
    One-Electron Energy =                 -98.8411995351170276
    Two-Electron Energy =                  31.0854731412380616
    Total Energy =                        -56.2105234616755851
  Basis Set: (AUG-CC-PVTZ AUX)
    Blend: AUG-CC-PVTZ-RI
    Molecular point group: c1

    Geometry (in Angstrom), charge = 0, multiplicity = 1:

       Center              X                  Y                   Z               Mass
    ------------   -----------------  -----------------  -----------------  -----------------
         N            0.004745089260     0.002721637664    -0.071223514434    14.003074004430
         H           -0.890704110740    -0.511014662336     0.355327485566     1.007825032230
         H            0.817483089260    -0.469431362336     0.317140485566     1.007825032230
         H            0.007291089260     0.942630637664     0.317136485566     1.007825032230

  Basis Set: AUG-CC-PVTZ
    Blend: AUG-CC-PVTZ
  Basis Set: (AUG-CC-PVTZ AUX)
    Blend: AUG-CC-PVTZ-JKFIT
	 Reference Energy          =     -56.2105234616755851 [Eh]
	 Singles Energy            =      -0.0000000000000000 [Eh]
	 Same-Spin Energy          =      -0.0563861702657003 [Eh]
	 Opposite-Spin Energy      =      -0.2027903998957875 [Eh]
	 Correlation Energy        =      -0.2591765701614879 [Eh]
	 Total Energy              =     -56.4697000318370712 [Eh]

	 ================> DF-SCS-MP2 Energies <==================
	-----------------------------------------------------------
	 SCS Same-Spin Scale       =       0.3333333333333333 [-]
	 SCS Opposite-Spin Scale   =       1.2000000000000000 [-]
	 SCS Same-Spin Energy      =      -0.0187953900885668 [Eh]
	 SCS Opposite-Spin Energy  =      -0.2433484798749450 [Eh]
	 SCS Correlation Energy    =      -0.2621438699635118 [Eh]
	 SCS Total Energy          =     -56.4726673316390944 [Eh]
	-----------------------------------------------------------

  Dipole Moment: [D]
     X:    -0.0191      Y:    -0.0109      Z:     1.5264     Total:     1.5265

*** Psi4 exiting successfully. Buy a developer a beer!
