                               Psi4 1.3.2 release

  ==> Input File <==

--------------------------------------------------------------------------
#psi4
#
memory 32 gb

molecule  {
0 1
  N        0.0000000    -0.0000010    -0.1165090
  H       -0.7351188    -0.4217527     0.2336680
  H        0.8127380    -0.4721540     0.2718550
  H        0.0025460     0.9399080     0.2718510
units angstrom
no_reorient  #important for SAPT in psi4, default
symmetry c1  #important for SAPT in psi4, default
}

set PROPERTIES_ORIGIN ["COM"]
properties('MP2/aug-cc-pvtz', properties = ['dipole'])
--------------------------------------------------------------------------

    Molecular point group: c1
  Charge       = 0
  Multiplicity = 1
  Basis Set: AUG-CC-PVTZ
    Blend: AUG-CC-PVTZ
  Basis Set: (AUG-CC-PVTZ AUX)
    Blend: AUG-CC-PVTZ-JKFIT

    Orbital Energies [Eh]
    ---------------------

    Doubly Occupied:

       1A    -15.531799     2A     -1.161263     3A     -0.654151
       4A     -0.626585     5A     -0.432140

  @DF-RHF Final Energy:   -56.21265793858708

   => Energetics <=

    Nuclear Repulsion Energy =             12.3324228915086973
    One-Electron Energy =                -100.2782848639138678
    Two-Electron Energy =                  31.7332040338180903
    Total Energy =                        -56.2126579385870784
  Basis Set: (AUG-CC-PVTZ AUX)
    Blend: AUG-CC-PVTZ-RI
    Molecular point group: c1

    Geometry (in Angstrom), charge = 0, multiplicity = 1:

       Center              X                  Y                   Z               Mass
    ------------   -----------------  -----------------  -----------------  -----------------
         N           -0.004745089260    -0.002723058258    -0.066702831554    14.003074004430
         H           -0.739863889260    -0.424474758258     0.283474168446     1.007825032230
         H            0.807992910740    -0.474876058258     0.321661168446     1.007825032230
         H           -0.002199089260     0.937185941742     0.321657168446     1.007825032230

  Basis Set: AUG-CC-PVTZ
    Blend: AUG-CC-PVTZ
  Basis Set: (AUG-CC-PVTZ AUX)
    Blend: AUG-CC-PVTZ-JKFIT
	 Reference Energy          =     -56.2126579385870784 [Eh]
	 Singles Energy            =      -0.0000000000000000 [Eh]
	 Same-Spin Energy          =      -0.0558278227419261 [Eh]
	 Opposite-Spin Energy      =      -0.1999800696886026 [Eh]
	 Correlation Energy        =      -0.2558078924305287 [Eh]
	 Total Energy              =     -56.4684658310176104 [Eh]

	 ================> DF-SCS-MP2 Energies <==================
	-----------------------------------------------------------
	 SCS Same-Spin Scale       =       0.3333333333333333 [-]
	 SCS Opposite-Spin Scale   =       1.2000000000000000 [-]
	 SCS Same-Spin Energy      =      -0.0186092742473087 [Eh]
	 SCS Opposite-Spin Energy  =      -0.2399760836263231 [Eh]
	 SCS Correlation Energy    =      -0.2585853578736318 [Eh]
	 SCS Total Energy          =     -56.4712432964607132 [Eh]
	-----------------------------------------------------------

  Dipole Moment: [D]
     X:     0.0260      Y:     0.0149      Z:     1.5566     Total:     1.5569

*** Psi4 exiting successfully. Buy a developer a beer!
