                               Psi4 1.3.2 release

  ==> Input File <==

--------------------------------------------------------------------------
#psi4
#
memory 32 gb

molecule  {
0 1
  N        0.0000000    -0.0000010    -0.1165090
  H       -0.9756144    -0.5597296     0.3482291
  H        0.8127380    -0.4721540     0.2718550
  H        0.0025460     0.9399080     0.2718510
units angstrom
no_reorient  #important for SAPT in psi4, default
symmetry c1  #important for SAPT in psi4, default
}

set PROPERTIES_ORIGIN ["COM"]
properties('MP2/aug-cc-pvtz', properties = ['dipole'])
--------------------------------------------------------------------------

    Molecular point group: c1
  Charge       = 0
  Multiplicity = 1
  Basis Set: AUG-CC-PVTZ
    Blend: AUG-CC-PVTZ
  Basis Set: (AUG-CC-PVTZ AUX)
    Blend: AUG-CC-PVTZ-JKFIT

    Orbital Energies [Eh]
    ---------------------

    Doubly Occupied:

       1A    -15.564270     2A     -1.116116     3A     -0.627418
       4A     -0.574079     5A     -0.427850

  @DF-RHF Final Energy:   -56.19245097488076

   => Energetics <=

    Nuclear Repulsion Energy =             11.2440309578124804
    One-Electron Energy =                 -98.2534966892160497
    Two-Electron Energy =                  30.8170147565228056
    Total Energy =                        -56.1924509748807566
  Basis Set: (AUG-CC-PVTZ AUX)
    Blend: AUG-CC-PVTZ-RI
    Molecular point group: c1

    Geometry (in Angstrom), charge = 0, multiplicity = 1:

       Center              X                  Y                   Z               Mass
    ------------   -----------------  -----------------  -----------------  -----------------
         N            0.009490178520     0.005443985626    -0.073483861792    14.003074004430
         H           -0.966124221480    -0.554284614374     0.391254238208     1.007825032230
         H            0.822228178520    -0.466709014374     0.314880138208     1.007825032230
         H            0.012036178520     0.945352985626     0.314876138208     1.007825032230

  Basis Set: AUG-CC-PVTZ
    Blend: AUG-CC-PVTZ
  Basis Set: (AUG-CC-PVTZ AUX)
    Blend: AUG-CC-PVTZ-JKFIT
	 Reference Energy          =     -56.1924509748807637 [Eh]
	 Singles Energy            =      -0.0000000000000000 [Eh]
	 Same-Spin Energy          =      -0.0565932318815807 [Eh]
	 Opposite-Spin Energy      =      -0.2044884644783593 [Eh]
	 Correlation Energy        =      -0.2610816963599401 [Eh]
	 Total Energy              =     -56.4535326712407013 [Eh]

	 ================> DF-SCS-MP2 Energies <==================
	-----------------------------------------------------------
	 SCS Same-Spin Scale       =       0.3333333333333333 [-]
	 SCS Opposite-Spin Scale   =       1.2000000000000000 [-]
	 SCS Same-Spin Energy      =      -0.0188644106271936 [Eh]
	 SCS Opposite-Spin Energy  =      -0.2453861573740312 [Eh]
	 SCS Correlation Energy    =      -0.2642505680012248 [Eh]
	 SCS Total Energy          =     -56.4567015428819872 [Eh]
	-----------------------------------------------------------

  Dipole Moment: [D]
     X:    -0.0314      Y:    -0.0180      Z:     1.5120     Total:     1.5124

*** Psi4 exiting successfully. Buy a developer a beer!
