                               Psi4 1.3.2 release

  ==> Input File <==

--------------------------------------------------------------------------
#psi4
#
memory 32 gb

molecule  {
0 1
  N        0.0000000    -0.0000010    -0.1165090
  H       -0.8557067    -0.4227198     0.2347371
  H        0.8127380    -0.4721540     0.2718550
  H        0.0025460     0.9399080     0.2718510
units angstrom
no_reorient  #important for SAPT in psi4, default
symmetry c1  #important for SAPT in psi4, default
}

set PROPERTIES_ORIGIN ["COM"]
properties('MP2/aug-cc-pvtz', properties = ['dipole'])
--------------------------------------------------------------------------

    Molecular point group: c1
  Charge       = 0
  Multiplicity = 1
  Basis Set: AUG-CC-PVTZ
    Blend: AUG-CC-PVTZ
  Basis Set: (AUG-CC-PVTZ AUX)
    Blend: AUG-CC-PVTZ-JKFIT

    Orbital Energies [Eh]
    ---------------------

    Doubly Occupied:

       1A    -15.543113     2A     -1.139328     3A     -0.634351
       4A     -0.620185     5A     -0.427947

  @DF-RHF Final Energy:   -56.21954492647047

   => Energetics <=

    Nuclear Repulsion Energy =             11.8974985867172656
    One-Electron Energy =                 -99.5042399438136727
    Two-Electron Energy =                  31.3871964306259414
    Total Energy =                        -56.2195449264704692
  Basis Set: (AUG-CC-PVTZ AUX)
    Blend: AUG-CC-PVTZ-RI
    Molecular point group: c1

    Geometry (in Angstrom), charge = 0, multiplicity = 1:

       Center              X                  Y                   Z               Mass
    ------------   -----------------  -----------------  -----------------  -----------------
         N            0.002392675620    -0.002665814269    -0.066766113065    14.003074004430
         H           -0.853314024380    -0.425384614269     0.284479986935     1.007825032230
         H            0.815130675620    -0.474818814269     0.321597886935     1.007825032230
         H            0.004938675620     0.937243185731     0.321593886935     1.007825032230

  Basis Set: AUG-CC-PVTZ
    Blend: AUG-CC-PVTZ
  Basis Set: (AUG-CC-PVTZ AUX)
    Blend: AUG-CC-PVTZ-JKFIT
	 Reference Energy          =     -56.2195449264704692 [Eh]
	 Singles Energy            =      -0.0000000000000000 [Eh]
	 Same-Spin Energy          =      -0.0561211028975966 [Eh]
	 Opposite-Spin Energy      =      -0.2012515385139341 [Eh]
	 Correlation Energy        =      -0.2573726414115307 [Eh]
	 Total Energy              =     -56.4769175678819977 [Eh]

	 ================> DF-SCS-MP2 Energies <==================
	-----------------------------------------------------------
	 SCS Same-Spin Scale       =       0.3333333333333333 [-]
	 SCS Opposite-Spin Scale   =       1.2000000000000000 [-]
	 SCS Same-Spin Energy      =      -0.0187070342991989 [Eh]
	 SCS Opposite-Spin Energy  =      -0.2415018462167209 [Eh]
	 SCS Correlation Energy    =      -0.2602088805159198 [Eh]
	 SCS Total Energy          =     -56.4797538069863876 [Eh]
	-----------------------------------------------------------

  Dipole Moment: [D]
     X:    -0.0442      Y:     0.0229      Z:     1.5022     Total:     1.5030

*** Psi4 exiting successfully. Buy a developer a beer!
