                               Psi4 1.3.2 release

  ==> Input File <==

--------------------------------------------------------------------------
#psi4
#
memory 32 gb

molecule  {
0 1
  N        0.0000000    -0.0000010    -0.1165090
  H       -0.8257701    -0.4566940     0.2627460
  H        0.8127380    -0.4721540     0.2718550
  H        0.0025460     0.9399080     0.2718510
units angstrom
no_reorient  #important for SAPT in psi4, default
symmetry c1  #important for SAPT in psi4, default
}

set PROPERTIES_ORIGIN ["COM"]
properties('MP2/aug-cc-pvtz', properties = ['dipole'])
--------------------------------------------------------------------------

    Molecular point group: c1
  Charge       = 0
  Multiplicity = 1
  Basis Set: AUG-CC-PVTZ
    Blend: AUG-CC-PVTZ
  Basis Set: (AUG-CC-PVTZ AUX)
    Blend: AUG-CC-PVTZ-JKFIT

    Orbital Energies [Eh]
    ---------------------

    Doubly Occupied:

       1A    -15.543551     2A     -1.140304     3A     -0.628236
       4A     -0.624653     5A     -0.429795

  @DF-RHF Final Energy:   -56.21991470000152

   => Energetics <=

    Nuclear Repulsion Energy =             11.9008669756096968
    One-Electron Energy =                 -99.5084850189681731
    Two-Electron Energy =                  31.3877033433569466
    Total Energy =                        -56.2199147000015245
  Basis Set: (AUG-CC-PVTZ AUX)
    Blend: AUG-CC-PVTZ-RI
    Molecular point group: c1

    Geometry (in Angstrom), charge = 0, multiplicity = 1:

       Center              X                  Y                   Z               Mass
    ------------   -----------------  -----------------  -----------------  -----------------
         N            0.000620686788    -0.000654834298    -0.068423998663    14.003074004430
         H           -0.825149413212    -0.457347834298     0.310831001337     1.007825032230
         H            0.813358686788    -0.472807834298     0.319940001337     1.007825032230
         H            0.003166686788     0.939254165702     0.319936001337     1.007825032230

  Basis Set: AUG-CC-PVTZ
    Blend: AUG-CC-PVTZ
  Basis Set: (AUG-CC-PVTZ AUX)
    Blend: AUG-CC-PVTZ-JKFIT
	 Reference Energy          =     -56.2199147000015245 [Eh]
	 Singles Energy            =      -0.0000000000000000 [Eh]
	 Same-Spin Energy          =      -0.0561115947168864 [Eh]
	 Opposite-Spin Energy      =      -0.2012610002643965 [Eh]
	 Correlation Energy        =      -0.2573725949812829 [Eh]
	 Total Energy              =     -56.4772872949828084 [Eh]

	 ================> DF-SCS-MP2 Energies <==================
	-----------------------------------------------------------
	 SCS Same-Spin Scale       =       0.3333333333333333 [-]
	 SCS Opposite-Spin Scale   =       1.2000000000000000 [-]
	 SCS Same-Spin Energy      =      -0.0187038649056288 [Eh]
	 SCS Opposite-Spin Energy  =      -0.2415132003172757 [Eh]
	 SCS Correlation Energy    =      -0.2602170652229046 [Eh]
	 SCS Total Energy          =     -56.4801317652244279 [Eh]
	-----------------------------------------------------------

  Dipole Moment: [D]
     X:    -0.0114      Y:     0.0056      Z:     1.5316     Total:     1.5316

*** Psi4 exiting successfully. Buy a developer a beer!
