                               Psi4 1.3.2 release

  ==> Input File <==

--------------------------------------------------------------------------
#psi4
#
memory 32 gb

molecule  {
0 1
  N        0.0000000    -0.0000010    -0.1165090
  H       -0.6549536    -0.3757604     0.1954809
  H        0.8127380    -0.4721540     0.2718550
  H        0.0025460     0.9399080     0.2718510
units angstrom
no_reorient  #important for SAPT in psi4, default
symmetry c1  #important for SAPT in psi4, default
}

set PROPERTIES_ORIGIN ["COM"]
properties('MP2/aug-cc-pvtz', properties = ['dipole'])
--------------------------------------------------------------------------

    Molecular point group: c1
  Charge       = 0
  Multiplicity = 1
  Basis Set: AUG-CC-PVTZ
    Blend: AUG-CC-PVTZ
  Basis Set: (AUG-CC-PVTZ AUX)
    Blend: AUG-CC-PVTZ-JKFIT

    Orbital Energies [Eh]
    ---------------------

    Doubly Occupied:

       1A    -15.519167     2A     -1.188958     3A     -0.682160
       4A     -0.627661     5A     -0.434326

  @DF-RHF Final Energy:   -56.17452550022922

   => Energetics <=

    Nuclear Repulsion Energy =             12.8622496611187369
    One-Electron Energy =                -101.1690069100352218
    Two-Electron Energy =                  32.1322317486872677
    Total Energy =                        -56.1745255002292154
  Basis Set: (AUG-CC-PVTZ AUX)
    Blend: AUG-CC-PVTZ-RI
    Molecular point group: c1

    Geometry (in Angstrom), charge = 0, multiplicity = 1:

       Center              X                  Y                   Z               Mass
    ------------   -----------------  -----------------  -----------------  -----------------
         N           -0.009490178520    -0.005445406219    -0.064442484196    14.003074004430
         H           -0.664443778520    -0.381204806219     0.247547415804     1.007825032230
         H            0.803247821480    -0.477598406219     0.323921515804     1.007825032230
         H           -0.006944178520     0.934463593781     0.323917515804     1.007825032230

  Basis Set: AUG-CC-PVTZ
    Blend: AUG-CC-PVTZ
  Basis Set: (AUG-CC-PVTZ AUX)
    Blend: AUG-CC-PVTZ-JKFIT
	 Reference Energy          =     -56.1745255002292154 [Eh]
	 Singles Energy            =      -0.0000000000000000 [Eh]
	 Same-Spin Energy          =      -0.0556035338782289 [Eh]
	 Opposite-Spin Energy      =      -0.1990310678625503 [Eh]
	 Correlation Energy        =      -0.2546346017407792 [Eh]
	 Total Energy              =     -56.4291601019699911 [Eh]

	 ================> DF-SCS-MP2 Energies <==================
	-----------------------------------------------------------
	 SCS Same-Spin Scale       =       0.3333333333333333 [-]
	 SCS Opposite-Spin Scale   =       1.2000000000000000 [-]
	 SCS Same-Spin Energy      =      -0.0185345112927430 [Eh]
	 SCS Opposite-Spin Energy  =      -0.2388372814350603 [Eh]
	 SCS Correlation Energy    =      -0.2573717927278033 [Eh]
	 SCS Total Energy          =     -56.4318972929570180 [Eh]
	-----------------------------------------------------------

  Dipole Moment: [D]
     X:     0.0589      Y:     0.0338      Z:     1.5740     Total:     1.5754

*** Psi4 exiting successfully. Buy a developer a beer!
