                               Psi4 1.4a3.dev225

  ==> Input File <==

--------------------------------------------------------------------------
#psi4
#
memory 32 gb

molecule  {
0 1
  N        0.0000000    -0.0000010    -0.1165990
  H       -0.8375810    -0.4657165     0.2797089
  H        0.8062600    -0.4830070     0.2720660
  H        0.0151680     0.9397460     0.2720610
units angstrom
no_reorient  #important for SAPT in psi4, default
symmetry c1  #important for SAPT in psi4, default
}

set PROPERTIES_ORIGIN ["COM"]
properties('MP2/aug-cc-pvtz', properties = ['dipole'])
--------------------------------------------------------------------------

    Molecular point group: c1
  Charge       = 0
  Multiplicity = 1
  Basis Set: AUG-CC-PVTZ
    Blend: AUG-CC-PVTZ
  Basis Set: (AUG-CC-PVTZ AUX)
    Blend: AUG-CC-PVTZ-JKFIT

    Orbital Energies [Eh]
    ---------------------

    Doubly Occupied:

       1A    -15.545980     2A     -1.137286     3A     -0.626091
       4A     -0.620589     5A     -0.430159

  @DF-RHF Final Energy:   -56.21904492771751

   => Energetics <=

    Nuclear Repulsion Energy =             11.8249370837430376
    One-Electron Energy =                 -99.3677537521137424
    Two-Electron Energy =                  31.3237717406531928
    Total Energy =                        -56.2190449277175119
  Basis Set: (AUG-CC-PVTZ AUX)
    Blend: AUG-CC-PVTZ-RI
    Molecular point group: c1

    Geometry (in Angstrom), charge = 0, multiplicity = 1:

       Center              X                  Y                   Z               Mass
    ------------   -----------------  -----------------  -----------------  -----------------
         N            0.000956118451     0.000531213090    -0.069468957464    14.003074004430
         H           -0.836624881549    -0.465184286910     0.326838942536     1.007825032230
         H            0.807216118451    -0.482474786910     0.319196042536     1.007825032230
         H            0.016124118451     0.940278213090     0.319191042536     1.007825032230

  Basis Set: AUG-CC-PVTZ
    Blend: AUG-CC-PVTZ
  Basis Set: (AUG-CC-PVTZ AUX)
    Blend: AUG-CC-PVTZ-JKFIT
	 Reference Energy          =     -56.2190449277175119 [Eh]
	 Singles Energy            =      -0.0000000000000000 [Eh]
	 Same-Spin Energy          =      -0.0561722520679696 [Eh]
	 Opposite-Spin Energy      =      -0.2015641413044607 [Eh]
	 Correlation Energy        =      -0.2577363933724303 [Eh]
	 Total Energy              =     -56.4767813210899448 [Eh]

	 ================> DF-SCS-MP2 Energies <==================
	-----------------------------------------------------------
	 SCS Same-Spin Scale       =       0.3333333333333333 [-]
	 SCS Opposite-Spin Scale   =       1.2000000000000000 [-]
	 SCS Same-Spin Energy      =      -0.0187240840226565 [Eh]
	 SCS Opposite-Spin Energy  =      -0.2418769695653528 [Eh]
	 SCS Correlation Energy    =      -0.2606010535880094 [Eh]
	 SCS Total Energy          =     -56.4796459813055236 [Eh]
	-----------------------------------------------------------

  Dipole Moment: [D]
     X:    -0.0044      Y:    -0.0024      Z:     1.5389     Total:     1.5389

*** Psi4 exiting successfully. Buy a developer a beer!
