                               Psi4 1.3.2 release

  ==> Input File <==

--------------------------------------------------------------------------
#psi4
#
memory 32 gb

molecule  {
0 1
  N        0.0000000    -0.0000010    -0.1165090
  H       -0.8152840    -0.4677450     0.2718550
  H        0.8127380    -0.4721540     0.2718550
  H        0.0025460     0.9399080     0.2718510
units angstrom
no_reorient  #important for SAPT in psi4, default
symmetry c1  #important for SAPT in psi4, default
}

set PROPERTIES_ORIGIN ["COM"]
properties('MP2/aug-cc-pvtz', properties = ['dipole'])
--------------------------------------------------------------------------

    Molecular point group: c1
  Charge       = 0
  Multiplicity = 1
  Basis Set: AUG-CC-PVTZ
    Blend: AUG-CC-PVTZ
  Basis Set: (AUG-CC-PVTZ AUX)
    Blend: AUG-CC-PVTZ-JKFIT

    Orbital Energies [Eh]
    ---------------------

    Doubly Occupied:

       1A    -15.543694     2A     -1.140653     3A     -0.626150
       4A     -0.626148     5A     -0.430405

  @DF-RHF Final Energy:   -56.21992198219698

   => Energetics <=

    Nuclear Repulsion Energy =             11.9021254565647876
    One-Electron Energy =                 -99.5099938094664793
    Two-Electron Energy =                  31.3879463707047108
    Total Energy =                        -56.2199219821969791
  Basis Set: (AUG-CC-PVTZ AUX)
    Blend: AUG-CC-PVTZ-RI
    Molecular point group: c1

    Geometry (in Angstrom), charge = 0, multiplicity = 1:

       Center              X                  Y                   Z               Mass
    ------------   -----------------  -----------------  -----------------  -----------------
         N            0.000000000000    -0.000000710297    -0.068963172994    14.003074004430
         H           -0.815284000000    -0.467744710297     0.319400827006     1.007825032230
         H            0.812738000000    -0.472153710297     0.319400827006     1.007825032230
         H            0.002546000000     0.939908289703     0.319396827006     1.007825032230

  Basis Set: AUG-CC-PVTZ
    Blend: AUG-CC-PVTZ
  Basis Set: (AUG-CC-PVTZ AUX)
    Blend: AUG-CC-PVTZ-JKFIT
	 Reference Energy          =     -56.2199219821969791 [Eh]
	 Singles Energy            =      -0.0000000000000000 [Eh]
	 Same-Spin Energy          =      -0.0561136072990739 [Eh]
	 Opposite-Spin Energy      =      -0.2012721394147909 [Eh]
	 Correlation Energy        =      -0.2573857467138648 [Eh]
	 Total Energy              =     -56.4773077289108443 [Eh]

	 ================> DF-SCS-MP2 Energies <==================
	-----------------------------------------------------------
	 SCS Same-Spin Scale       =       0.3333333333333333 [-]
	 SCS Opposite-Spin Scale   =       1.2000000000000000 [-]
	 SCS Same-Spin Energy      =      -0.0187045357663580 [Eh]
	 SCS Opposite-Spin Energy  =      -0.2415265672977490 [Eh]
	 SCS Correlation Energy    =      -0.2602311030641070 [Eh]
	 SCS Total Energy          =     -56.4801530852610867 [Eh]
	-----------------------------------------------------------

  Dipole Moment: [D]
     X:     0.0000      Y:     0.0000      Z:     1.5411     Total:     1.5411

*** Psi4 exiting successfully. Buy a developer a beer!
