                               Psi4 1.3.2 release

  ==> Input File <==

--------------------------------------------------------------------------
#psi4
#
memory 32 gb

molecule  {
0 1
  N        0.0000000    -0.0000010    -0.1165090
  H       -0.8045496    -0.4786536     0.2808457
  H        0.8127380    -0.4721540     0.2718550
  H        0.0025460     0.9399080     0.2718510
units angstrom
no_reorient  #important for SAPT in psi4, default
symmetry c1  #important for SAPT in psi4, default
}

set PROPERTIES_ORIGIN ["COM"]
properties('MP2/aug-cc-pvtz', properties = ['dipole'])
--------------------------------------------------------------------------

    Molecular point group: c1
  Charge       = 0
  Multiplicity = 1
  Basis Set: AUG-CC-PVTZ
    Blend: AUG-CC-PVTZ
  Basis Set: (AUG-CC-PVTZ AUX)
    Blend: AUG-CC-PVTZ-JKFIT

    Orbital Energies [Eh]
    ---------------------

    Doubly Occupied:

       1A    -15.543836     2A     -1.141015     3A     -0.627645
       4A     -0.624041     5A     -0.431013

  @DF-RHF Final Energy:   -56.21987042779408

   => Energetics <=

    Nuclear Repulsion Energy =             11.9034534316023954
    One-Electron Energy =                 -99.5115495392247595
    Two-Electron Energy =                  31.3882256798282739
    Total Energy =                        -56.2198704277940848
  Basis Set: (AUG-CC-PVTZ AUX)
    Blend: AUG-CC-PVTZ-RI
    Molecular point group: c1

    Geometry (in Angstrom), charge = 0, multiplicity = 1:

       Center              X                  Y                   Z               Mass
    ------------   -----------------  -----------------  -----------------  -----------------
         N           -0.000635384009     0.000644984852    -0.069495344984    14.003074004430
         H           -0.805184984009    -0.478007615148     0.327859355016     1.007825032230
         H            0.812102615991    -0.471508015148     0.318868655016     1.007825032230
         H            0.001910615991     0.940553984852     0.318864655016     1.007825032230

  Basis Set: AUG-CC-PVTZ
    Blend: AUG-CC-PVTZ
  Basis Set: (AUG-CC-PVTZ AUX)
    Blend: AUG-CC-PVTZ-JKFIT
	 Reference Energy          =     -56.2198704277940848 [Eh]
	 Singles Energy            =      -0.0000000000000000 [Eh]
	 Same-Spin Energy          =      -0.0561182430925353 [Eh]
	 Opposite-Spin Energy      =      -0.2012873836735108 [Eh]
	 Correlation Energy        =      -0.2574056267660461 [Eh]
	 Total Energy              =     -56.4772760545601287 [Eh]

	 ================> DF-SCS-MP2 Energies <==================
	-----------------------------------------------------------
	 SCS Same-Spin Scale       =       0.3333333333333333 [-]
	 SCS Opposite-Spin Scale   =       1.2000000000000000 [-]
	 SCS Same-Spin Energy      =      -0.0187060810308451 [Eh]
	 SCS Opposite-Spin Energy  =      -0.2415448604082129 [Eh]
	 SCS Correlation Energy    =      -0.2602509414390580 [Eh]
	 SCS Total Energy          =     -56.4801213692331459 [Eh]
	-----------------------------------------------------------

  Dipole Moment: [D]
     X:     0.0116      Y:    -0.0054      Z:     1.5504     Total:     1.5505

*** Psi4 exiting successfully. Buy a developer a beer!
