                               Psi4 1.4a3.dev225

  ==> Input File <==

--------------------------------------------------------------------------
#psi4
#
memory 32 gb

molecule  {
0 1
  N        0.0000000    -0.0000010    -0.1165990
  H       -0.8618105    -0.4791886     0.2911733
  H        0.8062600    -0.4830070     0.2720660
  H        0.0151680     0.9397460     0.2720610
units angstrom
no_reorient  #important for SAPT in psi4, default
symmetry c1  #important for SAPT in psi4, default
}

set PROPERTIES_ORIGIN ["COM"]
properties('MP2/aug-cc-pvtz', properties = ['dipole'])
--------------------------------------------------------------------------

    Molecular point group: c1
  Charge       = 0
  Multiplicity = 1
  Basis Set: AUG-CC-PVTZ
    Blend: AUG-CC-PVTZ
  Basis Set: (AUG-CC-PVTZ AUX)
    Blend: AUG-CC-PVTZ-JKFIT

    Orbital Energies [Eh]
    ---------------------

    Doubly Occupied:

       1A    -15.549273     2A     -1.132660     3A     -0.626138
       4A     -0.612423     5A     -0.429736

  @DF-RHF Final Energy:   -56.21669253211920

   => Energetics <=

    Nuclear Repulsion Energy =             11.7151627339307467
    One-Electron Energy =                 -99.1632499345303984
    Two-Electron Energy =                  31.2313946684804442
    Total Energy =                        -56.2166925321191968
  Basis Set: (AUG-CC-PVTZ AUX)
    Blend: AUG-CC-PVTZ-RI
    Molecular point group: c1

    Geometry (in Angstrom), charge = 0, multiplicity = 1:

       Center              X                  Y                   Z               Mass
    ------------   -----------------  -----------------  -----------------  -----------------
         N            0.002390296126     0.001328645355    -0.070147551185    14.003074004430
         H           -0.859420203874    -0.477858954645     0.337624748815     1.007825032230
         H            0.808650296126    -0.481677354645     0.318517448815     1.007825032230
         H            0.017558296126     0.941075645355     0.318512448815     1.007825032230

  Basis Set: AUG-CC-PVTZ
    Blend: AUG-CC-PVTZ
  Basis Set: (AUG-CC-PVTZ AUX)
    Blend: AUG-CC-PVTZ-JKFIT
	 Reference Energy          =     -56.2166925321191968 [Eh]
	 Singles Energy            =      -0.0000000000000000 [Eh]
	 Same-Spin Energy          =      -0.0562565914650198 [Eh]
	 Opposite-Spin Energy      =      -0.2020115687774808 [Eh]
	 Correlation Energy        =      -0.2582681602425006 [Eh]
	 Total Energy              =     -56.4749606923616980 [Eh]

	 ================> DF-SCS-MP2 Energies <==================
	-----------------------------------------------------------
	 SCS Same-Spin Scale       =       0.3333333333333333 [-]
	 SCS Opposite-Spin Scale   =       1.2000000000000000 [-]
	 SCS Same-Spin Energy      =      -0.0187521971550066 [Eh]
	 SCS Opposite-Spin Energy  =      -0.2424138825329770 [Eh]
	 SCS Correlation Energy    =      -0.2611660796879836 [Eh]
	 SCS Total Energy          =     -56.4778586118071786 [Eh]
	-----------------------------------------------------------

  Dipole Moment: [D]
     X:    -0.0105      Y:    -0.0058      Z:     1.5345     Total:     1.5345

*** Psi4 exiting successfully. Buy a developer a beer!
