                               Psi4 1.3.2 release

  ==> Input File <==

--------------------------------------------------------------------------
#psi4
#
memory 32 gb

molecule  {
0 1
  N        0.0000000    -0.0000010    -0.1165090
  H       -0.7935701    -0.4894163     0.2897154
  H        0.8127380    -0.4721540     0.2718550
  H        0.0025460     0.9399080     0.2718510
units angstrom
no_reorient  #important for SAPT in psi4, default
symmetry c1  #important for SAPT in psi4, default
}

set PROPERTIES_ORIGIN ["COM"]
properties('MP2/aug-cc-pvtz', properties = ['dipole'])
--------------------------------------------------------------------------

    Molecular point group: c1
  Charge       = 0
  Multiplicity = 1
  Basis Set: AUG-CC-PVTZ
    Blend: AUG-CC-PVTZ
  Basis Set: (AUG-CC-PVTZ AUX)
    Blend: AUG-CC-PVTZ-JKFIT

    Orbital Energies [Eh]
    ---------------------

    Doubly Occupied:

       1A    -15.543975     2A     -1.141391     3A     -0.629144
       4A     -0.621908     5A     -0.431617

  @DF-RHF Final Energy:   -56.21975955886885

   => Energetics <=

    Nuclear Repulsion Energy =             11.9048526954437861
    One-Electron Energy =                 -99.5131536624908648
    Two-Electron Energy =                  31.3885414081782343
    Total Energy =                        -56.2197595588688515
  Basis Set: (AUG-CC-PVTZ AUX)
    Blend: AUG-CC-PVTZ-RI
    Molecular point group: c1

    Geometry (in Angstrom), charge = 0, multiplicity = 1:

       Center              X                  Y                   Z               Mass
    ------------   -----------------  -----------------  -----------------  -----------------
         N           -0.001285275826     0.001282043977    -0.070020354816    14.003074004430
         H           -0.794855375826    -0.488133256023     0.336204045184     1.007825032230
         H            0.811452724174    -0.470870956023     0.318343645184     1.007825032230
         H            0.001260724174     0.941191043977     0.318339645184     1.007825032230

  Basis Set: AUG-CC-PVTZ
    Blend: AUG-CC-PVTZ
  Basis Set: (AUG-CC-PVTZ AUX)
    Blend: AUG-CC-PVTZ-JKFIT
	 Reference Energy          =     -56.2197595588688515 [Eh]
	 Singles Energy            =      -0.0000000000000000 [Eh]
	 Same-Spin Energy          =      -0.0561255205580645 [Eh]
	 Opposite-Spin Energy      =      -0.2013067887758442 [Eh]
	 Correlation Energy        =      -0.2574323093339086 [Eh]
	 Total Energy              =     -56.4771918682027589 [Eh]

	 ================> DF-SCS-MP2 Energies <==================
	-----------------------------------------------------------
	 SCS Same-Spin Scale       =       0.3333333333333333 [-]
	 SCS Opposite-Spin Scale   =       1.2000000000000000 [-]
	 SCS Same-Spin Energy      =      -0.0187085068526882 [Eh]
	 SCS Opposite-Spin Energy  =      -0.2415681465310130 [Eh]
	 SCS Correlation Energy    =      -0.2602766533837012 [Eh]
	 SCS Total Energy          =     -56.4800362122525499 [Eh]
	-----------------------------------------------------------

  Dipole Moment: [D]
     X:     0.0234      Y:    -0.0107      Z:     1.5596     Total:     1.5598

*** Psi4 exiting successfully. Buy a developer a beer!
