                               Psi4 1.3.2 release

  ==> Input File <==

--------------------------------------------------------------------------
#psi4
#
memory 32 gb

molecule  {
0 1
  N        0.0000000    -0.0000010    -0.1165090
  H       -0.8743663    -0.3994209     0.2155248
  H        0.8127380    -0.4721540     0.2718550
  H        0.0025460     0.9399080     0.2718510
units angstrom
no_reorient  #important for SAPT in psi4, default
symmetry c1  #important for SAPT in psi4, default
}

set PROPERTIES_ORIGIN ["COM"]
properties('MP2/aug-cc-pvtz', properties = ['dipole'])
--------------------------------------------------------------------------

    Molecular point group: c1
  Charge       = 0
  Multiplicity = 1
  Basis Set: AUG-CC-PVTZ
    Blend: AUG-CC-PVTZ
  Basis Set: (AUG-CC-PVTZ AUX)
    Blend: AUG-CC-PVTZ-JKFIT

    Orbital Energies [Eh]
    ---------------------

    Doubly Occupied:

       1A    -15.542813     2A     -1.138735     3A     -0.638308
       4A     -0.617217     5A     -0.426701

  @DF-RHF Final Energy:   -56.21901385990074

   => Energetics <=

    Nuclear Repulsion Energy =             11.8955797694419303
    One-Electron Energy =                 -99.5016389428202643
    Two-Electron Energy =                  31.3870453134775858
    Total Energy =                        -56.2190138599007412
  Basis Set: (AUG-CC-PVTZ AUX)
    Blend: AUG-CC-PVTZ-RI
    Molecular point group: c1

    Geometry (in Angstrom), charge = 0, multiplicity = 1:

       Center              X                  Y                   Z               Mass
    ------------   -----------------  -----------------  -----------------  -----------------
         N            0.003497163198    -0.004044908441    -0.065628910408    14.003074004430
         H           -0.870869136802    -0.403464808441     0.266404889592     1.007825032230
         H            0.816235163198    -0.476197908441     0.322735089592     1.007825032230
         H            0.006043163198     0.935864091559     0.322731089592     1.007825032230

  Basis Set: AUG-CC-PVTZ
    Blend: AUG-CC-PVTZ
  Basis Set: (AUG-CC-PVTZ AUX)
    Blend: AUG-CC-PVTZ-JKFIT
	 Reference Energy          =     -56.2190138599007412 [Eh]
	 Singles Energy            =      -0.0000000000000000 [Eh]
	 Same-Spin Energy          =      -0.0561402034110121 [Eh]
	 Opposite-Spin Energy      =      -0.2012644636236551 [Eh]
	 Correlation Energy        =      -0.2574046670346672 [Eh]
	 Total Energy              =     -56.4764185269354115 [Eh]

	 ================> DF-SCS-MP2 Energies <==================
	-----------------------------------------------------------
	 SCS Same-Spin Scale       =       0.3333333333333333 [-]
	 SCS Opposite-Spin Scale   =       1.2000000000000000 [-]
	 SCS Same-Spin Energy      =      -0.0187134011370040 [Eh]
	 SCS Opposite-Spin Energy  =      -0.2415173563483861 [Eh]
	 SCS Correlation Energy    =      -0.2602307574853902 [Eh]
	 SCS Total Energy          =     -56.4792446173861293 [Eh]
	-----------------------------------------------------------

  Dipole Moment: [D]
     X:    -0.0649      Y:     0.0351      Z:     1.4817     Total:     1.4836

*** Psi4 exiting successfully. Buy a developer a beer!
