                               Psi4 1.3.2 release

  ==> Input File <==

--------------------------------------------------------------------------
#psi4
#
memory 32 gb

molecule  {
0 1
  N        0.0000000    -0.0000010    -0.1165090
  H       -0.7708893    -0.5104914     0.3070808
  H        0.8127380    -0.4721540     0.2718550
  H        0.0025460     0.9399080     0.2718510
units angstrom
no_reorient  #important for SAPT in psi4, default
symmetry c1  #important for SAPT in psi4, default
}

set PROPERTIES_ORIGIN ["COM"]
properties('MP2/aug-cc-pvtz', properties = ['dipole'])
--------------------------------------------------------------------------

    Molecular point group: c1
  Charge       = 0
  Multiplicity = 1
  Basis Set: AUG-CC-PVTZ
    Blend: AUG-CC-PVTZ
  Basis Set: (AUG-CC-PVTZ AUX)
    Blend: AUG-CC-PVTZ-JKFIT

    Orbital Energies [Eh]
    ---------------------

    Doubly Occupied:

       1A    -15.544250     2A     -1.142181     3A     -0.632151
       4A     -0.617573     5A     -0.432818

  @DF-RHF Final Energy:   -56.21935803194743

   => Energetics <=

    Nuclear Repulsion Energy =             11.9078698738416726
    One-Electron Energy =                 -99.5165084041720434
    Two-Electron Energy =                  31.3892804983829343
    Total Energy =                        -56.2193580319474364
  Basis Set: (AUG-CC-PVTZ AUX)
    Blend: AUG-CC-PVTZ-RI
    Molecular point group: c1

    Geometry (in Angstrom), charge = 0, multiplicity = 1:

       Center              X                  Y                   Z               Mass
    ------------   -----------------  -----------------  -----------------  -----------------
         N           -0.002627783804     0.002529508346    -0.071048236903    14.003074004430
         H           -0.773517083804    -0.507960891654     0.352541563097     1.007825032230
         H            0.810110216196    -0.469623491654     0.317315763097     1.007825032230
         H           -0.000081783804     0.942438508346     0.317311763097     1.007825032230

  Basis Set: AUG-CC-PVTZ
    Blend: AUG-CC-PVTZ
  Basis Set: (AUG-CC-PVTZ AUX)
    Blend: AUG-CC-PVTZ-JKFIT
	 Reference Energy          =     -56.2193580319474293 [Eh]
	 Singles Energy            =      -0.0000000000000000 [Eh]
	 Same-Spin Energy          =      -0.0561480739684514 [Eh]
	 Opposite-Spin Energy      =      -0.2013582691175130 [Eh]
	 Correlation Energy        =      -0.2575063430859644 [Eh]
	 Total Energy              =     -56.4768643750333936 [Eh]

	 ================> DF-SCS-MP2 Energies <==================
	-----------------------------------------------------------
	 SCS Same-Spin Scale       =       0.3333333333333333 [-]
	 SCS Opposite-Spin Scale   =       1.2000000000000000 [-]
	 SCS Same-Spin Energy      =      -0.0187160246561505 [Eh]
	 SCS Opposite-Spin Energy  =      -0.2416299229410156 [Eh]
	 SCS Correlation Energy    =      -0.2603459475971661 [Eh]
	 SCS Total Energy          =     -56.4797039795445954 [Eh]
	-----------------------------------------------------------

  Dipole Moment: [D]
     X:     0.0478      Y:    -0.0210      Z:     1.5775     Total:     1.5783

*** Psi4 exiting successfully. Buy a developer a beer!
