                               Psi4 1.3.2 release

  ==> Input File <==

--------------------------------------------------------------------------
#psi4
#
memory 32 gb

molecule  {
0 1
  N        0.5504050     0.2888980     0.0000030
  N        1.4110960    -0.7583650     0.0000030
  N       -1.6001010     1.1626980     0.0000020
  C       -0.8451450     0.0599490     0.0000010
  C        2.6332390    -0.1936150     0.0000010
  C        1.1883050     1.5005680    -0.0000010
  C        2.5380190     1.2166580    -0.0000050
  C       -1.3422810    -1.2473470    -0.0000020
  C        3.8546558    -1.0548243    -0.1000000
  C       -2.7247750    -1.4016960    -0.0000020
  C       -3.5411930    -0.2684380    -0.0000010
  C       -2.9334870     0.9852400     0.0000010
  H        0.6241030     2.4207830    -0.0000050
  H        3.3483500     1.9335830    -0.0000020
  H       -0.6580170    -2.0875250    -0.0000030
  H        4.4729550    -0.8692260     0.8837650
  H        3.5568860    -2.1057260    -0.0000080
  H        4.4729610    -0.8692120    -0.8837580
  H       -3.1593860    -2.3981240    -0.0000040
  H       -4.6237380    -0.3528270    -0.0000020
  H       -3.5279520     1.8966820     0.0000020
units angstrom
no_reorient  #important for SAPT in psi4, default
symmetry c1  #important for SAPT in psi4, default
}

set PROPERTIES_ORIGIN ["COM"]
properties('MP2/aug-cc-pvtz', properties = ['dipole'])
--------------------------------------------------------------------------

    Molecular point group: c1
  Charge       = 0
  Multiplicity = 1
  Basis Set: AUG-CC-PVTZ
    Blend: AUG-CC-PVTZ
  Basis Set: (AUG-CC-PVTZ AUX)
    Blend: AUG-CC-PVTZ-JKFIT

    Orbital Energies [Eh]
    ---------------------

    Doubly Occupied:

       1A    -15.644476     2A    -15.582405     3A    -15.571034
       4A    -11.329361     5A    -11.285199     6A    -11.278035
       7A    -11.267858     8A    -11.265815     9A    -11.241366
      10A    -11.240514    11A    -11.227502    12A    -11.221663
      13A     -1.382866    14A     -1.268792    15A     -1.128951
      16A     -1.093788    17A     -1.060418    18A     -1.024147
      19A     -0.963616    20A     -0.875523    21A     -0.860256
      22A     -0.795774    23A     -0.760543    24A     -0.741247
      25A     -0.680960    26A     -0.664203    27A     -0.637684
      28A     -0.635656    29A     -0.608900    30A     -0.593950
      31A     -0.584078    32A     -0.573202    33A     -0.546823
      34A     -0.536454    35A     -0.532090    36A     -0.516613
      37A     -0.458463    38A     -0.433936    39A     -0.400536
      40A     -0.381546    41A     -0.345892    42A     -0.309890

  @DF-RHF Final Energy:  -509.54125279123485

   => Energetics <=

    Nuclear Repulsion Energy =            639.7133842880817838
    One-Electron Energy =               -1959.4052278851941082
    Two-Electron Energy =                 810.1505908058775276
    Total Energy =                       -509.5412527912349105
  Basis Set: (AUG-CC-PVTZ AUX)
    Blend: AUG-CC-PVTZ-RI
    Molecular point group: c1

    Geometry (in Angstrom), charge = 0, multiplicity = 1:

       Center              X                  Y                   Z               Mass
    ------------   -----------------  -----------------  -----------------  -----------------
         N            0.578502953872     0.273718923667     0.007546385424    14.003074004430
         N            1.439193953872    -0.773544076333     0.007546385424    14.003074004430
         N           -1.572003046128     1.147518923667     0.007545385424    14.003074004430
         C           -0.817047046128     0.044769923667     0.007544385424    12.000000000000
         C            2.661336953872    -0.208794076333     0.007544385424    12.000000000000
         C            1.216402953872     1.485388923667     0.007542385424    12.000000000000
         C            2.566116953872     1.201478923667     0.007538385424    12.000000000000
         C           -1.314183046128    -1.262526076333     0.007541385424    12.000000000000
         C            3.882753753872    -1.070003376333    -0.092456614576    12.000000000000
         C           -2.696677046128    -1.416875076333     0.007541385424    12.000000000000
         C           -3.513095046128    -0.283617076333     0.007542385424    12.000000000000
         C           -2.905389046128     0.970060923667     0.007544385424    12.000000000000
         H            0.652200953872     2.405603923667     0.007538385424     1.007825032230
         H            3.376447953872     1.918403923667     0.007541385424     1.007825032230
         H           -0.629919046128    -2.102704076333     0.007540385424     1.007825032230
         H            4.501052953872    -0.884405076333     0.891308385424     1.007825032230
         H            3.584983953872    -2.120905076333     0.007535385424     1.007825032230
         H            4.501058953872    -0.884391076333    -0.876214614576     1.007825032230
         H           -3.131288046128    -2.413303076333     0.007539385424     1.007825032230
         H           -4.595640046128    -0.368006076333     0.007541385424     1.007825032230
         H           -3.499854046128     1.881502923667     0.007545385424     1.007825032230

  Basis Set: AUG-CC-PVTZ
    Blend: AUG-CC-PVTZ
  Basis Set: (AUG-CC-PVTZ AUX)
    Blend: AUG-CC-PVTZ-JKFIT
	 Reference Energy          =    -509.5412527912348537 [Eh]
	 Singles Energy            =      -0.0000000000000000 [Eh]
	 Same-Spin Energy          =      -0.5649278206217452 [Eh]
	 Opposite-Spin Energy      =      -1.7210304883920184 [Eh]
	 Correlation Energy        =      -2.2859583090137638 [Eh]
	 Total Energy              =    -511.8272111002486326 [Eh]

	 ================> DF-SCS-MP2 Energies <==================
	-----------------------------------------------------------
	 SCS Same-Spin Scale       =       0.3333333333333333 [-]
	 SCS Opposite-Spin Scale   =       1.2000000000000000 [-]
	 SCS Same-Spin Energy      =      -0.1883092735405817 [Eh]
	 SCS Opposite-Spin Energy  =      -2.0652365860704220 [Eh]
	 SCS Correlation Energy    =      -2.2535458596110036 [Eh]
	 SCS Total Energy          =    -511.7947986508458484 [Eh]
	-----------------------------------------------------------

  Dipole Moment: [D]
     X:    -1.1746      Y:    -0.3489      Z:    -0.0557     Total:     1.2266

*** Psi4 exiting successfully. Buy a developer a beer!
