                               Psi4 1.3.2 release

  ==> Input File <==

--------------------------------------------------------------------------
#psi4
#
memory 32 gb

molecule  {
0 1
  N        0.5504050     0.2888980     0.0000030
  N        1.4110960    -0.7583650     0.0000030
  N       -1.6001010     1.1626980     0.0000020
  C       -0.8451450     0.0599490     0.0000010
  C        2.6332390    -0.1936150     0.0000010
  C        1.1883050     1.5005680    -0.0000010
  C        2.5380190     1.2166580    -0.0000050
  C       -1.3422810    -1.2473470    -0.0000020
  C        3.8546558    -1.0548245    -0.1500000
  C       -2.7247750    -1.4016960    -0.0000020
  C       -3.5411930    -0.2684380    -0.0000010
  C       -2.9334870     0.9852400     0.0000010
  H        0.6241030     2.4207830    -0.0000050
  H        3.3483500     1.9335830    -0.0000020
  H       -0.6580170    -2.0875250    -0.0000030
  H        4.4729550    -0.8692260     0.8837650
  H        3.5568860    -2.1057260    -0.0000080
  H        4.4729610    -0.8692120    -0.8837580
  H       -3.1593860    -2.3981240    -0.0000040
  H       -4.6237380    -0.3528270    -0.0000020
  H       -3.5279520     1.8966820     0.0000020
units angstrom
no_reorient  #important for SAPT in psi4, default
symmetry c1  #important for SAPT in psi4, default
}

set PROPERTIES_ORIGIN ["COM"]
properties('MP2/aug-cc-pvtz', properties = ['dipole'])
--------------------------------------------------------------------------

    Molecular point group: c1
  Charge       = 0
  Multiplicity = 1
  Basis Set: AUG-CC-PVTZ
    Blend: AUG-CC-PVTZ
  Basis Set: (AUG-CC-PVTZ AUX)
    Blend: AUG-CC-PVTZ-JKFIT

    Orbital Energies [Eh]
    ---------------------

    Doubly Occupied:

       1A    -15.644728     2A    -15.582646     3A    -15.571152
       4A    -11.329486     5A    -11.285298     6A    -11.278210
       7A    -11.268927     8A    -11.265913     9A    -11.241480
      10A    -11.240614    11A    -11.229407    12A    -11.221819
      13A     -1.383097    14A     -1.268919    15A     -1.129056
      16A     -1.093897    17A     -1.060600    18A     -1.024335
      19A     -0.964646    20A     -0.875647    21A     -0.860734
      22A     -0.796079    23A     -0.761918    24A     -0.741647
      25A     -0.681616    26A     -0.664398    27A     -0.637858
      28A     -0.636207    29A     -0.613153    30A     -0.595964
      31A     -0.588096    32A     -0.573290    33A     -0.546312
      34A     -0.536757    35A     -0.530795    36A     -0.506141
      37A     -0.458662    38A     -0.434054    39A     -0.400022
      40A     -0.381367    41A     -0.345948    42A     -0.309764

  @DF-RHF Final Energy:  -509.52823021469771

   => Energetics <=

    Nuclear Repulsion Energy =            639.6656773709618165
    One-Electron Energy =               -1959.2664994342565024
    Two-Electron Energy =                 810.0725918485970851
    Total Energy =                       -509.5282302146977145
  Basis Set: (AUG-CC-PVTZ AUX)
    Blend: AUG-CC-PVTZ-RI
    Molecular point group: c1

    Geometry (in Angstrom), charge = 0, multiplicity = 1:

       Center              X                  Y                   Z               Mass
    ------------   -----------------  -----------------  -----------------  -----------------
         N            0.578502953872     0.273718938754     0.011318080988    14.003074004430
         N            1.439193953872    -0.773544061246     0.011318080988    14.003074004430
         N           -1.572003046128     1.147518938754     0.011317080988    14.003074004430
         C           -0.817047046128     0.044769938754     0.011316080988    12.000000000000
         C            2.661336953872    -0.208794061246     0.011316080988    12.000000000000
         C            1.216402953872     1.485388938754     0.011314080988    12.000000000000
         C            2.566116953872     1.201478938754     0.011310080988    12.000000000000
         C           -1.314183046128    -1.262526061246     0.011313080988    12.000000000000
         C            3.882753753872    -1.070003561246    -0.138684919012    12.000000000000
         C           -2.696677046128    -1.416875061246     0.011313080988    12.000000000000
         C           -3.513095046128    -0.283617061246     0.011314080988    12.000000000000
         C           -2.905389046128     0.970060938754     0.011316080988    12.000000000000
         H            0.652200953872     2.405603938754     0.011310080988     1.007825032230
         H            3.376447953872     1.918403938754     0.011313080988     1.007825032230
         H           -0.629919046128    -2.102704061246     0.011312080988     1.007825032230
         H            4.501052953872    -0.884405061246     0.895080080988     1.007825032230
         H            3.584983953872    -2.120905061246     0.011307080988     1.007825032230
         H            4.501058953872    -0.884391061246    -0.872442919012     1.007825032230
         H           -3.131288046128    -2.413303061246     0.011311080988     1.007825032230
         H           -4.595640046128    -0.368006061246     0.011313080988     1.007825032230
         H           -3.499854046128     1.881502938754     0.011317080988     1.007825032230

  Basis Set: AUG-CC-PVTZ
    Blend: AUG-CC-PVTZ
  Basis Set: (AUG-CC-PVTZ AUX)
    Blend: AUG-CC-PVTZ-JKFIT
	 Reference Energy          =    -509.5282302146977145 [Eh]
	 Singles Energy            =      -0.0000000000000000 [Eh]
	 Same-Spin Energy          =      -0.5650799566124785 [Eh]
	 Opposite-Spin Energy      =      -1.7215717658747369 [Eh]
	 Correlation Energy        =      -2.2866517224872154 [Eh]
	 Total Energy              =    -511.8148819371849072 [Eh]

	 ================> DF-SCS-MP2 Energies <==================
	-----------------------------------------------------------
	 SCS Same-Spin Scale       =       0.3333333333333333 [-]
	 SCS Opposite-Spin Scale   =       1.2000000000000000 [-]
	 SCS Same-Spin Energy      =      -0.1883599855374928 [Eh]
	 SCS Opposite-Spin Energy  =      -2.0658861190496842 [Eh]
	 SCS Correlation Energy    =      -2.2542461045871769 [Eh]
	 SCS Total Energy          =    -511.7824763192849105 [Eh]
	-----------------------------------------------------------

  Dipole Moment: [D]
     X:    -1.2021      Y:    -0.3437      Z:    -0.0818     Total:     1.2530

*** Psi4 exiting successfully. Buy a developer a beer!
