                               Psi4 1.3.2 release

  ==> Input File <==

--------------------------------------------------------------------------
#psi4
#
memory 32 gb

molecule  {
0 1
  N        0.5504050     0.2888980     0.0000030
  N        1.4110960    -0.7583650     0.0000030
  N       -1.6001010     1.1626980     0.0000020
  C       -0.8451450     0.0599490     0.0000010
  C        2.6332390    -0.1936150     0.0000010
  C        1.1883050     1.5005680    -0.0000010
  C        2.5380190     1.2166580    -0.0000050
  C       -1.3422811    -1.2473471     0.0499980
  C        3.8546560    -1.0548240     0.0000000
  C       -2.7247750    -1.4016960    -0.0000020
  C       -3.5411930    -0.2684380    -0.0000010
  C       -2.9334870     0.9852400     0.0000010
  H        0.6241030     2.4207830    -0.0000050
  H        3.3483500     1.9335830    -0.0000020
  H       -0.6580170    -2.0875250    -0.0000030
  H        4.4729550    -0.8692260     0.8837650
  H        3.5568860    -2.1057260    -0.0000080
  H        4.4729610    -0.8692120    -0.8837580
  H       -3.1593860    -2.3981240    -0.0000040
  H       -4.6237380    -0.3528270    -0.0000020
  H       -3.5279520     1.8966820     0.0000020
units angstrom
no_reorient  #important for SAPT in psi4, default
symmetry c1  #important for SAPT in psi4, default
}

set PROPERTIES_ORIGIN ["COM"]
properties('MP2/aug-cc-pvtz', properties = ['dipole'])
--------------------------------------------------------------------------

    Molecular point group: c1
  Charge       = 0
  Multiplicity = 1
  Basis Set: AUG-CC-PVTZ
    Blend: AUG-CC-PVTZ
  Basis Set: (AUG-CC-PVTZ AUX)
    Blend: AUG-CC-PVTZ-JKFIT

    Orbital Energies [Eh]
    ---------------------

    Doubly Occupied:

       1A    -15.644291     2A    -15.582213     3A    -15.570909
       4A    -11.329441     5A    -11.285232     6A    -11.277913
       7A    -11.267013     8A    -11.265914     9A    -11.241446
      10A    -11.240400    11A    -11.225983    12A    -11.221559
      13A     -1.382691    14A     -1.268681    15A     -1.128879
      16A     -1.093555    17A     -1.060273    18A     -1.023947
      19A     -0.962808    20A     -0.875318    21A     -0.859838
      22A     -0.795515    23A     -0.759471    24A     -0.740875
      25A     -0.680303    26A     -0.663872    27A     -0.637600
      28A     -0.635070    29A     -0.606326    30A     -0.592648
      31A     -0.574697    32A     -0.572913    33A     -0.549115
      34A     -0.535515    35A     -0.533935    36A     -0.527571
      37A     -0.458279    38A     -0.433805    39A     -0.400849
      40A     -0.381631    41A     -0.345849    42A     -0.310013

  @DF-RHF Final Energy:  -509.55084207622565

   => Energetics <=

    Nuclear Repulsion Energy =            639.7211939731289476
    One-Electron Energy =               -1959.4557588512241182
    Two-Electron Energy =                 810.1837228018695214
    Total Energy =                       -509.5508420762256492
  Basis Set: (AUG-CC-PVTZ AUX)
    Blend: AUG-CC-PVTZ-RI
    Molecular point group: c1

    Geometry (in Angstrom), charge = 0, multiplicity = 1:

       Center              X                  Y                   Z               Mass
    ------------   -----------------  -----------------  -----------------  -----------------
         N            0.578502946329     0.273718908581    -0.003768701267    14.003074004430
         N            1.439193946329    -0.773544091419    -0.003768701267    14.003074004430
         N           -1.572003053671     1.147518908581    -0.003769701267    14.003074004430
         C           -0.817047053671     0.044769908581    -0.003770701267    12.000000000000
         C            2.661336946329    -0.208794091419    -0.003770701267    12.000000000000
         C            1.216402946329     1.485388908581    -0.003772701267    12.000000000000
         C            2.566116946329     1.201478908581    -0.003776701267    12.000000000000
         C           -1.314183153671    -1.262526191419     0.046226298733    12.000000000000
         C            3.882753946329    -1.070003091419    -0.003771701267    12.000000000000
         C           -2.696677053671    -1.416875091419    -0.003773701267    12.000000000000
         C           -3.513095053671    -0.283617091419    -0.003772701267    12.000000000000
         C           -2.905389053671     0.970060908581    -0.003770701267    12.000000000000
         H            0.652200946329     2.405603908581    -0.003776701267     1.007825032230
         H            3.376447946329     1.918403908581    -0.003773701267     1.007825032230
         H           -0.629919053671    -2.102704091419    -0.003774701267     1.007825032230
         H            4.501052946329    -0.884405091419     0.879993298733     1.007825032230
         H            3.584983946329    -2.120905091419    -0.003779701267     1.007825032230
         H            4.501058946329    -0.884391091419    -0.887529701267     1.007825032230
         H           -3.131288053671    -2.413303091419    -0.003775701267     1.007825032230
         H           -4.595640053671    -0.368006091419    -0.003773701267     1.007825032230
         H           -3.499854053671     1.881502908581    -0.003769701267     1.007825032230

  Basis Set: AUG-CC-PVTZ
    Blend: AUG-CC-PVTZ
  Basis Set: (AUG-CC-PVTZ AUX)
    Blend: AUG-CC-PVTZ-JKFIT
	 Reference Energy          =    -509.5508420762256492 [Eh]
	 Singles Energy            =      -0.0000000000000000 [Eh]
	 Same-Spin Energy          =      -0.5648275328852255 [Eh]
	 Opposite-Spin Energy      =      -1.7206287336419690 [Eh]
	 Correlation Energy        =      -2.2854562665271945 [Eh]
	 Total Energy              =    -511.8362983427528548 [Eh]

	 ================> DF-SCS-MP2 Energies <==================
	-----------------------------------------------------------
	 SCS Same-Spin Scale       =       0.3333333333333333 [-]
	 SCS Opposite-Spin Scale   =       1.2000000000000000 [-]
	 SCS Same-Spin Energy      =      -0.1882758442950752 [Eh]
	 SCS Opposite-Spin Energy  =      -2.0647544803703628 [Eh]
	 SCS Correlation Energy    =      -2.2530303246654380 [Eh]
	 SCS Total Energy          =    -511.8038724008910663 [Eh]
	-----------------------------------------------------------

  Dipole Moment: [D]
     X:    -1.1520      Y:    -0.3490      Z:    -0.0131     Total:     1.2038

*** Psi4 exiting successfully. Buy a developer a beer!
