                               Psi4 1.3.2 release

  ==> Input File <==

--------------------------------------------------------------------------
#psi4
#
memory 32 gb

molecule  {
0 1
  N        0.5504050     0.2888980     0.0000030
  N        1.4110960    -0.7583650     0.0000030
  N       -1.6001010     1.1626980     0.0000020
  C       -0.8451450     0.0599490     0.0000010
  C        2.6332390    -0.1936150     0.0000010
  C        1.1883050     1.5005680    -0.0000010
  C        2.5380190     1.2166580    -0.0000050
  C       -1.3422811    -1.2473472     0.0999980
  C        3.8546560    -1.0548240     0.0000000
  C       -2.7247750    -1.4016960    -0.0000020
  C       -3.5411930    -0.2684380    -0.0000010
  C       -2.9334870     0.9852400     0.0000010
  H        0.6241030     2.4207830    -0.0000050
  H        3.3483500     1.9335830    -0.0000020
  H       -0.6580170    -2.0875250    -0.0000030
  H        4.4729550    -0.8692260     0.8837650
  H        3.5568860    -2.1057260    -0.0000080
  H        4.4729610    -0.8692120    -0.8837580
  H       -3.1593860    -2.3981240    -0.0000040
  H       -4.6237380    -0.3528270    -0.0000020
  H       -3.5279520     1.8966820     0.0000020
units angstrom
no_reorient  #important for SAPT in psi4, default
symmetry c1  #important for SAPT in psi4, default
}

set PROPERTIES_ORIGIN ["COM"]
properties('MP2/aug-cc-pvtz', properties = ['dipole'])
--------------------------------------------------------------------------

    Molecular point group: c1
  Charge       = 0
  Multiplicity = 1
  Basis Set: AUG-CC-PVTZ
    Blend: AUG-CC-PVTZ
  Basis Set: (AUG-CC-PVTZ AUX)
    Blend: AUG-CC-PVTZ-JKFIT

    Orbital Energies [Eh]
    ---------------------

    Doubly Occupied:

       1A    -15.644352     2A    -15.582229     3A    -15.570831
       4A    -11.329988     5A    -11.285578     6A    -11.277979
       7A    -11.267072     8A    -11.266457     9A    -11.241968
      10A    -11.240313    11A    -11.226007    12A    -11.221628
      13A     -1.382730    14A     -1.268662    15A     -1.128924
      16A     -1.093126    17A     -1.060286    18A     -1.023787
      19A     -0.962771    20A     -0.875009    21A     -0.859717
      22A     -0.795455    23A     -0.759437    24A     -0.740792
      25A     -0.679821    26A     -0.663338    27A     -0.637453
      28A     -0.634671    29A     -0.606130    30A     -0.592571
      31A     -0.574628    32A     -0.572752    33A     -0.548978
      34A     -0.536090    35A     -0.532936    36A     -0.527448
      37A     -0.458238    38A     -0.433698    39A     -0.400560
      40A     -0.381506    41A     -0.345874    42A     -0.310101

  @DF-RHF Final Energy:  -509.54866207573320

   => Energetics <=

    Nuclear Repulsion Energy =            639.6297575041016898
    One-Electron Energy =               -1959.2730561569194379
    Two-Electron Energy =                 810.0946365770845432
    Total Energy =                       -509.5486620757332048
  Basis Set: (AUG-CC-PVTZ AUX)
    Blend: AUG-CC-PVTZ-RI
    Molecular point group: c1

    Geometry (in Angstrom), charge = 0, multiplicity = 1:

       Center              X                  Y                   Z               Mass
    ------------   -----------------  -----------------  -----------------  -----------------
         N            0.578502946329     0.273718916124    -0.007540396830    14.003074004430
         N            1.439193946329    -0.773544083876    -0.007540396830    14.003074004430
         N           -1.572003053671     1.147518916124    -0.007541396830    14.003074004430
         C           -0.817047053671     0.044769916124    -0.007542396830    12.000000000000
         C            2.661336946329    -0.208794083876    -0.007542396830    12.000000000000
         C            1.216402946329     1.485388916124    -0.007544396830    12.000000000000
         C            2.566116946329     1.201478916124    -0.007548396830    12.000000000000
         C           -1.314183153671    -1.262526283876     0.092454603170    12.000000000000
         C            3.882753946329    -1.070003083876    -0.007543396830    12.000000000000
         C           -2.696677053671    -1.416875083876    -0.007545396830    12.000000000000
         C           -3.513095053671    -0.283617083876    -0.007544396830    12.000000000000
         C           -2.905389053671     0.970060916124    -0.007542396830    12.000000000000
         H            0.652200946329     2.405603916124    -0.007548396830     1.007825032230
         H            3.376447946329     1.918403916124    -0.007545396830     1.007825032230
         H           -0.629919053671    -2.102704083876    -0.007546396830     1.007825032230
         H            4.501052946329    -0.884405083876     0.876221603170     1.007825032230
         H            3.584983946329    -2.120905083876    -0.007551396830     1.007825032230
         H            4.501058946329    -0.884391083876    -0.891301396830     1.007825032230
         H           -3.131288053671    -2.413303083876    -0.007547396830     1.007825032230
         H           -4.595640053671    -0.368006083876    -0.007545396830     1.007825032230
         H           -3.499854053671     1.881502916124    -0.007541396830     1.007825032230

  Basis Set: AUG-CC-PVTZ
    Blend: AUG-CC-PVTZ
  Basis Set: (AUG-CC-PVTZ AUX)
    Blend: AUG-CC-PVTZ-JKFIT
	 Reference Energy          =    -509.5486620757332048 [Eh]
	 Singles Energy            =      -0.0000000000000000 [Eh]
	 Same-Spin Energy          =      -0.5648912053041737 [Eh]
	 Opposite-Spin Energy      =      -1.7207604866463884 [Eh]
	 Correlation Energy        =      -2.2856516919505623 [Eh]
	 Total Energy              =    -511.8343137676837387 [Eh]

	 ================> DF-SCS-MP2 Energies <==================
	-----------------------------------------------------------
	 SCS Same-Spin Scale       =       0.3333333333333333 [-]
	 SCS Opposite-Spin Scale   =       1.2000000000000000 [-]
	 SCS Same-Spin Energy      =      -0.1882970684347245 [Eh]
	 SCS Opposite-Spin Energy  =      -2.0649125839756661 [Eh]
	 SCS Correlation Energy    =      -2.2532096524103906 [Eh]
	 SCS Total Energy          =    -511.8018717281436238 [Eh]
	-----------------------------------------------------------

  Dipole Moment: [D]
     X:    -1.1518      Y:    -0.3374      Z:    -0.0266     Total:     1.2005

*** Psi4 exiting successfully. Buy a developer a beer!
