                               Psi4 1.3.2 release

  ==> Input File <==

--------------------------------------------------------------------------
#psi4
#
memory 32 gb

molecule  {
0 1
  N        0.5504050     0.2888980     0.0000030
  N        1.4110960    -0.7583650     0.0000030
  N       -1.6001010     1.1626980     0.0000020
  C       -0.8451450     0.0599490     0.0000010
  C        2.6332390    -0.1936150     0.0000010
  C        1.1883051     1.5005677    -0.2000010
  C        2.5380190     1.2166580    -0.0000050
  C       -1.3422810    -1.2473470    -0.0000020
  C        3.8546560    -1.0548240     0.0000000
  C       -2.7247750    -1.4016960    -0.0000020
  C       -3.5411930    -0.2684380    -0.0000010
  C       -2.9334870     0.9852400     0.0000010
  H        0.6241030     2.4207830    -0.0000050
  H        3.3483500     1.9335830    -0.0000020
  H       -0.6580170    -2.0875250    -0.0000030
  H        4.4729550    -0.8692260     0.8837650
  H        3.5568860    -2.1057260    -0.0000080
  H        4.4729610    -0.8692120    -0.8837580
  H       -3.1593860    -2.3981240    -0.0000040
  H       -4.6237380    -0.3528270    -0.0000020
  H       -3.5279520     1.8966820     0.0000020
units angstrom
no_reorient  #important for SAPT in psi4, default
symmetry c1  #important for SAPT in psi4, default
}

set PROPERTIES_ORIGIN ["COM"]
properties('MP2/aug-cc-pvtz', properties = ['dipole'])
--------------------------------------------------------------------------

    Molecular point group: c1
  Charge       = 0
  Multiplicity = 1
  Basis Set: AUG-CC-PVTZ
    Blend: AUG-CC-PVTZ
  Basis Set: (AUG-CC-PVTZ AUX)
    Blend: AUG-CC-PVTZ-JKFIT

    Orbital Energies [Eh]
    ---------------------

    Doubly Occupied:

       1A    -15.645232     2A    -15.585259     3A    -15.570559
       4A    -11.328517     5A    -11.284794     6A    -11.280133
       7A    -11.267594     8A    -11.265506     9A    -11.241154
      10A    -11.240314    11A    -11.226542    12A    -11.226101
      13A     -1.381144    14A     -1.268326    15A     -1.128502
      16A     -1.093399    17A     -1.057399    18A     -1.024067
      19A     -0.962453    20A     -0.874687    21A     -0.859317
      22A     -0.794826    23A     -0.757877    24A     -0.736396
      25A     -0.679367    26A     -0.664080    27A     -0.636365
      28A     -0.634427    29A     -0.603057    30A     -0.591566
      31A     -0.575092    32A     -0.571831    33A     -0.548904
      34A     -0.536662    35A     -0.532584    36A     -0.525395
      37A     -0.459378    38A     -0.433045    39A     -0.400258
      40A     -0.381127    41A     -0.345975    42A     -0.309479

  @DF-RHF Final Energy:  -509.53872805208533

   => Energetics <=

    Nuclear Repulsion Energy =            639.2358226254989404
    One-Electron Energy =               -1958.4917219700614623
    Two-Electron Energy =                 809.7171712924771327
    Total Energy =                       -509.5387280520853892
  Basis Set: (AUG-CC-PVTZ AUX)
    Blend: AUG-CC-PVTZ-RI
    Molecular point group: c1

    Geometry (in Angstrom), charge = 0, multiplicity = 1:

       Center              X                  Y                   Z               Mass
    ------------   -----------------  -----------------  -----------------  -----------------
         N            0.578502931242     0.273718923667     0.015089776552    14.003074004430
         N            1.439193931242    -0.773544076333     0.015089776552    14.003074004430
         N           -1.572003068758     1.147518923667     0.015088776552    14.003074004430
         C           -0.817047068758     0.044769923667     0.015087776552    12.000000000000
         C            2.661336931242    -0.208794076333     0.015087776552    12.000000000000
         C            1.216403031242     1.485388623667    -0.184914223448    12.000000000000
         C            2.566116931242     1.201478923667     0.015081776552    12.000000000000
         C           -1.314183068758    -1.262526076333     0.015084776552    12.000000000000
         C            3.882753931242    -1.070003076333     0.015086776552    12.000000000000
         C           -2.696677068758    -1.416875076333     0.015084776552    12.000000000000
         C           -3.513095068758    -0.283617076333     0.015085776552    12.000000000000
         C           -2.905389068758     0.970060923667     0.015087776552    12.000000000000
         H            0.652200931242     2.405603923667     0.015081776552     1.007825032230
         H            3.376447931242     1.918403923667     0.015084776552     1.007825032230
         H           -0.629919068758    -2.102704076333     0.015083776552     1.007825032230
         H            4.501052931242    -0.884405076333     0.898851776552     1.007825032230
         H            3.584983931242    -2.120905076333     0.015078776552     1.007825032230
         H            4.501058931242    -0.884391076333    -0.868671223448     1.007825032230
         H           -3.131288068758    -2.413303076333     0.015082776552     1.007825032230
         H           -4.595640068758    -0.368006076333     0.015084776552     1.007825032230
         H           -3.499854068758     1.881502923667     0.015088776552     1.007825032230

  Basis Set: AUG-CC-PVTZ
    Blend: AUG-CC-PVTZ
  Basis Set: (AUG-CC-PVTZ AUX)
    Blend: AUG-CC-PVTZ-JKFIT
	 Reference Energy          =    -509.5387280520853324 [Eh]
	 Singles Energy            =      -0.0000000000000000 [Eh]
	 Same-Spin Energy          =      -0.5659044418739998 [Eh]
	 Opposite-Spin Energy      =      -1.7228904029926237 [Eh]
	 Correlation Energy        =      -2.2887948448666235 [Eh]
	 Total Energy              =    -511.8275228969519617 [Eh]

	 ================> DF-SCS-MP2 Energies <==================
	-----------------------------------------------------------
	 SCS Same-Spin Scale       =       0.3333333333333333 [-]
	 SCS Opposite-Spin Scale   =       1.2000000000000000 [-]
	 SCS Same-Spin Energy      =      -0.1886348139579999 [Eh]
	 SCS Opposite-Spin Energy  =      -2.0674684835911483 [Eh]
	 SCS Correlation Energy    =      -2.2561032975491484 [Eh]
	 SCS Total Energy          =    -511.7948313496344781 [Eh]
	-----------------------------------------------------------

  Dipole Moment: [D]
     X:    -1.0891      Y:    -0.4395      Z:     0.1119     Total:     1.1798

*** Psi4 exiting successfully. Buy a developer a beer!
