                               Psi4 1.3.2 release

  ==> Input File <==

--------------------------------------------------------------------------
#psi4
#
memory 32 gb

molecule  {
0 1
  N        0.5504050     0.2888980     0.0000030
  N        1.4110960    -0.7583650     0.0000030
  N       -1.6001010     1.1626980     0.0000020
  C       -0.8451450     0.0599490     0.0000010
  C        2.6332390    -0.1936150     0.0000010
  C        1.1883051     1.5005676    -0.2500010
  C        2.5380190     1.2166580    -0.0000050
  C       -1.3422810    -1.2473470    -0.0000020
  C        3.8546560    -1.0548240     0.0000000
  C       -2.7247750    -1.4016960    -0.0000020
  C       -3.5411930    -0.2684380    -0.0000010
  C       -2.9334870     0.9852400     0.0000010
  H        0.6241030     2.4207830    -0.0000050
  H        3.3483500     1.9335830    -0.0000020
  H       -0.6580170    -2.0875250    -0.0000030
  H        4.4729550    -0.8692260     0.8837650
  H        3.5568860    -2.1057260    -0.0000080
  H        4.4729610    -0.8692120    -0.8837580
  H       -3.1593860    -2.3981240    -0.0000040
  H       -4.6237380    -0.3528270    -0.0000020
  H       -3.5279520     1.8966820     0.0000020
units angstrom
no_reorient  #important for SAPT in psi4, default
symmetry c1  #important for SAPT in psi4, default
}

set PROPERTIES_ORIGIN ["COM"]
properties('MP2/aug-cc-pvtz', properties = ['dipole'])
--------------------------------------------------------------------------

    Molecular point group: c1
  Charge       = 0
  Multiplicity = 1
  Basis Set: AUG-CC-PVTZ
    Blend: AUG-CC-PVTZ
  Basis Set: (AUG-CC-PVTZ AUX)
    Blend: AUG-CC-PVTZ-JKFIT

    Orbital Energies [Eh]
    ---------------------

    Doubly Occupied:

       1A    -15.645724     2A    -15.587012     3A    -15.570359
       4A    -11.328115     5A    -11.284620     6A    -11.281301
       7A    -11.267947     8A    -11.265387     9A    -11.241098
      10A    -11.240257    11A    -11.228611    12A    -11.226869
      13A     -1.380352    14A     -1.268138    15A     -1.128336
      16A     -1.093243    17A     -1.055763    18A     -1.024125
      19A     -0.962280    20A     -0.874312    21A     -0.859009
      22A     -0.794501    23A     -0.757140    24A     -0.734040
      25A     -0.678799    26A     -0.664101    27A     -0.635689
      28A     -0.634029    29A     -0.601253    30A     -0.590956
      31A     -0.575285    32A     -0.571220    33A     -0.548740
      34A     -0.536910    35A     -0.532246    36A     -0.523913
      37A     -0.459974    38A     -0.432596    39A     -0.399894
      40A     -0.380835    41A     -0.346101    42A     -0.309219

  @DF-RHF Final Energy:  -509.53146110054377

   => Energetics <=

    Nuclear Repulsion Energy =            638.9515390020694667
    One-Electron Energy =               -1957.9254015090898520
    Two-Electron Energy =                 809.4424014064766197
    Total Energy =                       -509.5314611005437655
  Basis Set: (AUG-CC-PVTZ AUX)
    Blend: AUG-CC-PVTZ-RI
    Molecular point group: c1

    Geometry (in Angstrom), charge = 0, multiplicity = 1:

       Center              X                  Y                   Z               Mass
    ------------   -----------------  -----------------  -----------------  -----------------
         N            0.578502931242     0.273718931211     0.018861472115    14.003074004430
         N            1.439193931242    -0.773544068789     0.018861472115    14.003074004430
         N           -1.572003068758     1.147518931211     0.018860472115    14.003074004430
         C           -0.817047068758     0.044769931211     0.018859472115    12.000000000000
         C            2.661336931242    -0.208794068789     0.018859472115    12.000000000000
         C            1.216403031242     1.485388531211    -0.231142527885    12.000000000000
         C            2.566116931242     1.201478931211     0.018853472115    12.000000000000
         C           -1.314183068758    -1.262526068789     0.018856472115    12.000000000000
         C            3.882753931242    -1.070003068789     0.018858472115    12.000000000000
         C           -2.696677068758    -1.416875068789     0.018856472115    12.000000000000
         C           -3.513095068758    -0.283617068789     0.018857472115    12.000000000000
         C           -2.905389068758     0.970060931211     0.018859472115    12.000000000000
         H            0.652200931242     2.405603931211     0.018853472115     1.007825032230
         H            3.376447931242     1.918403931211     0.018856472115     1.007825032230
         H           -0.629919068758    -2.102704068789     0.018855472115     1.007825032230
         H            4.501052931242    -0.884405068789     0.902623472115     1.007825032230
         H            3.584983931242    -2.120905068789     0.018850472115     1.007825032230
         H            4.501058931242    -0.884391068789    -0.864899527885     1.007825032230
         H           -3.131288068758    -2.413303068789     0.018854472115     1.007825032230
         H           -4.595640068758    -0.368006068789     0.018856472115     1.007825032230
         H           -3.499854068758     1.881502931211     0.018860472115     1.007825032230

  Basis Set: AUG-CC-PVTZ
    Blend: AUG-CC-PVTZ
  Basis Set: (AUG-CC-PVTZ AUX)
    Blend: AUG-CC-PVTZ-JKFIT
	 Reference Energy          =    -509.5314611005437655 [Eh]
	 Singles Energy            =      -0.0000000000000000 [Eh]
	 Same-Spin Energy          =      -0.5665044363826195 [Eh]
	 Opposite-Spin Energy      =      -1.7242849759474077 [Eh]
	 Correlation Energy        =      -2.2907894123300272 [Eh]
	 Total Energy              =    -511.8222505128737794 [Eh]

	 ================> DF-SCS-MP2 Energies <==================
	-----------------------------------------------------------
	 SCS Same-Spin Scale       =       0.3333333333333333 [-]
	 SCS Opposite-Spin Scale   =       1.2000000000000000 [-]
	 SCS Same-Spin Energy      =      -0.1888348121275398 [Eh]
	 SCS Opposite-Spin Energy  =      -2.0691419711368892 [Eh]
	 SCS Correlation Energy    =      -2.2579767832644291 [Eh]
	 SCS Total Energy          =    -511.7894378838082048 [Eh]
	-----------------------------------------------------------

  Dipole Moment: [D]
     X:    -1.0566      Y:    -0.4866      Z:     0.1447     Total:     1.1722

*** Psi4 exiting successfully. Buy a developer a beer!
