                               Psi4 1.3.2 release

  ==> Input File <==

--------------------------------------------------------------------------
#psi4
#
memory 32 gb

molecule  {
0 1
  N        0.5504050     0.2888980     0.0000030
  N        1.4110960    -0.7583650     0.0000030
  N       -1.6001010     1.1626980     0.0000020
  C       -0.8451450     0.0599490     0.0000010
  C        2.6332390    -0.1936150     0.0000010
  C        1.1883050     1.5005680    -0.0000010
  C        2.5380190     1.2166580    -0.0000050
  C       -1.3422810    -1.2473470    -0.0000020
  C        3.8546559    -1.0548242    -0.0500000
  C       -2.7247750    -1.4016960    -0.0000020
  C       -3.5411930    -0.2684380    -0.0000010
  C       -2.9334870     0.9852400     0.0000010
  H        0.6241030     2.4207830    -0.0000050
  H        3.3483500     1.9335830    -0.0000020
  H       -0.6580170    -2.0875250    -0.0000030
  H        4.4729550    -0.8692260     0.8837650
  H        3.5568860    -2.1057260    -0.0000080
  H        4.4729610    -0.8692120    -0.8837580
  H       -3.1593860    -2.3981240    -0.0000040
  H       -4.6237380    -0.3528270    -0.0000020
  H       -3.5279520     1.8966820     0.0000020
units angstrom
no_reorient  #important for SAPT in psi4, default
symmetry c1  #important for SAPT in psi4, default
}

set PROPERTIES_ORIGIN ["COM"]
properties('MP2/aug-cc-pvtz', properties = ['dipole'])
--------------------------------------------------------------------------

    Molecular point group: c1
  Charge       = 0
  Multiplicity = 1
  Basis Set: AUG-CC-PVTZ
    Blend: AUG-CC-PVTZ
  Basis Set: (AUG-CC-PVTZ AUX)
    Blend: AUG-CC-PVTZ-JKFIT

    Orbital Energies [Eh]
    ---------------------

    Doubly Occupied:

       1A    -15.644323     2A    -15.582258     3A    -15.570962
       4A    -11.329285     5A    -11.285139     6A    -11.277928
       7A    -11.267211     8A    -11.265755     9A    -11.241296
      10A    -11.240452    11A    -11.226357    12A    -11.221568
      13A     -1.382726    14A     -1.268715    15A     -1.128886
      16A     -1.093722    17A     -1.060307    18A     -1.024037
      19A     -0.963017    20A     -0.875449    21A     -0.859973
      22A     -0.795595    23A     -0.759744    24A     -0.740993
      25A     -0.680590    26A     -0.664090    27A     -0.637654
      28A     -0.635316    29A     -0.606925    30A     -0.592935
      31A     -0.577949    32A     -0.573118    33A     -0.548092
      34A     -0.535919    35A     -0.533303    36A     -0.524648
      37A     -0.458337    38A     -0.433865    39A     -0.400844
      40A     -0.381643    41A     -0.345855    42A     -0.309962

  @DF-RHF Final Energy:  -509.54899671797705

   => Energetics <=

    Nuclear Repulsion Energy =            639.7421541020139557
    One-Electron Energy =               -1959.4888081664221318
    Two-Electron Energy =                 810.1976573464311286
    Total Energy =                       -509.5489967179770474
  Basis Set: (AUG-CC-PVTZ AUX)
    Blend: AUG-CC-PVTZ-RI
    Molecular point group: c1

    Geometry (in Angstrom), charge = 0, multiplicity = 1:

       Center              X                  Y                   Z               Mass
    ------------   -----------------  -----------------  -----------------  -----------------
         N            0.578502946329     0.273718916124     0.003774689861    14.003074004430
         N            1.439193946329    -0.773544083876     0.003774689861    14.003074004430
         N           -1.572003053671     1.147518916124     0.003773689861    14.003074004430
         C           -0.817047053671     0.044769916124     0.003772689861    12.000000000000
         C            2.661336946329    -0.208794083876     0.003772689861    12.000000000000
         C            1.216402946329     1.485388916124     0.003770689861    12.000000000000
         C            2.566116946329     1.201478916124     0.003766689861    12.000000000000
         C           -1.314183053671    -1.262526083876     0.003769689861    12.000000000000
         C            3.882753846329    -1.070003283876    -0.046228310139    12.000000000000
         C           -2.696677053671    -1.416875083876     0.003769689861    12.000000000000
         C           -3.513095053671    -0.283617083876     0.003770689861    12.000000000000
         C           -2.905389053671     0.970060916124     0.003772689861    12.000000000000
         H            0.652200946329     2.405603916124     0.003766689861     1.007825032230
         H            3.376447946329     1.918403916124     0.003769689861     1.007825032230
         H           -0.629919053671    -2.102704083876     0.003768689861     1.007825032230
         H            4.501052946329    -0.884405083876     0.887536689861     1.007825032230
         H            3.584983946329    -2.120905083876     0.003763689861     1.007825032230
         H            4.501058946329    -0.884391083876    -0.879986310139     1.007825032230
         H           -3.131288053671    -2.413303083876     0.003767689861     1.007825032230
         H           -4.595640053671    -0.368006083876     0.003769689861     1.007825032230
         H           -3.499854053671     1.881502916124     0.003773689861     1.007825032230

  Basis Set: AUG-CC-PVTZ
    Blend: AUG-CC-PVTZ
  Basis Set: (AUG-CC-PVTZ AUX)
    Blend: AUG-CC-PVTZ-JKFIT
	 Reference Energy          =    -509.5489967179770474 [Eh]
	 Singles Energy            =      -0.0000000000000000 [Eh]
	 Same-Spin Energy          =      -0.5648375911000233 [Eh]
	 Opposite-Spin Energy      =      -1.7207153715808206 [Eh]
	 Correlation Energy        =      -2.2855529626808440 [Eh]
	 Total Energy              =    -511.8345496806579149 [Eh]

	 ================> DF-SCS-MP2 Energies <==================
	-----------------------------------------------------------
	 SCS Same-Spin Scale       =       0.3333333333333333 [-]
	 SCS Opposite-Spin Scale   =       1.2000000000000000 [-]
	 SCS Same-Spin Energy      =      -0.1882791970333411 [Eh]
	 SCS Opposite-Spin Energy  =      -2.0648584458969848 [Eh]
	 SCS Correlation Energy    =      -2.2531376429303260 [Eh]
	 SCS Total Energy          =    -511.8021343609073597 [Eh]
	-----------------------------------------------------------

  Dipole Moment: [D]
     X:    -1.1577      Y:    -0.3519      Z:    -0.0282     Total:     1.2103

*** Psi4 exiting successfully. Buy a developer a beer!
