                               Psi4 1.3.2 release

  ==> Input File <==

--------------------------------------------------------------------------
#psi4
#
memory 32 gb

molecule  {
0 1
  N        0.5504050     0.2888980     0.0000030
  N        1.4110960    -0.7583650     0.0000030
  N       -1.6001010     1.1626980     0.0000020
  C       -0.8451450     0.0599490     0.0000010
  C        2.6332390    -0.1936150     0.0000010
  C        1.1883050     1.5005680    -0.0000010
  C        2.5380190     1.2166580    -0.0000050
  C       -1.3422810    -1.2473470    -0.0000020
  C        3.8546556    -1.0548248    -0.2500000
  C       -2.7247750    -1.4016960    -0.0000020
  C       -3.5411930    -0.2684380    -0.0000010
  C       -2.9334870     0.9852400     0.0000010
  H        0.6241030     2.4207830    -0.0000050
  H        3.3483500     1.9335830    -0.0000020
  H       -0.6580170    -2.0875250    -0.0000030
  H        4.4729550    -0.8692260     0.8837650
  H        3.5568860    -2.1057260    -0.0000080
  H        4.4729610    -0.8692120    -0.8837580
  H       -3.1593860    -2.3981240    -0.0000040
  H       -4.6237380    -0.3528270    -0.0000020
  H       -3.5279520     1.8966820     0.0000020
units angstrom
no_reorient  #important for SAPT in psi4, default
symmetry c1  #important for SAPT in psi4, default
}

set PROPERTIES_ORIGIN ["COM"]
properties('MP2/aug-cc-pvtz', properties = ['dipole'])
--------------------------------------------------------------------------

    Molecular point group: c1
  Charge       = 0
  Multiplicity = 1
  Basis Set: AUG-CC-PVTZ
    Blend: AUG-CC-PVTZ
  Basis Set: (AUG-CC-PVTZ AUX)
    Blend: AUG-CC-PVTZ-JKFIT

    Orbital Energies [Eh]
    ---------------------

    Doubly Occupied:

       1A    -15.645510     2A    -15.583389     3A    -15.571516
       4A    -11.329872     5A    -11.285603     6A    -11.278756
       7A    -11.272266     8A    -11.266217     9A    -11.241832
      10A    -11.240924    11A    -11.235466    12A    -11.222308
      13A     -1.383811    14A     -1.269309    15A     -1.129378
      16A     -1.094231    17A     -1.061165    18A     -1.024995
      19A     -0.968180    20A     -0.876033    21A     -0.862312
      22A     -0.797108    23A     -0.766495    24A     -0.742734
      25A     -0.683953    26A     -0.665068    27A     -0.640697
      28A     -0.636840    29A     -0.624748    30A     -0.598819
      31A     -0.590397    32A     -0.573542    33A     -0.546409
      34A     -0.537230    35A     -0.527245    36A     -0.484526
      37A     -0.459165    38A     -0.434415    39A     -0.398420
      40A     -0.380647    41A     -0.346075    42A     -0.309305

  @DF-RHF Final Energy:  -509.48572547665117

   => Energetics <=

    Nuclear Repulsion Energy =            639.5148037834670731
    One-Electron Energy =               -1958.8272399894383398
    Two-Electron Energy =                 809.8267107293199842
    Total Energy =                       -509.4857254766511687
  Basis Set: (AUG-CC-PVTZ AUX)
    Blend: AUG-CC-PVTZ-RI
    Molecular point group: c1

    Geometry (in Angstrom), charge = 0, multiplicity = 1:

       Center              X                  Y                   Z               Mass
    ------------   -----------------  -----------------  -----------------  -----------------
         N            0.578502968959     0.273718961384     0.018861472115    14.003074004430
         N            1.439193968959    -0.773544038616     0.018861472115    14.003074004430
         N           -1.572003031041     1.147518961384     0.018860472115    14.003074004430
         C           -0.817047031041     0.044769961384     0.018859472115    12.000000000000
         C            2.661336968959    -0.208794038616     0.018859472115    12.000000000000
         C            1.216402968959     1.485388961384     0.018857472115    12.000000000000
         C            2.566116968959     1.201478961384     0.018853472115    12.000000000000
         C           -1.314183031041    -1.262526038616     0.018856472115    12.000000000000
         C            3.882753568959    -1.070003838616    -0.231141527885    12.000000000000
         C           -2.696677031041    -1.416875038616     0.018856472115    12.000000000000
         C           -3.513095031041    -0.283617038616     0.018857472115    12.000000000000
         C           -2.905389031041     0.970060961384     0.018859472115    12.000000000000
         H            0.652200968959     2.405603961384     0.018853472115     1.007825032230
         H            3.376447968959     1.918403961384     0.018856472115     1.007825032230
         H           -0.629919031041    -2.102704038616     0.018855472115     1.007825032230
         H            4.501052968959    -0.884405038616     0.902623472115     1.007825032230
         H            3.584983968959    -2.120905038616     0.018850472115     1.007825032230
         H            4.501058968959    -0.884391038616    -0.864899527885     1.007825032230
         H           -3.131288031041    -2.413303038616     0.018854472115     1.007825032230
         H           -4.595640031041    -0.368006038616     0.018856472115     1.007825032230
         H           -3.499854031041     1.881502961384     0.018860472115     1.007825032230

  Basis Set: AUG-CC-PVTZ
    Blend: AUG-CC-PVTZ
  Basis Set: (AUG-CC-PVTZ AUX)
    Blend: AUG-CC-PVTZ-JKFIT
	 Reference Energy          =    -509.4857254766511687 [Eh]
	 Singles Energy            =      -0.0000000000000000 [Eh]
	 Same-Spin Energy          =      -0.5655782475838604 [Eh]
	 Opposite-Spin Energy      =      -1.7233962444192972 [Eh]
	 Correlation Energy        =      -2.2889744920031578 [Eh]
	 Total Energy              =    -511.7746999686543177 [Eh]

	 ================> DF-SCS-MP2 Energies <==================
	-----------------------------------------------------------
	 SCS Same-Spin Scale       =       0.3333333333333333 [-]
	 SCS Opposite-Spin Scale   =       1.2000000000000000 [-]
	 SCS Same-Spin Energy      =      -0.1885260825279535 [Eh]
	 SCS Opposite-Spin Energy  =      -2.0680754933031564 [Eh]
	 SCS Correlation Energy    =      -2.2566015758311098 [Eh]
	 SCS Total Energy          =    -511.7423270524822669 [Eh]
	-----------------------------------------------------------

  Dipole Moment: [D]
     X:    -1.2842      Y:    -0.3259      Z:    -0.1258     Total:     1.3308

*** Psi4 exiting successfully. Buy a developer a beer!
