                               Psi4 1.3.2 release

  ==> Input File <==

--------------------------------------------------------------------------
#psi4
#
memory 32 gb

molecule  {
0 1
  N        0.5504050     0.2888980     0.0000030
  N        1.4110960    -0.7583650     0.0000030
  N       -1.6001010     1.1626980     0.0000020
  C       -0.8451450     0.0599490     0.0000010
  C        2.6332390    -0.1936150     0.0000010
  C        1.1883050     1.5005677    -0.1500010
  C        2.5380190     1.2166580    -0.0000050
  C       -1.3422810    -1.2473470    -0.0000020
  C        3.8546560    -1.0548240     0.0000000
  C       -2.7247750    -1.4016960    -0.0000020
  C       -3.5411930    -0.2684380    -0.0000010
  C       -2.9334870     0.9852400     0.0000010
  H        0.6241030     2.4207830    -0.0000050
  H        3.3483500     1.9335830    -0.0000020
  H       -0.6580170    -2.0875250    -0.0000030
  H        4.4729550    -0.8692260     0.8837650
  H        3.5568860    -2.1057260    -0.0000080
  H        4.4729610    -0.8692120    -0.8837580
  H       -3.1593860    -2.3981240    -0.0000040
  H       -4.6237380    -0.3528270    -0.0000020
  H       -3.5279520     1.8966820     0.0000020
units angstrom
no_reorient  #important for SAPT in psi4, default
symmetry c1  #important for SAPT in psi4, default
}

set PROPERTIES_ORIGIN ["COM"]
properties('MP2/aug-cc-pvtz', properties = ['dipole'])
--------------------------------------------------------------------------

    Molecular point group: c1
  Charge       = 0
  Multiplicity = 1
  Basis Set: AUG-CC-PVTZ
    Blend: AUG-CC-PVTZ
  Basis Set: (AUG-CC-PVTZ AUX)
    Blend: AUG-CC-PVTZ-JKFIT

    Orbital Energies [Eh]
    ---------------------

    Doubly Occupied:

       1A    -15.644826     2A    -15.583913     3A    -15.570721
       4A    -11.328837     5A    -11.284934     6A    -11.279179
       7A    -11.267326     8A    -11.265603     9A    -11.241203
      10A    -11.240363    11A    -11.226291    12A    -11.224119
      13A     -1.381795    14A     -1.268480    15A     -1.128650
      16A     -1.093526    17A     -1.058661    18A     -1.024032
      19A     -0.962604    20A     -0.874998    21A     -0.859561
      22A     -0.795113    23A     -0.758526    24A     -0.738324
      25A     -0.679835    26A     -0.664066    27A     -0.636914
      28A     -0.634755    29A     -0.604501    30A     -0.592046
      31A     -0.574937    32A     -0.572317    33A     -0.549022
      34A     -0.536317    35A     -0.533035    36A     -0.526444
      37A     -0.458907    38A     -0.433393    39A     -0.400553
      40A     -0.381362    41A     -0.345902    42A     -0.309693

  @DF-RHF Final Energy:  -509.54435997415726

   => Energetics <=

    Nuclear Repulsion Energy =            639.4598596807259128
    One-Electron Energy =               -1958.9372765366877047
    Two-Electron Energy =                 809.9330568818045322
    Total Energy =                       -509.5443599741572598
  Basis Set: (AUG-CC-PVTZ AUX)
    Blend: AUG-CC-PVTZ-RI
    Molecular point group: c1

    Geometry (in Angstrom), charge = 0, multiplicity = 1:

       Center              X                  Y                   Z               Mass
    ------------   -----------------  -----------------  -----------------  -----------------
         N            0.578502938785     0.273718923667     0.011318080988    14.003074004430
         N            1.439193938785    -0.773544076333     0.011318080988    14.003074004430
         N           -1.572003061215     1.147518923667     0.011317080988    14.003074004430
         C           -0.817047061215     0.044769923667     0.011316080988    12.000000000000
         C            2.661336938785    -0.208794076333     0.011316080988    12.000000000000
         C            1.216402938785     1.485388623667    -0.138685919012    12.000000000000
         C            2.566116938785     1.201478923667     0.011310080988    12.000000000000
         C           -1.314183061215    -1.262526076333     0.011313080988    12.000000000000
         C            3.882753938785    -1.070003076333     0.011315080988    12.000000000000
         C           -2.696677061215    -1.416875076333     0.011313080988    12.000000000000
         C           -3.513095061215    -0.283617076333     0.011314080988    12.000000000000
         C           -2.905389061215     0.970060923667     0.011316080988    12.000000000000
         H            0.652200938785     2.405603923667     0.011310080988     1.007825032230
         H            3.376447938785     1.918403923667     0.011313080988     1.007825032230
         H           -0.629919061215    -2.102704076333     0.011312080988     1.007825032230
         H            4.501052938785    -0.884405076333     0.895080080988     1.007825032230
         H            3.584983938785    -2.120905076333     0.011307080988     1.007825032230
         H            4.501058938785    -0.884391076333    -0.872442919012     1.007825032230
         H           -3.131288061215    -2.413303076333     0.011311080988     1.007825032230
         H           -4.595640061215    -0.368006076333     0.011313080988     1.007825032230
         H           -3.499854061215     1.881502923667     0.011317080988     1.007825032230

  Basis Set: AUG-CC-PVTZ
    Blend: AUG-CC-PVTZ
  Basis Set: (AUG-CC-PVTZ AUX)
    Blend: AUG-CC-PVTZ-JKFIT
	 Reference Energy          =    -509.5443599741572598 [Eh]
	 Singles Energy            =      -0.0000000000000000 [Eh]
	 Same-Spin Energy          =      -0.5654281737374580 [Eh]
	 Opposite-Spin Energy      =      -1.7218307944714457 [Eh]
	 Correlation Energy        =      -2.2872589682089037 [Eh]
	 Total Energy              =    -511.8316189423661626 [Eh]

	 ================> DF-SCS-MP2 Energies <==================
	-----------------------------------------------------------
	 SCS Same-Spin Scale       =       0.3333333333333333 [-]
	 SCS Opposite-Spin Scale   =       1.2000000000000000 [-]
	 SCS Same-Spin Energy      =      -0.1884760579124860 [Eh]
	 SCS Opposite-Spin Energy  =      -2.0661969533657349 [Eh]
	 SCS Correlation Energy    =      -2.2546730112782210 [Eh]
	 SCS Total Energy          =    -511.7990329854354741 [Eh]
	-----------------------------------------------------------

  Dipole Moment: [D]
     X:    -1.1158      Y:    -0.4021      Z:     0.0813     Total:     1.1888

*** Psi4 exiting successfully. Buy a developer a beer!
