                               Psi4 1.3.2 release

  ==> Input File <==

--------------------------------------------------------------------------
#psi4
#
memory 32 gb

molecule  {
0 1
  N        0.5504050     0.2888980     0.0000030
  N        1.4110960    -0.7583650     0.0000030
  N       -1.6001010     1.1626980     0.0000020
  C       -0.8451450     0.0599490     0.0000010
  C        2.6332390    -0.1936150     0.0000010
  C        1.1883050     1.5005678    -0.1000010
  C        2.5380190     1.2166580    -0.0000050
  C       -1.3422810    -1.2473470    -0.0000020
  C        3.8546560    -1.0548240     0.0000000
  C       -2.7247750    -1.4016960    -0.0000020
  C       -3.5411930    -0.2684380    -0.0000010
  C       -2.9334870     0.9852400     0.0000010
  H        0.6241030     2.4207830    -0.0000050
  H        3.3483500     1.9335830    -0.0000020
  H       -0.6580170    -2.0875250    -0.0000030
  H        4.4729550    -0.8692260     0.8837650
  H        3.5568860    -2.1057260    -0.0000080
  H        4.4729610    -0.8692120    -0.8837580
  H       -3.1593860    -2.3981240    -0.0000040
  H       -4.6237380    -0.3528270    -0.0000020
  H       -3.5279520     1.8966820     0.0000020
units angstrom
no_reorient  #important for SAPT in psi4, default
symmetry c1  #important for SAPT in psi4, default
}

set PROPERTIES_ORIGIN ["COM"]
properties('MP2/aug-cc-pvtz', properties = ['dipole'])
--------------------------------------------------------------------------

    Molecular point group: c1
  Charge       = 0
  Multiplicity = 1
  Basis Set: AUG-CC-PVTZ
    Blend: AUG-CC-PVTZ
  Basis Set: (AUG-CC-PVTZ AUX)
    Blend: AUG-CC-PVTZ-JKFIT

    Orbital Energies [Eh]
    ---------------------

    Doubly Occupied:

       1A    -15.644522     2A    -15.582962     3A    -15.570840
       4A    -11.329070     5A    -11.285035     6A    -11.278473
       7A    -11.267140     8A    -11.265675     9A    -11.241240
      10A    -11.240400    11A    -11.226114    12A    -11.222689
      13A     -1.382279    14A     -1.268595    15A     -1.128765
      16A     -1.093621    17A     -1.059557    18A     -1.024013
      19A     -0.962721    20A     -0.875230    21A     -0.859737
      22A     -0.795340    23A     -0.759038    24A     -0.739745
      25A     -0.680184    26A     -0.664058    27A     -0.637319
      28A     -0.635000    29A     -0.605547    30A     -0.592393
      31A     -0.574822    32A     -0.572673    33A     -0.549101
      34A     -0.535885    35A     -0.533583    36A     -0.527120
      37A     -0.458567    38A     -0.433642    39A     -0.400770
      40A     -0.381534    41A     -0.345863    42A     -0.309853

  @DF-RHF Final Energy:  -509.54836861394108

   => Energetics <=

    Nuclear Repulsion Energy =            639.6214886760010359
    One-Electron Energy =               -1959.2582819785661741
    Two-Electron Energy =                 810.0884246886240589
    Total Energy =                       -509.5483686139410793
  Basis Set: (AUG-CC-PVTZ AUX)
    Blend: AUG-CC-PVTZ-RI
    Molecular point group: c1

    Geometry (in Angstrom), charge = 0, multiplicity = 1:

       Center              X                  Y                   Z               Mass
    ------------   -----------------  -----------------  -----------------  -----------------
         N            0.578502938785     0.273718916124     0.007546385424    14.003074004430
         N            1.439193938785    -0.773544083876     0.007546385424    14.003074004430
         N           -1.572003061215     1.147518916124     0.007545385424    14.003074004430
         C           -0.817047061215     0.044769916124     0.007544385424    12.000000000000
         C            2.661336938785    -0.208794083876     0.007544385424    12.000000000000
         C            1.216402938785     1.485388716124    -0.092457614576    12.000000000000
         C            2.566116938785     1.201478916124     0.007538385424    12.000000000000
         C           -1.314183061215    -1.262526083876     0.007541385424    12.000000000000
         C            3.882753938785    -1.070003083876     0.007543385424    12.000000000000
         C           -2.696677061215    -1.416875083876     0.007541385424    12.000000000000
         C           -3.513095061215    -0.283617083876     0.007542385424    12.000000000000
         C           -2.905389061215     0.970060916124     0.007544385424    12.000000000000
         H            0.652200938785     2.405603916124     0.007538385424     1.007825032230
         H            3.376447938785     1.918403916124     0.007541385424     1.007825032230
         H           -0.629919061215    -2.102704083876     0.007540385424     1.007825032230
         H            4.501052938785    -0.884405083876     0.891308385424     1.007825032230
         H            3.584983938785    -2.120905083876     0.007535385424     1.007825032230
         H            4.501058938785    -0.884391083876    -0.876214614576     1.007825032230
         H           -3.131288061215    -2.413303083876     0.007539385424     1.007825032230
         H           -4.595640061215    -0.368006083876     0.007541385424     1.007825032230
         H           -3.499854061215     1.881502916124     0.007545385424     1.007825032230

  Basis Set: AUG-CC-PVTZ
    Blend: AUG-CC-PVTZ
  Basis Set: (AUG-CC-PVTZ AUX)
    Blend: AUG-CC-PVTZ-JKFIT
	 Reference Energy          =    -509.5483686139410793 [Eh]
	 Singles Energy            =      -0.0000000000000000 [Eh]
	 Same-Spin Energy          =      -0.5650838678453454 [Eh]
	 Opposite-Spin Energy      =      -1.7211148054778760 [Eh]
	 Correlation Energy        =      -2.2861986733232214 [Eh]
	 Total Energy              =    -511.8345672872642922 [Eh]

	 ================> DF-SCS-MP2 Energies <==================
	-----------------------------------------------------------
	 SCS Same-Spin Scale       =       0.3333333333333333 [-]
	 SCS Opposite-Spin Scale   =       1.2000000000000000 [-]
	 SCS Same-Spin Energy      =      -0.1883612892817818 [Eh]
	 SCS Opposite-Spin Energy  =      -2.0653377665734509 [Eh]
	 SCS Correlation Energy    =      -2.2536990558552326 [Eh]
	 SCS Total Energy          =    -511.8020676697963154 [Eh]
	-----------------------------------------------------------

  Dipole Moment: [D]
     X:    -1.1357      Y:    -0.3749      Z:     0.0528     Total:     1.1971

*** Psi4 exiting successfully. Buy a developer a beer!
