                               Psi4 1.3.2 release

  ==> Input File <==

--------------------------------------------------------------------------
#psi4
#
memory 32 gb

molecule  {
0 1
  N        0.5504050     0.2888980     0.0000030
  N        1.4110960    -0.7583650     0.0000030
  N       -1.6001010     1.1626980     0.0000020
  C       -0.8451450     0.0599490     0.0000010
  C        2.6332390    -0.1936150     0.0000010
  C        1.1883050     1.5005679    -0.0500010
  C        2.5380190     1.2166580    -0.0000050
  C       -1.3422810    -1.2473470    -0.0000020
  C        3.8546560    -1.0548240     0.0000000
  C       -2.7247750    -1.4016960    -0.0000020
  C       -3.5411930    -0.2684380    -0.0000010
  C       -2.9334870     0.9852400     0.0000010
  H        0.6241030     2.4207830    -0.0000050
  H        3.3483500     1.9335830    -0.0000020
  H       -0.6580170    -2.0875250    -0.0000030
  H        4.4729550    -0.8692260     0.8837650
  H        3.5568860    -2.1057260    -0.0000080
  H        4.4729610    -0.8692120    -0.8837580
  H       -3.1593860    -2.3981240    -0.0000040
  H       -4.6237380    -0.3528270    -0.0000020
  H       -3.5279520     1.8966820     0.0000020
units angstrom
no_reorient  #important for SAPT in psi4, default
symmetry c1  #important for SAPT in psi4, default
}

set PROPERTIES_ORIGIN ["COM"]
properties('MP2/aug-cc-pvtz', properties = ['dipole'])
--------------------------------------------------------------------------

    Molecular point group: c1
  Charge       = 0
  Multiplicity = 1
  Basis Set: AUG-CC-PVTZ
    Blend: AUG-CC-PVTZ
  Basis Set: (AUG-CC-PVTZ AUX)
    Blend: AUG-CC-PVTZ-JKFIT

    Orbital Energies [Eh]
    ---------------------

    Doubly Occupied:

       1A    -15.644335     2A    -15.582396     3A    -15.570913
       4A    -11.329211     5A    -11.285097     6A    -11.278039
       7A    -11.267031     8A    -11.265719     9A    -11.241265
      10A    -11.240424    11A    -11.226010    12A    -11.221825
      13A     -1.382578    14A     -1.268665    15A     -1.128839
      16A     -1.093680    17A     -1.060092    18A     -1.024004
      19A     -0.962795    20A     -0.875375    21A     -0.859844
      22A     -0.795486    23A     -0.759369    24A     -0.740614
      25A     -0.680398    26A     -0.664054    27A     -0.637567
      28A     -0.635153    29A     -0.606181    30A     -0.592603
      31A     -0.574748    32A     -0.572892    33A     -0.549147
      34A     -0.535377    35A     -0.534184    36A     -0.527490
      37A     -0.458362    38A     -0.433791    39A     -0.400903
      40A     -0.381639    41A     -0.345846    42A     -0.309952

  @DF-RHF Final Energy:  -509.55076733798683

   => Energetics <=

    Nuclear Repulsion Energy =            639.7191183184664851
    One-Electron Energy =               -1959.4519838386349875
    Two-Electron Energy =                 810.1820981821817895
    Total Energy =                       -509.5507673379868265
  Basis Set: (AUG-CC-PVTZ AUX)
    Blend: AUG-CC-PVTZ-RI
    Molecular point group: c1

    Geometry (in Angstrom), charge = 0, multiplicity = 1:

       Center              X                  Y                   Z               Mass
    ------------   -----------------  -----------------  -----------------  -----------------
         N            0.578502938785     0.273718908581     0.003774689861    14.003074004430
         N            1.439193938785    -0.773544091419     0.003774689861    14.003074004430
         N           -1.572003061215     1.147518908581     0.003773689861    14.003074004430
         C           -0.817047061215     0.044769908581     0.003772689861    12.000000000000
         C            2.661336938785    -0.208794091419     0.003772689861    12.000000000000
         C            1.216402938785     1.485388808581    -0.046229310139    12.000000000000
         C            2.566116938785     1.201478908581     0.003766689861    12.000000000000
         C           -1.314183061215    -1.262526091419     0.003769689861    12.000000000000
         C            3.882753938785    -1.070003091419     0.003771689861    12.000000000000
         C           -2.696677061215    -1.416875091419     0.003769689861    12.000000000000
         C           -3.513095061215    -0.283617091419     0.003770689861    12.000000000000
         C           -2.905389061215     0.970060908581     0.003772689861    12.000000000000
         H            0.652200938785     2.405603908581     0.003766689861     1.007825032230
         H            3.376447938785     1.918403908581     0.003769689861     1.007825032230
         H           -0.629919061215    -2.102704091419     0.003768689861     1.007825032230
         H            4.501052938785    -0.884405091419     0.887536689861     1.007825032230
         H            3.584983938785    -2.120905091419     0.003763689861     1.007825032230
         H            4.501058938785    -0.884391091419    -0.879986310139     1.007825032230
         H           -3.131288061215    -2.413303091419     0.003767689861     1.007825032230
         H           -4.595640061215    -0.368006091419     0.003769689861     1.007825032230
         H           -3.499854061215     1.881502908581     0.003773689861     1.007825032230

  Basis Set: AUG-CC-PVTZ
    Blend: AUG-CC-PVTZ
  Basis Set: (AUG-CC-PVTZ AUX)
    Blend: AUG-CC-PVTZ-JKFIT
	 Reference Energy          =    -509.5507673379868265 [Eh]
	 Singles Energy            =      -0.0000000000000000 [Eh]
	 Same-Spin Energy          =      -0.5648765895198559 [Eh]
	 Opposite-Spin Energy      =      -1.7207265312705369 [Eh]
	 Correlation Energy        =      -2.2856031207903929 [Eh]
	 Total Energy              =    -511.8363704587771963 [Eh]

	 ================> DF-SCS-MP2 Energies <==================
	-----------------------------------------------------------
	 SCS Same-Spin Scale       =       0.3333333333333333 [-]
	 SCS Opposite-Spin Scale   =       1.2000000000000000 [-]
	 SCS Same-Spin Energy      =      -0.1882921965066186 [Eh]
	 SCS Opposite-Spin Energy  =      -2.0648718375246440 [Eh]
	 SCS Correlation Energy    =      -2.2531640340312626 [Eh]
	 SCS Total Energy          =    -511.8039313720180985 [Eh]
	-----------------------------------------------------------

  Dipole Moment: [D]
     X:    -1.1479      Y:    -0.3584      Z:     0.0260     Total:     1.2028

*** Psi4 exiting successfully. Buy a developer a beer!
