                               Psi4 1.3.2 release

  ==> Input File <==

--------------------------------------------------------------------------
#psi4
#
memory 32 gb

molecule  {
0 1
  N        0.5504050     0.2888980     0.0000030
  N        1.4110960    -0.7583650     0.0000030
  N       -1.6001010     1.1626980     0.0000020
  C       -0.8451450     0.0599490     0.0000010
  C        2.6332390    -0.1936150     0.0000010
  C        1.1883050     1.5005680    -0.0000010
  C        2.5380190     1.2166580    -0.0000050
  C       -1.3422813    -1.2473474     0.2499980
  C        3.8546560    -1.0548240     0.0000000
  C       -2.7247750    -1.4016960    -0.0000020
  C       -3.5411930    -0.2684380    -0.0000010
  C       -2.9334870     0.9852400     0.0000010
  H        0.6241030     2.4207830    -0.0000050
  H        3.3483500     1.9335830    -0.0000020
  H       -0.6580170    -2.0875250    -0.0000030
  H        4.4729550    -0.8692260     0.8837650
  H        3.5568860    -2.1057260    -0.0000080
  H        4.4729610    -0.8692120    -0.8837580
  H       -3.1593860    -2.3981240    -0.0000040
  H       -4.6237380    -0.3528270    -0.0000020
  H       -3.5279520     1.8966820     0.0000020
units angstrom
no_reorient  #important for SAPT in psi4, default
symmetry c1  #important for SAPT in psi4, default
}

set PROPERTIES_ORIGIN ["COM"]
properties('MP2/aug-cc-pvtz', properties = ['dipole'])
--------------------------------------------------------------------------

    Molecular point group: c1
  Charge       = 0
  Multiplicity = 1
  Basis Set: AUG-CC-PVTZ
    Blend: AUG-CC-PVTZ
  Basis Set: (AUG-CC-PVTZ AUX)
    Blend: AUG-CC-PVTZ-JKFIT

    Orbital Energies [Eh]
    ---------------------

    Doubly Occupied:

       1A    -15.644806     2A    -15.582365     3A    -15.570386
       4A    -11.333703     5A    -11.288068     6A    -11.278450
       7A    -11.270156     8A    -11.267496     9A    -11.245498
      10A    -11.239811    11A    -11.226182    12A    -11.222127
      13A     -1.383026    14A     -1.268603    15A     -1.129273
      16A     -1.090257    17A     -1.060412    18A     -1.022635
      19A     -0.962496    20A     -0.873057    21A     -0.858912
      22A     -0.795109    23A     -0.759284    24A     -0.740392
      25A     -0.677168    26A     -0.659872    27A     -0.636449
      28A     -0.632020    29A     -0.604815    30A     -0.591863
      31A     -0.574224    32A     -0.571505    33A     -0.548096
      34A     -0.537140    35A     -0.530066    36A     -0.525179
      37A     -0.457955    38A     -0.432881    39A     -0.398651
      40A     -0.380724    41A     -0.346062    42A     -0.310798

  @DF-RHF Final Energy:  -509.53314645103450

   => Energetics <=

    Nuclear Repulsion Energy =            639.0016943185506761
    One-Electron Energy =               -1958.0137333760637830
    Two-Electron Energy =                 809.4788926064784391
    Total Energy =                       -509.5331464510345540
  Basis Set: (AUG-CC-PVTZ AUX)
    Blend: AUG-CC-PVTZ-RI
    Molecular point group: c1

    Geometry (in Angstrom), charge = 0, multiplicity = 1:

       Center              X                  Y                   Z               Mass
    ------------   -----------------  -----------------  -----------------  -----------------
         N            0.578502961415     0.273718931211    -0.018855483521    14.003074004430
         N            1.439193961415    -0.773544068789    -0.018855483521    14.003074004430
         N           -1.572003038585     1.147518931211    -0.018856483521    14.003074004430
         C           -0.817047038585     0.044769931211    -0.018857483521    12.000000000000
         C            2.661336961415    -0.208794068789    -0.018857483521    12.000000000000
         C            1.216402961415     1.485388931211    -0.018859483521    12.000000000000
         C            2.566116961415     1.201478931211    -0.018863483521    12.000000000000
         C           -1.314183338585    -1.262526468789     0.231139516479    12.000000000000
         C            3.882753961415    -1.070003068789    -0.018858483521    12.000000000000
         C           -2.696677038585    -1.416875068789    -0.018860483521    12.000000000000
         C           -3.513095038585    -0.283617068789    -0.018859483521    12.000000000000
         C           -2.905389038585     0.970060931211    -0.018857483521    12.000000000000
         H            0.652200961415     2.405603931211    -0.018863483521     1.007825032230
         H            3.376447961415     1.918403931211    -0.018860483521     1.007825032230
         H           -0.629919038585    -2.102704068789    -0.018861483521     1.007825032230
         H            4.501052961415    -0.884405068789     0.864906516479     1.007825032230
         H            3.584983961415    -2.120905068789    -0.018866483521     1.007825032230
         H            4.501058961415    -0.884391068789    -0.902616483521     1.007825032230
         H           -3.131288038585    -2.413303068789    -0.018862483521     1.007825032230
         H           -4.595640038585    -0.368006068789    -0.018860483521     1.007825032230
         H           -3.499854038585     1.881502931211    -0.018856483521     1.007825032230

  Basis Set: AUG-CC-PVTZ
    Blend: AUG-CC-PVTZ
  Basis Set: (AUG-CC-PVTZ AUX)
    Blend: AUG-CC-PVTZ-JKFIT
	 Reference Energy          =    -509.5331464510344972 [Eh]
	 Singles Energy            =      -0.0000000000000000 [Eh]
	 Same-Spin Energy          =      -0.5653492883693477 [Eh]
	 Opposite-Spin Energy      =      -1.7223206755379521 [Eh]
	 Correlation Energy        =      -2.2876699639072999 [Eh]
	 Total Energy              =    -511.8208164149418167 [Eh]

	 ================> DF-SCS-MP2 Energies <==================
	-----------------------------------------------------------
	 SCS Same-Spin Scale       =       0.3333333333333333 [-]
	 SCS Opposite-Spin Scale   =       1.2000000000000000 [-]
	 SCS Same-Spin Energy      =      -0.1884497627897826 [Eh]
	 SCS Opposite-Spin Energy  =      -2.0667848106455424 [Eh]
	 SCS Correlation Energy    =      -2.2552345734353252 [Eh]
	 SCS Total Energy          =    -511.7883810244697997 [Eh]
	-----------------------------------------------------------

  Dipole Moment: [D]
     X:    -1.1480      Y:    -0.2566      Z:    -0.0737     Total:     1.1787

*** Psi4 exiting successfully. Buy a developer a beer!
