                               Psi4 1.3.2 release

  ==> Input File <==

--------------------------------------------------------------------------
#psi4
#
memory 32 gb

molecule  {
0 1
  N        0.5504050     0.2888980     0.0000030
  N        1.4110960    -0.7583650     0.0000030
  N       -1.6001010     1.1626980     0.0000020
  C       -0.8451450     0.0599490     0.0000010
  C        2.6332390    -0.1936150     0.0000010
  C        1.1883050     1.5005680    -0.0000010
  C        2.5380190     1.2166580    -0.0000050
  C       -1.3422812    -1.2473473     0.1499980
  C        3.8546560    -1.0548240     0.0000000
  C       -2.7247750    -1.4016960    -0.0000020
  C       -3.5411930    -0.2684380    -0.0000010
  C       -2.9334870     0.9852400     0.0000010
  H        0.6241030     2.4207830    -0.0000050
  H        3.3483500     1.9335830    -0.0000020
  H       -0.6580170    -2.0875250    -0.0000030
  H        4.4729550    -0.8692260     0.8837650
  H        3.5568860    -2.1057260    -0.0000080
  H        4.4729610    -0.8692120    -0.8837580
  H       -3.1593860    -2.3981240    -0.0000040
  H       -4.6237380    -0.3528270    -0.0000020
  H       -3.5279520     1.8966820     0.0000020
units angstrom
no_reorient  #important for SAPT in psi4, default
symmetry c1  #important for SAPT in psi4, default
}

set PROPERTIES_ORIGIN ["COM"]
properties('MP2/aug-cc-pvtz', properties = ['dipole'])
--------------------------------------------------------------------------

    Molecular point group: c1
  Charge       = 0
  Multiplicity = 1
  Basis Set: AUG-CC-PVTZ
    Blend: AUG-CC-PVTZ
  Basis Set: (AUG-CC-PVTZ AUX)
    Blend: AUG-CC-PVTZ-JKFIT

    Orbital Energies [Eh]
    ---------------------

    Doubly Occupied:

       1A    -15.644457     2A    -15.582260     3A    -15.570711
       4A    -11.330893     5A    -11.286163     6A    -11.278090
       7A    -11.267358     8A    -11.267172     9A    -11.242833
      10A    -11.240180    11A    -11.226048    12A    -11.221745
      13A     -1.382799    14A     -1.268638    15A     -1.129004
      16A     -1.092426    17A     -1.060311    18A     -1.023519
      19A     -0.962709    20A     -0.874515    21A     -0.859522
      22A     -0.795364    23A     -0.759389    24A     -0.740671
      25A     -0.679082    26A     -0.662472    27A     -0.637209
      28A     -0.634016    29A     -0.605808    30A     -0.592432
      31A     -0.574522    32A     -0.572475    33A     -0.548757
      34A     -0.536547    35A     -0.531841    36A     -0.527157
      37A     -0.458171    38A     -0.433517    39A     -0.400089
      40A     -0.381306    41A     -0.345917    42A     -0.310256

  @DF-RHF Final Energy:  -509.54500596929938

   => Energetics <=

    Nuclear Repulsion Energy =            639.4783318861452699
    One-Electron Energy =               -1958.9699723411858940
    Two-Electron Energy =                 809.9466344857412423
    Total Energy =                       -509.5450059692993818
  Basis Set: (AUG-CC-PVTZ AUX)
    Blend: AUG-CC-PVTZ-RI
    Molecular point group: c1

    Geometry (in Angstrom), charge = 0, multiplicity = 1:

       Center              X                  Y                   Z               Mass
    ------------   -----------------  -----------------  -----------------  -----------------
         N            0.578502953872     0.273718923667    -0.011312092394    14.003074004430
         N            1.439193953872    -0.773544076333    -0.011312092394    14.003074004430
         N           -1.572003046128     1.147518923667    -0.011313092394    14.003074004430
         C           -0.817047046128     0.044769923667    -0.011314092394    12.000000000000
         C            2.661336953872    -0.208794076333    -0.011314092394    12.000000000000
         C            1.216402953872     1.485388923667    -0.011316092394    12.000000000000
         C            2.566116953872     1.201478923667    -0.011320092394    12.000000000000
         C           -1.314183246128    -1.262526376333     0.138682907606    12.000000000000
         C            3.882753953872    -1.070003076333    -0.011315092394    12.000000000000
         C           -2.696677046128    -1.416875076333    -0.011317092394    12.000000000000
         C           -3.513095046128    -0.283617076333    -0.011316092394    12.000000000000
         C           -2.905389046128     0.970060923667    -0.011314092394    12.000000000000
         H            0.652200953872     2.405603923667    -0.011320092394     1.007825032230
         H            3.376447953872     1.918403923667    -0.011317092394     1.007825032230
         H           -0.629919046128    -2.102704076333    -0.011318092394     1.007825032230
         H            4.501052953872    -0.884405076333     0.872449907606     1.007825032230
         H            3.584983953872    -2.120905076333    -0.011323092394     1.007825032230
         H            4.501058953872    -0.884391076333    -0.895073092394     1.007825032230
         H           -3.131288046128    -2.413303076333    -0.011319092394     1.007825032230
         H           -4.595640046128    -0.368006076333    -0.011317092394     1.007825032230
         H           -3.499854046128     1.881502923667    -0.011313092394     1.007825032230

  Basis Set: AUG-CC-PVTZ
    Blend: AUG-CC-PVTZ
  Basis Set: (AUG-CC-PVTZ AUX)
    Blend: AUG-CC-PVTZ-JKFIT
	 Reference Energy          =    -509.5450059692993818 [Eh]
	 Singles Energy            =      -0.0000000000000000 [Eh]
	 Same-Spin Energy          =      -0.5650010941392895 [Eh]
	 Opposite-Spin Energy      =      -1.7210804848132879 [Eh]
	 Correlation Energy        =      -2.2860815789525772 [Eh]
	 Total Energy              =    -511.8310875482519577 [Eh]

	 ================> DF-SCS-MP2 Energies <==================
	-----------------------------------------------------------
	 SCS Same-Spin Scale       =       0.3333333333333333 [-]
	 SCS Opposite-Spin Scale   =       1.2000000000000000 [-]
	 SCS Same-Spin Energy      =      -0.1883336980464298 [Eh]
	 SCS Opposite-Spin Energy  =      -2.0652965817759452 [Eh]
	 SCS Correlation Energy    =      -2.2536302798223748 [Eh]
	 SCS Total Energy          =    -511.7986362491217847 [Eh]
	-----------------------------------------------------------

  Dipole Moment: [D]
     X:    -1.1512      Y:    -0.3181      Z:    -0.0410     Total:     1.1950

*** Psi4 exiting successfully. Buy a developer a beer!
