                               Psi4 1.3.2 release

  ==> Input File <==

--------------------------------------------------------------------------
#psi4
#
memory 32 gb

molecule  {
0 1
  N        0.5504050     0.2888980     0.0000030
  N        1.4110960    -0.7583650     0.0000030
  N       -1.6001010     1.1626980     0.0000020
  C       -0.8451450     0.0599490     0.0000010
  C        2.6332390    -0.1936150     0.0000010
  C        1.1883050     1.5005680    -0.0000010
  C        2.5380190     1.2166580    -0.0000050
  C       -1.3422810    -1.2473470    -0.0000020
  C        3.8546560    -1.0548240     0.0000000
  C       -2.7247750    -1.4016960    -0.0000020
  C       -3.5411930    -0.2684380    -0.0000010
  C       -2.9334870     0.9852400     0.0000010
  H        0.6241030     2.4207830    -0.0000050
  H        3.3483500     1.9335830    -0.0000020
  H       -0.6580170    -2.0875250    -0.0000030
  H        4.4729550    -0.8692260     0.8837650
  H        3.5568860    -2.1057260    -0.0000080
  H        4.4729610    -0.8692120    -0.8837580
  H       -3.1593860    -2.3981240    -0.0000040
  H       -4.6237380    -0.3528270    -0.0000020
  H       -3.5279520     1.8966820     0.0000020
units angstrom
no_reorient  #important for SAPT in psi4, default
symmetry c1  #important for SAPT in psi4, default
}

set PROPERTIES_ORIGIN ["COM"]
properties('MP2/aug-cc-pvtz', properties = ['dipole'])
--------------------------------------------------------------------------

    Molecular point group: c1
  Charge       = 0
  Multiplicity = 1
  Basis Set: AUG-CC-PVTZ
    Blend: AUG-CC-PVTZ
  Basis Set: (AUG-CC-PVTZ AUX)
    Blend: AUG-CC-PVTZ-JKFIT

    Orbital Energies [Eh]
    ---------------------

    Doubly Occupied:

       1A    -15.644272     2A    -15.582208     3A    -15.570938
       4A    -11.329259     5A    -11.285118     6A    -11.277893
       7A    -11.266994     8A    -11.265734     9A    -11.241273
      10A    -11.240432    11A    -11.225975    12A    -11.221537
      13A     -1.382679    14A     -1.268689    15A     -1.128865
      16A     -1.093700    17A     -1.060270    18A     -1.024001
      19A     -0.962821    20A     -0.875424    21A     -0.859880
      22A     -0.795536    23A     -0.759483    24A     -0.740906
      25A     -0.680471    26A     -0.664053    27A     -0.637651
      28A     -0.635205    29A     -0.606393    30A     -0.592674
      31A     -0.574722    32A     -0.572967    33A     -0.549162
      34A     -0.534885    35A     -0.534712    36A     -0.527606
      37A     -0.458294    38A     -0.433841    39A     -0.400947
      40A     -0.381674    41A     -0.345842    42A     -0.309986

  @DF-RHF Final Energy:  -509.55156580361449

   => Energetics <=

    Nuclear Repulsion Energy =            639.7517703534143720
    One-Electron Energy =               -1959.5167277804710011
    Two-Electron Energy =                 810.2133916234422486
    Total Energy =                       -509.5515658036144941
  Basis Set: (AUG-CC-PVTZ AUX)
    Blend: AUG-CC-PVTZ-RI
    Molecular point group: c1

    Geometry (in Angstrom), charge = 0, multiplicity = 1:

       Center              X                  Y                   Z               Mass
    ------------   -----------------  -----------------  -----------------  -----------------
         N            0.578502938785     0.273718901037     0.000002994297    14.003074004430
         N            1.439193938785    -0.773544098963     0.000002994297    14.003074004430
         N           -1.572003061215     1.147518901037     0.000001994297    14.003074004430
         C           -0.817047061215     0.044769901037     0.000000994297    12.000000000000
         C            2.661336938785    -0.208794098963     0.000000994297    12.000000000000
         C            1.216402938785     1.485388901037    -0.000001005703    12.000000000000
         C            2.566116938785     1.201478901037    -0.000005005703    12.000000000000
         C           -1.314183061215    -1.262526098963    -0.000002005703    12.000000000000
         C            3.882753938785    -1.070003098963    -0.000000005703    12.000000000000
         C           -2.696677061215    -1.416875098963    -0.000002005703    12.000000000000
         C           -3.513095061215    -0.283617098963    -0.000001005703    12.000000000000
         C           -2.905389061215     0.970060901037     0.000000994297    12.000000000000
         H            0.652200938785     2.405603901037    -0.000005005703     1.007825032230
         H            3.376447938785     1.918403901037    -0.000002005703     1.007825032230
         H           -0.629919061215    -2.102704098963    -0.000003005703     1.007825032230
         H            4.501052938785    -0.884405098963     0.883764994297     1.007825032230
         H            3.584983938785    -2.120905098963    -0.000008005703     1.007825032230
         H            4.501058938785    -0.884391098963    -0.883758005703     1.007825032230
         H           -3.131288061215    -2.413303098963    -0.000004005703     1.007825032230
         H           -4.595640061215    -0.368006098963    -0.000002005703     1.007825032230
         H           -3.499854061215     1.881502901037     0.000001994297     1.007825032230

  Basis Set: AUG-CC-PVTZ
    Blend: AUG-CC-PVTZ
  Basis Set: (AUG-CC-PVTZ AUX)
    Blend: AUG-CC-PVTZ-JKFIT
	 Reference Energy          =    -509.5515658036144941 [Eh]
	 Singles Energy            =      -0.0000000000000000 [Eh]
	 Same-Spin Energy          =      -0.5648077211130154 [Eh]
	 Opposite-Spin Energy      =      -1.7206122612092543 [Eh]
	 Correlation Energy        =      -2.2854199823222698 [Eh]
	 Total Energy              =    -511.8369857859367471 [Eh]

	 ================> DF-SCS-MP2 Energies <==================
	-----------------------------------------------------------
	 SCS Same-Spin Scale       =       0.3333333333333333 [-]
	 SCS Opposite-Spin Scale   =       1.2000000000000000 [-]
	 SCS Same-Spin Energy      =      -0.1882692403710051 [Eh]
	 SCS Opposite-Spin Energy  =      -2.0647347134511049 [Eh]
	 SCS Correlation Energy    =      -2.2530039538221098 [Eh]
	 SCS Total Energy          =    -511.8045697574365818 [Eh]
	-----------------------------------------------------------

  Dipole Moment: [D]
     X:    -1.1520      Y:    -0.3529      Z:    -0.0000     Total:     1.2048

*** Psi4 exiting successfully. Buy a developer a beer!
