                               Psi4 1.3.2 release

  ==> Input File <==

--------------------------------------------------------------------------
#psi4
#
memory 32 gb

molecule  {
0 1
  N        0.5504050     0.2888980     0.0000030
  N        1.4110960    -0.7583650     0.0000030
  N       -1.6001010     1.1626980     0.0000020
  C       -0.8451450     0.0599490     0.0000010
  C        2.6332390    -0.1936150     0.0000010
  C        1.1883050     1.5005680    -0.0000010
  C        2.5380190     1.2166580    -0.0000050
  C       -1.3422810    -1.2473470    -0.0000020
  C        3.8546557    -1.0548246    -0.2000000
  C       -2.7247750    -1.4016960    -0.0000020
  C       -3.5411930    -0.2684380    -0.0000010
  C       -2.9334870     0.9852400     0.0000010
  H        0.6241030     2.4207830    -0.0000050
  H        3.3483500     1.9335830    -0.0000020
  H       -0.6580170    -2.0875250    -0.0000030
  H        4.4729550    -0.8692260     0.8837650
  H        3.5568860    -2.1057260    -0.0000080
  H        4.4729610    -0.8692120    -0.8837580
  H       -3.1593860    -2.3981240    -0.0000040
  H       -4.6237380    -0.3528270    -0.0000020
  H       -3.5279520     1.8966820     0.0000020
units angstrom
no_reorient  #important for SAPT in psi4, default
symmetry c1  #important for SAPT in psi4, default
}

set PROPERTIES_ORIGIN ["COM"]
properties('MP2/aug-cc-pvtz', properties = ['dipole'])
--------------------------------------------------------------------------

    Molecular point group: c1
  Charge       = 0
  Multiplicity = 1
  Basis Set: AUG-CC-PVTZ
    Blend: AUG-CC-PVTZ
  Basis Set: (AUG-CC-PVTZ AUX)
    Blend: AUG-CC-PVTZ-JKFIT

    Orbital Energies [Eh]
    ---------------------

    Doubly Occupied:

       1A    -15.645075     2A    -15.582977     3A    -15.571314
       4A    -11.329657     5A    -11.285434     6A    -11.278452
       7A    -11.270403     8A    -11.266048     9A    -11.241637
      10A    -11.240752    11A    -11.232066    12A    -11.222035
      13A     -1.383414    14A     -1.269092    15A     -1.129200
      16A     -1.094045    17A     -1.060850    18A     -1.024613
      19A     -0.966150    20A     -0.875818    21A     -0.861418
      22A     -0.796519    23A     -0.763905    24A     -0.742157
      25A     -0.682603    26A     -0.664684    27A     -0.638660
      28A     -0.636699    29A     -0.619171    30A     -0.597792
      31A     -0.589679    32A     -0.573403    33A     -0.546255
      34A     -0.536997    35A     -0.529197    36A     -0.495130
      37A     -0.458913    38A     -0.434214    39A     -0.399311
      40A     -0.381080    41A     -0.346014    42A     -0.309573

  @DF-RHF Final Energy:  -509.50977708920522

   => Energetics <=

    Nuclear Repulsion Energy =            639.5993625961436919
    One-Electron Energy =               -1959.0734688742727485
    Two-Electron Energy =                 809.9643291889237844
    Total Energy =                       -509.5097770892052722
  Basis Set: (AUG-CC-PVTZ AUX)
    Blend: AUG-CC-PVTZ-RI
    Molecular point group: c1

    Geometry (in Angstrom), charge = 0, multiplicity = 1:

       Center              X                  Y                   Z               Mass
    ------------   -----------------  -----------------  -----------------  -----------------
         N            0.578502961415     0.273718946297     0.015089776552    14.003074004430
         N            1.439193961415    -0.773544053703     0.015089776552    14.003074004430
         N           -1.572003038585     1.147518946297     0.015088776552    14.003074004430
         C           -0.817047038585     0.044769946297     0.015087776552    12.000000000000
         C            2.661336961415    -0.208794053703     0.015087776552    12.000000000000
         C            1.216402961415     1.485388946297     0.015085776552    12.000000000000
         C            2.566116961415     1.201478946297     0.015081776552    12.000000000000
         C           -1.314183038585    -1.262526053703     0.015084776552    12.000000000000
         C            3.882753661415    -1.070003653703    -0.184913223448    12.000000000000
         C           -2.696677038585    -1.416875053703     0.015084776552    12.000000000000
         C           -3.513095038585    -0.283617053703     0.015085776552    12.000000000000
         C           -2.905389038585     0.970060946297     0.015087776552    12.000000000000
         H            0.652200961415     2.405603946297     0.015081776552     1.007825032230
         H            3.376447961415     1.918403946297     0.015084776552     1.007825032230
         H           -0.629919038585    -2.102704053703     0.015083776552     1.007825032230
         H            4.501052961415    -0.884405053703     0.898851776552     1.007825032230
         H            3.584983961415    -2.120905053703     0.015078776552     1.007825032230
         H            4.501058961415    -0.884391053703    -0.868671223448     1.007825032230
         H           -3.131288038585    -2.413303053703     0.015082776552     1.007825032230
         H           -4.595640038585    -0.368006053703     0.015084776552     1.007825032230
         H           -3.499854038585     1.881502946297     0.015088776552     1.007825032230

  Basis Set: AUG-CC-PVTZ
    Blend: AUG-CC-PVTZ
  Basis Set: (AUG-CC-PVTZ AUX)
    Blend: AUG-CC-PVTZ-JKFIT
	 Reference Energy          =    -509.5097770892052154 [Eh]
	 Singles Energy            =      -0.0000000000000000 [Eh]
	 Same-Spin Energy          =      -0.5652959971762576 [Eh]
	 Opposite-Spin Energy      =      -1.7223555575513929 [Eh]
	 Correlation Energy        =      -2.2876515547276504 [Eh]
	 Total Energy              =    -511.7974286439328466 [Eh]

	 ================> DF-SCS-MP2 Energies <==================
	-----------------------------------------------------------
	 SCS Same-Spin Scale       =       0.3333333333333333 [-]
	 SCS Opposite-Spin Scale   =       1.2000000000000000 [-]
	 SCS Same-Spin Energy      =      -0.1884319990587525 [Eh]
	 SCS Opposite-Spin Energy  =      -2.0668266690616712 [Eh]
	 SCS Correlation Energy    =      -2.2552586681204239 [Eh]
	 SCS Total Energy          =    -511.7650357573256201 [Eh]
	-----------------------------------------------------------

  Dipole Moment: [D]
     X:    -1.2392      Y:    -0.3361      Z:    -0.1055     Total:     1.2883

*** Psi4 exiting successfully. Buy a developer a beer!
