                               Psi4 1.3.2 release

  ==> Input File <==

--------------------------------------------------------------------------
#psi4
#
memory 32 gb

molecule  {
0 1
  N        0.5504050     0.2888980     0.0000030
  N        1.4110960    -0.7583650     0.0000030
  N       -1.6001010     1.1626980     0.0000020
  C       -0.8451450     0.0599490     0.0000010
  C        2.6332390    -0.1936150     0.0000010
  C        1.1883050     1.5005680    -0.0000010
  C        2.5380190     1.2166580    -0.0000050
  C       -1.3422812    -1.2473474     0.1999980
  C        3.8546560    -1.0548240     0.0000000
  C       -2.7247750    -1.4016960    -0.0000020
  C       -3.5411930    -0.2684380    -0.0000010
  C       -2.9334870     0.9852400     0.0000010
  H        0.6241030     2.4207830    -0.0000050
  H        3.3483500     1.9335830    -0.0000020
  H       -0.6580170    -2.0875250    -0.0000030
  H        4.4729550    -0.8692260     0.8837650
  H        3.5568860    -2.1057260    -0.0000080
  H        4.4729610    -0.8692120    -0.8837580
  H       -3.1593860    -2.3981240    -0.0000040
  H       -4.6237380    -0.3528270    -0.0000020
  H       -3.5279520     1.8966820     0.0000020
units angstrom
no_reorient  #important for SAPT in psi4, default
symmetry c1  #important for SAPT in psi4, default
}

set PROPERTIES_ORIGIN ["COM"]
properties('MP2/aug-cc-pvtz', properties = ['dipole'])
--------------------------------------------------------------------------

    Molecular point group: c1
  Charge       = 0
  Multiplicity = 1
  Basis Set: AUG-CC-PVTZ
    Blend: AUG-CC-PVTZ
  Basis Set: (AUG-CC-PVTZ AUX)
    Blend: AUG-CC-PVTZ-JKFIT

    Orbital Energies [Eh]
    ---------------------

    Doubly Occupied:

       1A    -15.644607     2A    -15.582304     3A    -15.570560
       4A    -11.332140     5A    -11.286992     6A    -11.278247
       7A    -11.268600     8A    -11.267313     9A    -11.244018
      10A    -11.240009    11A    -11.226107    12A    -11.221911
      13A     -1.382897    14A     -1.268616    15A     -1.129119
      16A     -1.091463    17A     -1.060352    18A     -1.023139
      19A     -0.962619    20A     -0.873856    21A     -0.859253
      22A     -0.795246    23A     -0.759335    24A     -0.740531
      25A     -0.678166    26A     -0.661302    27A     -0.636872
      28A     -0.633123    29A     -0.605364    30A     -0.592207
      31A     -0.574384    32A     -0.572067    33A     -0.548458
      34A     -0.536895    35A     -0.530805    36A     -0.526499
      37A     -0.458077    38A     -0.433250    39A     -0.399448
      40A     -0.381042    41A     -0.345979    42A     -0.310485

  @DF-RHF Final Energy:  -509.53984525421345

   => Energetics <=

    Nuclear Repulsion Energy =            639.2683361997399061
    One-Electron Energy =               -1958.5490419163313618
    Two-Electron Energy =                 809.7408604623780093
    Total Energy =                       -509.5398452542134464
  Basis Set: (AUG-CC-PVTZ AUX)
    Blend: AUG-CC-PVTZ-RI
    Molecular point group: c1

    Geometry (in Angstrom), charge = 0, multiplicity = 1:

       Center              X                  Y                   Z               Mass
    ------------   -----------------  -----------------  -----------------  -----------------
         N            0.578502953872     0.273718931211    -0.015083787957    14.003074004430
         N            1.439193953872    -0.773544068789    -0.015083787957    14.003074004430
         N           -1.572003046128     1.147518931211    -0.015084787957    14.003074004430
         C           -0.817047046128     0.044769931211    -0.015085787957    12.000000000000
         C            2.661336953872    -0.208794068789    -0.015085787957    12.000000000000
         C            1.216402953872     1.485388931211    -0.015087787957    12.000000000000
         C            2.566116953872     1.201478931211    -0.015091787957    12.000000000000
         C           -1.314183246128    -1.262526468789     0.184911212043    12.000000000000
         C            3.882753953872    -1.070003068789    -0.015086787957    12.000000000000
         C           -2.696677046128    -1.416875068789    -0.015088787957    12.000000000000
         C           -3.513095046128    -0.283617068789    -0.015087787957    12.000000000000
         C           -2.905389046128     0.970060931211    -0.015085787957    12.000000000000
         H            0.652200953872     2.405603931211    -0.015091787957     1.007825032230
         H            3.376447953872     1.918403931211    -0.015088787957     1.007825032230
         H           -0.629919046128    -2.102704068789    -0.015089787957     1.007825032230
         H            4.501052953872    -0.884405068789     0.868678212043     1.007825032230
         H            3.584983953872    -2.120905068789    -0.015094787957     1.007825032230
         H            4.501058953872    -0.884391068789    -0.898844787957     1.007825032230
         H           -3.131288046128    -2.413303068789    -0.015090787957     1.007825032230
         H           -4.595640046128    -0.368006068789    -0.015088787957     1.007825032230
         H           -3.499854046128     1.881502931211    -0.015084787957     1.007825032230

  Basis Set: AUG-CC-PVTZ
    Blend: AUG-CC-PVTZ
  Basis Set: (AUG-CC-PVTZ AUX)
    Blend: AUG-CC-PVTZ-JKFIT
	 Reference Energy          =    -509.5398452542134464 [Eh]
	 Singles Energy            =      -0.0000000000000000 [Eh]
	 Same-Spin Energy          =      -0.5651549976520867 [Eh]
	 Opposite-Spin Energy      =      -1.7216020868844935 [Eh]
	 Correlation Energy        =      -2.2867570845365801 [Eh]
	 Total Energy              =    -511.8266023387500354 [Eh]

	 ================> DF-SCS-MP2 Energies <==================
	-----------------------------------------------------------
	 SCS Same-Spin Scale       =       0.3333333333333333 [-]
	 SCS Opposite-Spin Scale   =       1.2000000000000000 [-]
	 SCS Same-Spin Energy      =      -0.1883849992173622 [Eh]
	 SCS Opposite-Spin Energy  =      -2.0659225042613922 [Eh]
	 SCS Correlation Energy    =      -2.2543075034787545 [Eh]
	 SCS Total Energy          =    -511.7941527576921885 [Eh]
	-----------------------------------------------------------

  Dipole Moment: [D]
     X:    -1.1500      Y:    -0.2911      Z:    -0.0567     Total:     1.1876

*** Psi4 exiting successfully. Buy a developer a beer!
