                               Psi4 1.3.2 release

  ==> Input File <==

--------------------------------------------------------------------------
#psi4
#
memory 32 gb

molecule  {
-1 1
  O       -1.6024110     1.2883820    -0.5634480
  O        1.9707631    -1.8210108     0.1067918
  O        3.3803020    -0.0587520    -0.5397320
  N       -0.1094883    -0.2104260     0.2619295
  C        1.0875530     0.4615680    -0.1724770
  C        1.3782960     1.6508690     0.7367710
  C       -2.4731170    -0.8032840     0.3122730
  C       -1.3649450     0.1785500    -0.0525630
  C        2.2731730    -0.5407160    -0.1753640
  C       -3.8468580    -0.3344400    -0.1480570
  H        0.9550610     0.8289670    -1.1997950
  H        0.0672430    -1.2232590     0.4643770
  H        1.5293690     1.3045580     1.7644240
  H        2.2851470     2.1591780     0.4026320
  H        0.5420990     2.3541860     0.7225810
  H       -2.2325720    -1.7800520    -0.1237300
  H       -2.4588320    -0.9441430     1.3993390
  H       -4.0995650     0.6270340     0.3028840
  H       -3.8738130    -0.2132220    -1.2332140
  H       -4.6116960    -1.0622230     0.1365660
units angstrom
no_reorient  #important for SAPT in psi4, default
symmetry c1  #important for SAPT in psi4, default
}

set PROPERTIES_ORIGIN ["COM"]
properties('MP2/aug-cc-pvtz', properties = ['dipole'])
--------------------------------------------------------------------------

    Molecular point group: c1
  Charge       = -1
  Multiplicity = 1
  Basis Set: AUG-CC-PVTZ
    Blend: AUG-CC-PVTZ
  Basis Set: (AUG-CC-PVTZ AUX)
    Blend: AUG-CC-PVTZ-JKFIT

    Orbital Energies [Eh]
    ---------------------

    Doubly Occupied:

       1A    -20.391651     2A    -20.329803     3A    -20.322318
       4A    -15.438552     5A    -11.223560     6A    -11.176042
       7A    -11.136185     8A    -11.124707     9A    -11.119377
      10A    -11.077108    11A     -1.242341    12A     -1.177740
      13A     -1.095089    14A     -1.065670    15A     -0.950155
      16A     -0.880782    17A     -0.784248    18A     -0.723970
      19A     -0.632703    20A     -0.590667    21A     -0.546632
      22A     -0.533832    23A     -0.513267    24A     -0.481348
      25A     -0.464433    26A     -0.437195    27A     -0.426364
      28A     -0.418011    29A     -0.412426    30A     -0.399045
      31A     -0.396353    32A     -0.374102    33A     -0.368193
      34A     -0.337023    35A     -0.300317    36A     -0.257400
      37A     -0.235906    38A     -0.227595    39A     -0.216331

  @DF-RHF Final Energy:  -512.32137961882063

   => Energetics <=

    Nuclear Repulsion Energy =            531.4208391263792919
    One-Electron Energy =               -1767.8275546206480158
    Two-Electron Energy =                 724.0853358754479814
    Total Energy =                       -512.3213796188206288
  Basis Set: (AUG-CC-PVTZ AUX)
    Blend: AUG-CC-PVTZ-RI
    Molecular point group: c1

    Geometry (in Angstrom), charge = -1, multiplicity = 1:

       Center              X                  Y                   Z               Mass
    ------------   -----------------  -----------------  -----------------  -----------------
         O           -1.679353446318     1.309122893139    -0.538420325030    15.994914619570
         O            1.893820653682    -1.800269906861     0.131819474970    15.994914619570
         O            3.303359553682    -0.038011106861    -0.514704325030    15.994914619570
         N           -0.186430746318    -0.189685106861     0.286957174970    14.003074004430
         C            1.010610553682     0.482308893139    -0.147449325030    12.000000000000
         C            1.301353553682     1.671609893139     0.761798674970    12.000000000000
         C           -2.550059446318    -0.782543106861     0.337300674970    12.000000000000
         C           -1.441887446318     0.199290893139    -0.027535325030    12.000000000000
         C            2.196230553682    -0.519975106861    -0.150336325030    12.000000000000
         C           -3.923800446318    -0.313699106861    -0.123029325030    12.000000000000
         H            0.878118553682     0.849707893139    -1.174767325030     1.007825032230
         H           -0.009699446318    -1.202518106861     0.489404674970     1.007825032230
         H            1.452426553682     1.325298893139     1.789451674970     1.007825032230
         H            2.208204553682     2.179918893139     0.427659674970     1.007825032230
         H            0.465156553682     2.374926893139     0.747608674970     1.007825032230
         H           -2.309514446318    -1.759311106861    -0.098702325030     1.007825032230
         H           -2.535774446318    -0.923402106861     1.424366674970     1.007825032230
         H           -4.176507446318     0.647774893139     0.327911674970     1.007825032230
         H           -3.950755446318    -0.192481106861    -1.208186325030     1.007825032230
         H           -4.688638446318    -1.041482106861     0.161593674970     1.007825032230

  Basis Set: AUG-CC-PVTZ
    Blend: AUG-CC-PVTZ
  Basis Set: (AUG-CC-PVTZ AUX)
    Blend: AUG-CC-PVTZ-JKFIT
	 Reference Energy          =    -512.3213796188206288 [Eh]
	 Singles Energy            =      -0.0000000000000000 [Eh]
	 Same-Spin Energy          =      -0.5219398242489741 [Eh]
	 Opposite-Spin Energy      =      -1.6259350883943435 [Eh]
	 Correlation Energy        =      -2.1478749126433176 [Eh]
	 Total Energy              =    -514.4692545314640029 [Eh]

	 ================> DF-SCS-MP2 Energies <==================
	-----------------------------------------------------------
	 SCS Same-Spin Scale       =       0.3333333333333333 [-]
	 SCS Opposite-Spin Scale   =       1.2000000000000000 [-]
	 SCS Same-Spin Energy      =      -0.1739799414163247 [Eh]
	 SCS Opposite-Spin Energy  =      -1.9511221060732122 [Eh]
	 SCS Correlation Energy    =      -2.1251020474895368 [Eh]
	 SCS Total Energy          =    -514.4464816663102056 [Eh]
	-----------------------------------------------------------

  Dipole Moment: [D]
     X:    -8.4509      Y:     1.0777      Z:     1.5996     Total:     8.6682

*** Psi4 exiting successfully. Buy a developer a beer!
