                               Psi4 1.3.2 release

  ==> Input File <==

--------------------------------------------------------------------------
#psi4
#
memory 32 gb

molecule  {
-1 1
  O       -1.6024110     1.2883820    -0.5634480
  O        2.0191420    -1.7287390     0.1939930
  O        3.3803020    -0.0587520    -0.5397320
  N       -0.1147610    -0.2476350     0.2334190
  C        1.0875530     0.4615680    -0.1724770
  C        1.3782960     1.6508690     0.7367710
  C       -2.4731170    -0.8032840     0.3122730
  C       -1.3805776     0.1345433    -0.0459150
  C        2.2731730    -0.5407160    -0.1753640
  C       -3.8468580    -0.3344400    -0.1480570
  H        0.9550610     0.8289670    -1.1997950
  H        0.0325679    -1.2300443     0.4603008
  H        1.5293690     1.3045580     1.7644240
  H        2.2851470     2.1591780     0.4026320
  H        0.5420990     2.3541860     0.7225810
  H       -2.2325720    -1.7800520    -0.1237300
  H       -2.4588320    -0.9441430     1.3993390
  H       -4.0995650     0.6270340     0.3028840
  H       -3.8738130    -0.2132220    -1.2332140
  H       -4.6116960    -1.0622230     0.1365660
units angstrom
no_reorient  #important for SAPT in psi4, default
symmetry c1  #important for SAPT in psi4, default
}

set PROPERTIES_ORIGIN ["COM"]
properties('MP2/aug-cc-pvtz', properties = ['dipole'])
--------------------------------------------------------------------------

    Molecular point group: c1
  Charge       = -1
  Multiplicity = 1
  Basis Set: AUG-CC-PVTZ
    Blend: AUG-CC-PVTZ
  Basis Set: (AUG-CC-PVTZ AUX)
    Blend: AUG-CC-PVTZ-JKFIT

    Orbital Energies [Eh]
    ---------------------

    Doubly Occupied:

       1A    -20.385925     2A    -20.321410     3A    -20.313665
       4A    -15.442015     5A    -11.225247     6A    -11.161919
       7A    -11.138264     8A    -11.126622     9A    -11.116564
      10A    -11.075483    11A     -1.220541    12A     -1.189375
      13A     -1.094791    14A     -1.079452    15A     -0.957190
      16A     -0.880410    17A     -0.791051    18A     -0.722667
      19A     -0.636337    20A     -0.590164    21A     -0.544808
      22A     -0.536951    23A     -0.510967    24A     -0.475377
      25A     -0.464858    26A     -0.437260    27A     -0.428865
      28A     -0.419430    29A     -0.411206    30A     -0.403375
      31A     -0.396352    32A     -0.373927    33A     -0.367748
      34A     -0.337712    35A     -0.298655    36A     -0.255670
      37A     -0.236088    38A     -0.223058    39A     -0.215123

  @DF-RHF Final Energy:  -512.32876554824827

   => Energetics <=

    Nuclear Repulsion Energy =            533.0954916042089735
    One-Electron Energy =               -1771.2354681938343219
    Two-Electron Energy =                 725.8112110413770779
    Total Energy =                       -512.3287655482482705
  Basis Set: (AUG-CC-PVTZ AUX)
    Blend: AUG-CC-PVTZ-RI
    Molecular point group: c1

    Geometry (in Angstrom), charge = -1, multiplicity = 1:

       Center              X                  Y                   Z               Mass
    ------------   -----------------  -----------------  -----------------  -----------------
         O           -1.682667514224     1.306208116660    -0.545855865018    15.994914619570
         O            1.938885485776    -1.710912883340     0.211585134982    15.994914619570
         O            3.300045485776    -0.040925883340    -0.522139865018    15.994914619570
         N           -0.195017514224    -0.229808883340     0.251011134982    14.003074004430
         C            1.007296485776     0.479394116660    -0.154884865018    12.000000000000
         C            1.298039485776     1.668695116660     0.754363134982    12.000000000000
         C           -2.553373514224    -0.785457883340     0.329865134982    12.000000000000
         C           -1.460834114224     0.152369416660    -0.028322865018    12.000000000000
         C            2.192916485776    -0.522889883340    -0.157771865018    12.000000000000
         C           -3.927114514224    -0.316613883340    -0.130464865018    12.000000000000
         H            0.874804485776     0.846793116660    -1.182202865018     1.007825032230
         H           -0.047688614224    -1.212218183340     0.477892934982     1.007825032230
         H            1.449112485776     1.322384116660     1.782016134982     1.007825032230
         H            2.204890485776     2.177004116660     0.420224134982     1.007825032230
         H            0.461842485776     2.372012116660     0.740173134982     1.007825032230
         H           -2.312828514224    -1.762225883340    -0.106137865018     1.007825032230
         H           -2.539088514224    -0.926316883340     1.416931134982     1.007825032230
         H           -4.179821514224     0.644860116660     0.320476134982     1.007825032230
         H           -3.954069514224    -0.195395883340    -1.215621865018     1.007825032230
         H           -4.691952514224    -1.044396883340     0.154158134982     1.007825032230

  Basis Set: AUG-CC-PVTZ
    Blend: AUG-CC-PVTZ
  Basis Set: (AUG-CC-PVTZ AUX)
    Blend: AUG-CC-PVTZ-JKFIT
	 Reference Energy          =    -512.3287655482482705 [Eh]
	 Singles Energy            =      -0.0000000000000000 [Eh]
	 Same-Spin Energy          =      -0.5210620965903583 [Eh]
	 Opposite-Spin Energy      =      -1.6232217676647154 [Eh]
	 Correlation Energy        =      -2.1442838642550734 [Eh]
	 Total Energy              =    -514.4730494125033147 [Eh]

	 ================> DF-SCS-MP2 Energies <==================
	-----------------------------------------------------------
	 SCS Same-Spin Scale       =       0.3333333333333333 [-]
	 SCS Opposite-Spin Scale   =       1.2000000000000000 [-]
	 SCS Same-Spin Energy      =      -0.1736873655301194 [Eh]
	 SCS Opposite-Spin Energy  =      -1.9478661211976585 [Eh]
	 SCS Correlation Energy    =      -2.1215534867277777 [Eh]
	 SCS Total Energy          =    -514.4503190349760189 [Eh]
	-----------------------------------------------------------

  Dipole Moment: [D]
     X:    -8.7637      Y:     0.4211      Z:     1.6888     Total:     8.9349

*** Psi4 exiting successfully. Buy a developer a beer!
