                               Psi4 1.3.2 release

  ==> Input File <==

--------------------------------------------------------------------------
#psi4
#
memory 32 gb

molecule  {
-1 1
  O       -1.6024110     1.2883820    -0.5634480
  O        2.0191420    -1.7287390     0.1939930
  O        3.3803020    -0.0587520    -0.5397320
  N       -0.1147610    -0.2476350     0.2334190
  C        1.1702595     0.5103537    -0.2003983
  C        1.3782960     1.6508690     0.7367710
  C       -2.4731170    -0.8032840     0.3122730
  C       -1.3649450     0.1785500    -0.0525630
  C        2.2731730    -0.5407160    -0.1753640
  C       -3.8468580    -0.3344400    -0.1480570
  H        0.9550610     0.8289670    -1.1997950
  H        0.0672430    -1.2232590     0.4643770
  H        1.5293690     1.3045580     1.7644240
  H        2.2851470     2.1591780     0.4026320
  H        0.5420990     2.3541860     0.7225810
  H       -2.2325720    -1.7800520    -0.1237300
  H       -2.4588320    -0.9441430     1.3993390
  H       -4.0995650     0.6270340     0.3028840
  H       -3.8738130    -0.2132220    -1.2332140
  H       -4.6116960    -1.0622230     0.1365660
units angstrom
no_reorient  #important for SAPT in psi4, default
symmetry c1  #important for SAPT in psi4, default
}

set PROPERTIES_ORIGIN ["COM"]
properties('MP2/aug-cc-pvtz', properties = ['dipole'])
--------------------------------------------------------------------------

    Molecular point group: c1
  Charge       = -1
  Multiplicity = 1
  Basis Set: AUG-CC-PVTZ
    Blend: AUG-CC-PVTZ
  Basis Set: (AUG-CC-PVTZ AUX)
    Blend: AUG-CC-PVTZ-JKFIT

    Orbital Energies [Eh]
    ---------------------

    Doubly Occupied:

       1A    -20.386288     2A    -20.324900     3A    -20.314442
       4A    -15.430972     5A    -11.217956     6A    -11.162954
       7A    -11.131701     8A    -11.121721     9A    -11.120995
      10A    -11.078510    11A     -1.235181    12A     -1.193186
      13A     -1.093700    14A     -1.066734    15A     -0.945280
      16A     -0.888632    17A     -0.778878    18A     -0.723651
      19A     -0.633290    20A     -0.583199    21A     -0.539605
      22A     -0.529165    23A     -0.507910    24A     -0.479595
      25A     -0.468298    26A     -0.438259    27A     -0.426051
      28A     -0.420438    29A     -0.413749    30A     -0.410205
      31A     -0.394469    32A     -0.373650    33A     -0.359832
      34A     -0.347910    35A     -0.294004    36A     -0.256659
      37A     -0.240186    38A     -0.226016    39A     -0.216941

  @DF-RHF Final Energy:  -512.32771496709745

   => Energetics <=

    Nuclear Repulsion Energy =            532.5715348944086145
    One-Electron Energy =               -1770.2482793704996311
    Two-Electron Energy =                 725.3490295089935671
    Total Energy =                       -512.3277149670974495
  Basis Set: (AUG-CC-PVTZ AUX)
    Blend: AUG-CC-PVTZ-RI
    Molecular point group: c1

    Geometry (in Angstrom), charge = -1, multiplicity = 1:

       Center              X                  Y                   Z               Mass
    ------------   -----------------  -----------------  -----------------  -----------------
         O           -1.691101253334     1.298431495771    -0.543004926495    15.994914619570
         O            1.930451746666    -1.718689504229     0.214436073505    15.994914619570
         O            3.291611746666    -0.048702504229    -0.519288926495    15.994914619570
         N           -0.203451253334    -0.237585504229     0.253862073505    14.003074004430
         C            1.081569246666     0.520403195771    -0.179955226495    12.000000000000
         C            1.289605746666     1.660918495771     0.757214073505    12.000000000000
         C           -2.561807253334    -0.793234504229     0.332716073505    12.000000000000
         C           -1.453635253334     0.188599495771    -0.032119926495    12.000000000000
         C            2.184482746666    -0.530666504229    -0.154920926495    12.000000000000
         C           -3.935548253334    -0.324390504229    -0.127613926495    12.000000000000
         H            0.866370746666     0.839016495771    -1.179351926495     1.007825032230
         H           -0.021447253334    -1.213209504229     0.484820073505     1.007825032230
         H            1.440678746666     1.314607495771     1.784867073505     1.007825032230
         H            2.196456746666     2.169227495771     0.423075073505     1.007825032230
         H            0.453408746666     2.364235495771     0.743024073505     1.007825032230
         H           -2.321262253334    -1.770002504229    -0.103286926495     1.007825032230
         H           -2.547522253334    -0.934093504229     1.419782073505     1.007825032230
         H           -4.188255253334     0.637083495771     0.323327073505     1.007825032230
         H           -3.962503253334    -0.203172504229    -1.212770926495     1.007825032230
         H           -4.700386253334    -1.052173504229     0.157009073505     1.007825032230

  Basis Set: AUG-CC-PVTZ
    Blend: AUG-CC-PVTZ
  Basis Set: (AUG-CC-PVTZ AUX)
    Blend: AUG-CC-PVTZ-JKFIT
	 Reference Energy          =    -512.3277149670974495 [Eh]
	 Singles Energy            =      -0.0000000000000000 [Eh]
	 Same-Spin Energy          =      -0.5201595118229703 [Eh]
	 Opposite-Spin Energy      =      -1.6221134145144205 [Eh]
	 Correlation Energy        =      -2.1422729263373910 [Eh]
	 Total Energy              =    -514.4699878934347907 [Eh]

	 ================> DF-SCS-MP2 Energies <==================
	-----------------------------------------------------------
	 SCS Same-Spin Scale       =       0.3333333333333333 [-]
	 SCS Opposite-Spin Scale   =       1.2000000000000000 [-]
	 SCS Same-Spin Energy      =      -0.1733865039409901 [Eh]
	 SCS Opposite-Spin Energy  =      -1.9465360974173045 [Eh]
	 SCS Correlation Energy    =      -2.1199226013582946 [Eh]
	 SCS Total Energy          =    -514.4476375684557752 [Eh]
	-----------------------------------------------------------

  Dipole Moment: [D]
     X:    -8.3300      Y:     0.7653      Z:     1.5851     Total:     8.5139

*** Psi4 exiting successfully. Buy a developer a beer!
