                               Psi4 1.4a3.dev225

  ==> Input File <==

--------------------------------------------------------------------------
#psi4
#
memory 32 gb

molecule  {
-1 1
  O       -1.5868420     1.2523650    -0.8113290
  O        2.0299390    -1.6922460     0.2543140
  O        3.4074630     0.0142020    -0.3584910
  N       -0.1383540    -0.2870410     0.0455440
  C        1.0782140     0.4735880    -0.1782270
  C        1.2275190     1.6106150     0.8299030
  C       -2.4816390    -0.8906360    -0.1487800
  C       -1.3641120     0.1217370    -0.3343690
  C        2.3034970    -0.5057439    -0.0890366
  C       -3.7126180    -0.2515540     0.4884160
  H        1.0494870     0.8996880    -1.1894520
  H        0.0515970    -1.2513350     0.3145600
  H        1.2660770     1.2028380     1.8451460
  H        2.1536960     2.1558630     0.6353850
  H        0.3800930     2.2967220     0.7589720
  H       -2.7387560    -1.2794370    -1.1416750
  H       -2.1327770    -1.7398080     0.4477120
  H       -3.4838230     0.1112750     1.4946450
  H       -4.0489630     0.5957980    -0.1116680
  H       -4.5299760    -0.9736440     0.5641870
units angstrom
no_reorient  #important for SAPT in psi4, default
symmetry c1  #important for SAPT in psi4, default
}

set PROPERTIES_ORIGIN ["COM"]
properties('MP2/aug-cc-pvtz', properties = ['dipole'])
--------------------------------------------------------------------------

    Molecular point group: c1
  Charge       = -1
  Multiplicity = 1
  Basis Set: AUG-CC-PVTZ
    Blend: AUG-CC-PVTZ
  Basis Set: (AUG-CC-PVTZ AUX)
    Blend: AUG-CC-PVTZ-JKFIT

    Orbital Energies [Eh]
    ---------------------

    Doubly Occupied:

       1A    -20.386449     2A    -20.323295     3A    -20.316800
       4A    -15.441285     5A    -11.221520     6A    -11.162771
       7A    -11.133930     8A    -11.126833     9A    -11.113370
      10A    -11.076052    11A     -1.237620    12A     -1.196016
      13A     -1.102241    14A     -1.084142    15A     -0.949645
      16A     -0.876947    17A     -0.783154    18A     -0.721581
      19A     -0.641751    20A     -0.586782    21A     -0.545811
      22A     -0.522507    23A     -0.512897    24A     -0.483155
      25A     -0.462976    26A     -0.442286    27A     -0.434478
      28A     -0.421706    29A     -0.411135    30A     -0.406508
      31A     -0.395065    32A     -0.375307    33A     -0.370347
      34A     -0.342840    35A     -0.296158    36A     -0.257719
      37A     -0.240291    38A     -0.222479    39A     -0.217406

  @DF-RHF Final Energy:  -512.33774270421691

   => Energetics <=

    Nuclear Repulsion Energy =            534.2223591183203553
    One-Electron Energy =               -1773.4336979193676598
    Two-Electron Energy =                 726.8735960968303971
    Total Energy =                       -512.3377427042169074
  Basis Set: (AUG-CC-PVTZ AUX)
    Blend: AUG-CC-PVTZ-RI
    Molecular point group: c1

    Geometry (in Angstrom), charge = -1, multiplicity = 1:

       Center              X                  Y                   Z               Mass
    ------------   -----------------  -----------------  -----------------  -----------------
         O           -1.671072957207     1.266930066223    -0.786724413713    15.994914619570
         O            1.945708042793    -1.677680933777     0.278918586287    15.994914619570
         O            3.323232042793     0.028767066223    -0.333886413713    15.994914619570
         N           -0.222584957207    -0.272475933777     0.070148586287    14.003074004430
         C            0.993983042793     0.488153066223    -0.153622413713    12.000000000000
         C            1.143288042793     1.625180066223     0.854507586287    12.000000000000
         C           -2.565869957207    -0.876070933777    -0.124175413713    12.000000000000
         C           -1.448342957207     0.136302066223    -0.309764413713    12.000000000000
         C            2.219266042793    -0.491178833777    -0.064432013713    12.000000000000
         C           -3.796848957207    -0.236988933777     0.513020586287    12.000000000000
         H            0.965256042793     0.914253066223    -1.164847413713     1.007825032230
         H           -0.032633957207    -1.236769933777     0.339164586287     1.007825032230
         H            1.181846042793     1.217403066223     1.869750586287     1.007825032230
         H            2.069465042793     2.170428066223     0.659989586287     1.007825032230
         H            0.295862042793     2.311287066223     0.783576586287     1.007825032230
         H           -2.822986957207    -1.264871933777    -1.117070413713     1.007825032230
         H           -2.217007957207    -1.725242933777     0.472316586287     1.007825032230
         H           -3.568053957207     0.125840066223     1.519249586287     1.007825032230
         H           -4.133193957207     0.610363066223    -0.087063413713     1.007825032230
         H           -4.614206957207    -0.959078933777     0.588791586287     1.007825032230

  Basis Set: AUG-CC-PVTZ
    Blend: AUG-CC-PVTZ
  Basis Set: (AUG-CC-PVTZ AUX)
    Blend: AUG-CC-PVTZ-JKFIT
	 Reference Energy          =    -512.3377427042169074 [Eh]
	 Singles Energy            =      -0.0000000000000000 [Eh]
	 Same-Spin Energy          =      -0.5201374219973971 [Eh]
	 Opposite-Spin Energy      =      -1.6210946176404248 [Eh]
	 Correlation Energy        =      -2.1412320396378219 [Eh]
	 Total Energy              =    -514.4789747438546783 [Eh]

	 ================> DF-SCS-MP2 Energies <==================
	-----------------------------------------------------------
	 SCS Same-Spin Scale       =       0.3333333333333333 [-]
	 SCS Opposite-Spin Scale   =       1.2000000000000000 [-]
	 SCS Same-Spin Energy      =      -0.1733791406657990 [Eh]
	 SCS Opposite-Spin Energy  =      -1.9453135411685096 [Eh]
	 SCS Correlation Energy    =      -2.1186926818343088 [Eh]
	 SCS Total Energy          =    -514.4564353860512256 [Eh]
	-----------------------------------------------------------

  Dipole Moment: [D]
     X:    -8.5100      Y:     0.3307      Z:     1.2155     Total:     8.6027

*** Psi4 exiting successfully. Buy a developer a beer!
