                               Psi4 1.3.2 release

  ==> Input File <==

--------------------------------------------------------------------------
#psi4
#
memory 32 gb

molecule  {
-1 1
  O       -1.6024110     1.2883820    -0.5634480
  O        2.0833082    -1.6148273     0.1570408
  O        3.3803020    -0.0587520    -0.5397320
  N       -0.1147610    -0.2476350     0.2334190
  C        1.0875530     0.4615680    -0.1724770
  C        1.3782960     1.6508690     0.7367710
  C       -2.5087467    -0.7645174     0.3044943
  C       -1.3649450     0.1785500    -0.0525630
  C        2.2731730    -0.5407160    -0.1753640
  C       -3.8468580    -0.3344400    -0.1480570
  H        0.9550610     0.8289670    -1.1997950
  H        0.0672430    -1.2232590     0.4643770
  H        1.5293690     1.3045580     1.7644240
  H        2.2851470     2.1591780     0.4026320
  H        0.5420990     2.3541860     0.7225810
  H       -2.2325720    -1.7800520    -0.1237300
  H       -2.4588320    -0.9441430     1.3993390
  H       -4.0995650     0.6270340     0.3028840
  H       -3.8738130    -0.2132220    -1.2332140
  H       -4.6116960    -1.0622230     0.1365660
units angstrom
no_reorient  #important for SAPT in psi4, default
symmetry c1  #important for SAPT in psi4, default
}

set PROPERTIES_ORIGIN ["COM"]
properties('MP2/aug-cc-pvtz', properties = ['dipole'])
--------------------------------------------------------------------------

    Molecular point group: c1
  Charge       = -1
  Multiplicity = 1
  Basis Set: AUG-CC-PVTZ
    Blend: AUG-CC-PVTZ
  Basis Set: (AUG-CC-PVTZ AUX)
    Blend: AUG-CC-PVTZ-JKFIT

    Orbital Energies [Eh]
    ---------------------

    Doubly Occupied:

       1A    -20.391001     2A    -20.321442     3A    -20.283586
       4A    -15.440235     5A    -11.224291     6A    -11.139252
       7A    -11.133997     8A    -11.123710     9A    -11.105178
      10A    -11.070465    11A     -1.253782    12A     -1.240349
      13A     -1.090789    14A     -1.088627    15A     -0.956967
      16A     -0.875288    17A     -0.782726    18A     -0.716921
      19A     -0.638985    20A     -0.586866    21A     -0.540584
      22A     -0.531539    23A     -0.512019    24A     -0.490195
      25A     -0.471647    26A     -0.447011    27A     -0.433747
      28A     -0.425105    29A     -0.415544    30A     -0.411131
      31A     -0.394137    32A     -0.379611    33A     -0.371224
      34A     -0.348403    35A     -0.298231    36A     -0.256299
      37A     -0.229235    38A     -0.211627    39A     -0.207749

  @DF-RHF Final Energy:  -512.32098596743390

   => Energetics <=

    Nuclear Repulsion Energy =            537.4116630653774109
    One-Electron Energy =               -1779.7863063773886552
    Two-Electron Energy =                 730.0536573445774593
    Total Energy =                       -512.3209859674338986
  Basis Set: (AUG-CC-PVTZ AUX)
    Blend: AUG-CC-PVTZ-RI
    Molecular point group: c1

    Geometry (in Angstrom), charge = -1, multiplicity = 1:

       Center              X                  Y                   Z               Mass
    ------------   -----------------  -----------------  -----------------  -----------------
         O           -1.688368468894     1.286619007674    -0.540580093997    15.994914619570
         O            1.997350731106    -1.616590292326     0.179908706003    15.994914619570
         O            3.294344531106    -0.060514992326    -0.516864093997    15.994914619570
         N           -0.200718468894    -0.249397992326     0.256286906003    14.003074004430
         C            1.001595531106     0.459805007674    -0.149609093997    12.000000000000
         C            1.292338531106     1.649106007674     0.759638906003    12.000000000000
         C           -2.594704168894    -0.766280392326     0.327362206003    12.000000000000
         C           -1.450902468894     0.176787007674    -0.029695093997    12.000000000000
         C            2.187215531106    -0.542478992326    -0.152496093997    12.000000000000
         C           -3.932815468894    -0.336202992326    -0.125189093997    12.000000000000
         H            0.869103531106     0.827204007674    -1.176927093997     1.007825032230
         H           -0.018714468894    -1.225021992326     0.487244906003     1.007825032230
         H            1.443411531106     1.302795007674     1.787291906003     1.007825032230
         H            2.199189531106     2.157415007674     0.425499906003     1.007825032230
         H            0.456141531106     2.352423007674     0.745448906003     1.007825032230
         H           -2.318529468894    -1.781814992326    -0.100862093997     1.007825032230
         H           -2.544789468894    -0.945905992326     1.422206906003     1.007825032230
         H           -4.185522468894     0.625271007674     0.325751906003     1.007825032230
         H           -3.959770468894    -0.214984992326    -1.210346093997     1.007825032230
         H           -4.697653468894    -1.063985992326     0.159433906003     1.007825032230

  Basis Set: AUG-CC-PVTZ
    Blend: AUG-CC-PVTZ
  Basis Set: (AUG-CC-PVTZ AUX)
    Blend: AUG-CC-PVTZ-JKFIT
	 Reference Energy          =    -512.3209859674338986 [Eh]
	 Singles Energy            =      -0.0000000000000000 [Eh]
	 Same-Spin Energy          =      -0.5179636914342504 [Eh]
	 Opposite-Spin Energy      =      -1.6148964499654919 [Eh]
	 Correlation Energy        =      -2.1328601413997421 [Eh]
	 Total Energy              =    -514.4538461088336589 [Eh]

	 ================> DF-SCS-MP2 Energies <==================
	-----------------------------------------------------------
	 SCS Same-Spin Scale       =       0.3333333333333333 [-]
	 SCS Opposite-Spin Scale   =       1.2000000000000000 [-]
	 SCS Same-Spin Energy      =      -0.1726545638114168 [Eh]
	 SCS Opposite-Spin Energy  =      -1.9378757399585902 [Eh]
	 SCS Correlation Energy    =      -2.1105303037700072 [Eh]
	 SCS Total Energy          =    -514.4315162712039182 [Eh]
	-----------------------------------------------------------

  Dipole Moment: [D]
     X:    -9.2082      Y:    -0.1425      Z:     1.8617     Total:     9.3956

*** Psi4 exiting successfully. Buy a developer a beer!
