                               Psi4 1.3.2 release

  ==> Input File <==

--------------------------------------------------------------------------
#psi4
#
memory 32 gb

molecule  {
-1 1
  O       -1.6024110     1.2883820    -0.5634480
  O        2.0191420    -1.7287390     0.1939930
  O        3.3803020    -0.0587520    -0.5397320
  N       -0.1147610    -0.2476350     0.2334190
  C        1.0875530     0.4615680    -0.1724770
  C        1.3782960     1.6508690     0.7367710
  C       -2.4731170    -0.8032840     0.3122730
  C       -1.3713232     0.1881369    -0.0458938
  C        2.2731730    -0.5407160    -0.1753640
  C       -3.8468580    -0.3344400    -0.1480570
  H        0.9550610     0.8289670    -1.1997950
  H        0.0672430    -1.2232590     0.4643770
  H        1.5293690     1.3045580     1.7644240
  H        2.2851470     2.1591780     0.4026320
  H        0.5420990     2.3541860     0.7225810
  H       -2.2406244    -1.7836455    -0.1200172
  H       -2.4588320    -0.9441430     1.3993390
  H       -4.0995650     0.6270340     0.3028840
  H       -3.8738130    -0.2132220    -1.2332140
  H       -4.6116960    -1.0622230     0.1365660
units angstrom
no_reorient  #important for SAPT in psi4, default
symmetry c1  #important for SAPT in psi4, default
}

set PROPERTIES_ORIGIN ["COM"]
properties('MP2/aug-cc-pvtz', properties = ['dipole'])
--------------------------------------------------------------------------

    Molecular point group: c1
  Charge       = -1
  Multiplicity = 1
  Basis Set: AUG-CC-PVTZ
    Blend: AUG-CC-PVTZ
  Basis Set: (AUG-CC-PVTZ AUX)
    Blend: AUG-CC-PVTZ-JKFIT

    Orbital Energies [Eh]
    ---------------------

    Doubly Occupied:

       1A    -20.393764     2A    -20.321707     3A    -20.313254
       4A    -15.436349     5A    -11.224089     6A    -11.161374
       7A    -11.135386     8A    -11.124486     9A    -11.113906
      10A    -11.075213    11A     -1.246077    12A     -1.190075
      13A     -1.095386    14A     -1.079680    15A     -0.949599
      16A     -0.877268    17A     -0.783680    18A     -0.719983
      19A     -0.638497    20A     -0.588731    21A     -0.542060
      22A     -0.532787    23A     -0.511747    24A     -0.484438
      25A     -0.465151    26A     -0.438207    27A     -0.425501
      28A     -0.419673    29A     -0.414117    30A     -0.403540
      31A     -0.396857    32A     -0.376277    33A     -0.369758
      34A     -0.341675    35A     -0.300777    36A     -0.256084
      37A     -0.236333    38A     -0.222493    39A     -0.215019

  @DF-RHF Final Energy:  -512.33609606798393

   => Energetics <=

    Nuclear Repulsion Energy =            533.3812099711954033
    One-Electron Energy =               -1771.7926207265454650
    Two-Electron Energy =                 726.0753146873661308
    Total Energy =                       -512.3360960679839309
  Basis Set: (AUG-CC-PVTZ AUX)
    Blend: AUG-CC-PVTZ-RI
    Molecular point group: c1

    Geometry (in Angstrom), charge = -1, multiplicity = 1:

       Center              X                  Y                   Z               Mass
    ------------   -----------------  -----------------  -----------------  -----------------
         O           -1.683624601657     1.301721703002    -0.545912119411    15.994914619570
         O            1.937928398343    -1.715399296998     0.211528880589    15.994914619570
         O            3.299088398343    -0.045412296998    -0.522196119411    15.994914619570
         N           -0.195974601657    -0.234295296998     0.250954880589    14.003074004430
         C            1.006339398343     0.474907703002    -0.154941119411    12.000000000000
         C            1.297082398343     1.664208703002     0.754306880589    12.000000000000
         C           -2.554330601657    -0.789944296998     0.329808880589    12.000000000000
         C           -1.452536801657     0.201476603002    -0.028357919411    12.000000000000
         C            2.191959398343    -0.527376296998    -0.157828119411    12.000000000000
         C           -3.928071601657    -0.321100296998    -0.130521119411    12.000000000000
         H            0.873847398343     0.842306703002    -1.182259119411     1.007825032230
         H           -0.013970601657    -1.209919296998     0.481912880589     1.007825032230
         H            1.448155398343     1.317897703002     1.781959880589     1.007825032230
         H            2.203933398343     2.172517703002     0.420167880589     1.007825032230
         H            0.460885398343     2.367525703002     0.740116880589     1.007825032230
         H           -2.321838001657    -1.770305796998    -0.102481319411     1.007825032230
         H           -2.540045601657    -0.930803296998     1.416874880589     1.007825032230
         H           -4.180778601657     0.640373703002     0.320419880589     1.007825032230
         H           -3.955026601657    -0.199882296998    -1.215678119411     1.007825032230
         H           -4.692909601657    -1.048883296998     0.154101880589     1.007825032230

  Basis Set: AUG-CC-PVTZ
    Blend: AUG-CC-PVTZ
  Basis Set: (AUG-CC-PVTZ AUX)
    Blend: AUG-CC-PVTZ-JKFIT
	 Reference Energy          =    -512.3360960679839309 [Eh]
	 Singles Energy            =      -0.0000000000000000 [Eh]
	 Same-Spin Energy          =      -0.5200709043935773 [Eh]
	 Opposite-Spin Energy      =      -1.6211549896619681 [Eh]
	 Correlation Energy        =      -2.1412258940555455 [Eh]
	 Total Energy              =    -514.4773219620394684 [Eh]

	 ================> DF-SCS-MP2 Energies <==================
	-----------------------------------------------------------
	 SCS Same-Spin Scale       =       0.3333333333333333 [-]
	 SCS Opposite-Spin Scale   =       1.2000000000000000 [-]
	 SCS Same-Spin Energy      =      -0.1733569681311924 [Eh]
	 SCS Opposite-Spin Energy  =      -1.9453859875943618 [Eh]
	 SCS Correlation Energy    =      -2.1187429557255544 [Eh]
	 SCS Total Energy          =    -514.4548390237094964 [Eh]
	-----------------------------------------------------------

  Dipole Moment: [D]
     X:    -8.7515      Y:     0.6619      Z:     1.5866     Total:     8.9187

*** Psi4 exiting successfully. Buy a developer a beer!
