                               Psi4 1.3.2 release

  ==> Input File <==

--------------------------------------------------------------------------
#psi4
#
memory 32 gb

molecule  {
-1 1
  O       -1.6024110     1.2883820    -0.5634480
  O        2.0191420    -1.7287390     0.1939930
  O        3.3803020    -0.0587520    -0.5397320
  N       -0.1147610    -0.2476350     0.2334190
  C        1.0875530     0.4615680    -0.1724770
  C        1.3747700     1.6829199     0.6944176
  C       -2.4731170    -0.8032840     0.3122730
  C       -1.3649450     0.1785500    -0.0525630
  C        2.2731730    -0.5407160    -0.1753640
  C       -3.8468580    -0.3344400    -0.1480570
  H        0.9612995     0.8646359    -1.1871271
  H        0.0672430    -1.2232590     0.4643770
  H        1.5293690     1.3045580     1.7644240
  H        2.2851470     2.1591780     0.4026320
  H        0.5420990     2.3541860     0.7225810
  H       -2.2325720    -1.7800520    -0.1237300
  H       -2.4588320    -0.9441430     1.3993390
  H       -4.0995650     0.6270340     0.3028840
  H       -3.8738130    -0.2132220    -1.2332140
  H       -4.6116960    -1.0622230     0.1365660
units angstrom
no_reorient  #important for SAPT in psi4, default
symmetry c1  #important for SAPT in psi4, default
}

set PROPERTIES_ORIGIN ["COM"]
properties('MP2/aug-cc-pvtz', properties = ['dipole'])
--------------------------------------------------------------------------

    Molecular point group: c1
  Charge       = -1
  Multiplicity = 1
  Basis Set: AUG-CC-PVTZ
    Blend: AUG-CC-PVTZ
  Basis Set: (AUG-CC-PVTZ AUX)
    Blend: AUG-CC-PVTZ-JKFIT

    Orbital Energies [Eh]
    ---------------------

    Doubly Occupied:

       1A    -20.392345     2A    -20.322691     3A    -20.313987
       4A    -15.439077     5A    -11.224130     6A    -11.162706
       7A    -11.135719     8A    -11.124600     9A    -11.114922
      10A    -11.076080    11A     -1.242148    12A     -1.190802
      13A     -1.096922    14A     -1.081519    15A     -0.949603
      16A     -0.879233    17A     -0.784510    18A     -0.720816
      19A     -0.639763    20A     -0.589047    21A     -0.542642
      22A     -0.533287    23A     -0.511413    24A     -0.484093
      25A     -0.466383    26A     -0.439616    27A     -0.425808
      28A     -0.420033    29A     -0.414028    30A     -0.408083
      31A     -0.395920    32A     -0.379336    33A     -0.366398
      34A     -0.335151    35A     -0.300425    36A     -0.256547
      37A     -0.237657    38A     -0.223882    39A     -0.215835

  @DF-RHF Final Energy:  -512.33275493984502

   => Energetics <=

    Nuclear Repulsion Energy =            533.2774479705667545
    One-Electron Energy =               -1771.5460874417854029
    Two-Electron Energy =                 725.9358845313736310
    Total Energy =                       -512.3327549398450174
  Basis Set: (AUG-CC-PVTZ AUX)
    Blend: AUG-CC-PVTZ-RI
    Molecular point group: c1

    Geometry (in Angstrom), charge = -1, multiplicity = 1:

       Center              X                  Y                   Z               Mass
    ------------   -----------------  -----------------  -----------------  -----------------
         O           -1.683962149057     1.299575898418    -0.541891422287    15.994914619570
         O            1.937590850943    -1.717545101582     0.215549577713    15.994914619570
         O            3.298750850943    -0.047558101582    -0.518175422287    15.994914619570
         N           -0.196312149057    -0.236441101582     0.254975577713    14.003074004430
         C            1.006001850943     0.472761898418    -0.150920422287    12.000000000000
         C            1.293218850943     1.694113798418     0.715974177713    12.000000000000
         C           -2.554668149057    -0.792090101582     0.333829577713    12.000000000000
         C           -1.446496149057     0.189743898418    -0.031006422287    12.000000000000
         C            2.191621850943    -0.529522101582    -0.153807422287    12.000000000000
         C           -3.928409149057    -0.323246101582    -0.126500422287    12.000000000000
         H            0.879748350943     0.875829798418    -1.165570522287     1.007825032230
         H           -0.014308149057    -1.212065101582     0.485933577713     1.007825032230
         H            1.447817850943     1.315751898418     1.785980577713     1.007825032230
         H            2.203595850943     2.170371898418     0.424188577713     1.007825032230
         H            0.460547850943     2.365379898418     0.744137577713     1.007825032230
         H           -2.314123149057    -1.768858101582    -0.102173422287     1.007825032230
         H           -2.540383149057    -0.932949101582     1.420895577713     1.007825032230
         H           -4.181116149057     0.638227898418     0.324440577713     1.007825032230
         H           -3.955364149057    -0.202028101582    -1.211657422287     1.007825032230
         H           -4.693247149057    -1.051029101582     0.158122577713     1.007825032230

  Basis Set: AUG-CC-PVTZ
    Blend: AUG-CC-PVTZ
  Basis Set: (AUG-CC-PVTZ AUX)
    Blend: AUG-CC-PVTZ-JKFIT
	 Reference Energy          =    -512.3327549398450174 [Eh]
	 Singles Energy            =      -0.0000000000000000 [Eh]
	 Same-Spin Energy          =      -0.5201672715245432 [Eh]
	 Opposite-Spin Energy      =      -1.6214199076824736 [Eh]
	 Correlation Energy        =      -2.1415871792070167 [Eh]
	 Total Energy              =    -514.4743421190520394 [Eh]

	 ================> DF-SCS-MP2 Energies <==================
	-----------------------------------------------------------
	 SCS Same-Spin Scale       =       0.3333333333333333 [-]
	 SCS Opposite-Spin Scale   =       1.2000000000000000 [-]
	 SCS Same-Spin Energy      =      -0.1733890905081811 [Eh]
	 SCS Opposite-Spin Energy  =      -1.9457038892189682 [Eh]
	 SCS Correlation Energy    =      -2.1190929797271494 [Eh]
	 SCS Total Energy          =    -514.4518479195721739 [Eh]
	-----------------------------------------------------------

  Dipole Moment: [D]
     X:    -8.7175      Y:     0.6505      Z:     1.5491     Total:     8.8780

*** Psi4 exiting successfully. Buy a developer a beer!
