                               Psi4 1.3.2 release

  ==> Input File <==

--------------------------------------------------------------------------
#psi4
#
memory 32 gb

molecule  {
-1 1
  O       -1.6024110     1.2883820    -0.5634480
  O        2.0191420    -1.7287390     0.1939930
  O        3.3803020    -0.0587520    -0.5397320
  N       -0.1147610    -0.2476350     0.2334190
  C        1.0875530     0.4615680    -0.1724770
  C        1.4019806     1.6402614     0.7426829
  C       -2.4731170    -0.8032840     0.3122730
  C       -1.3649450     0.1785500    -0.0525630
  C        2.2864855    -0.5246520    -0.1580747
  C       -3.8468580    -0.3344400    -0.1480570
  H        0.9550610     0.8289670    -1.1997950
  H        0.0672430    -1.2232590     0.4643770
  H        1.5293690     1.3045580     1.7644240
  H        2.2851470     2.1591780     0.4026320
  H        0.5420990     2.3541860     0.7225810
  H       -2.2325720    -1.7800520    -0.1237300
  H       -2.4588320    -0.9441430     1.3993390
  H       -4.0995650     0.6270340     0.3028840
  H       -3.8738130    -0.2132220    -1.2332140
  H       -4.6116960    -1.0622230     0.1365660
units angstrom
no_reorient  #important for SAPT in psi4, default
symmetry c1  #important for SAPT in psi4, default
}

set PROPERTIES_ORIGIN ["COM"]
properties('MP2/aug-cc-pvtz', properties = ['dipole'])
--------------------------------------------------------------------------

    Molecular point group: c1
  Charge       = -1
  Multiplicity = 1
  Basis Set: AUG-CC-PVTZ
    Blend: AUG-CC-PVTZ
  Basis Set: (AUG-CC-PVTZ AUX)
    Blend: AUG-CC-PVTZ-JKFIT

    Orbital Energies [Eh]
    ---------------------

    Doubly Occupied:

       1A    -20.391519     2A    -20.318672     3A    -20.316924
       4A    -15.437917     5A    -11.223425     6A    -11.161442
       7A    -11.135185     8A    -11.124179     9A    -11.114738
      10A    -11.075705    11A     -1.241343    12A     -1.190759
      13A     -1.098146    14A     -1.078900    15A     -0.949097
      16A     -0.879175    17A     -0.783883    18A     -0.720061
      19A     -0.639226    20A     -0.588589    21A     -0.542383
      22A     -0.532981    23A     -0.511858    24A     -0.482705
      25A     -0.464633    26A     -0.438253    27A     -0.426842
      28A     -0.419309    29A     -0.413616    30A     -0.404641
      31A     -0.395015    32A     -0.377674    33A     -0.367425
      34A     -0.342318    35A     -0.299369    36A     -0.257546
      37A     -0.235468    38A     -0.222878    39A     -0.215690

  @DF-RHF Final Energy:  -512.33476395151081

   => Energetics <=

    Nuclear Repulsion Energy =            533.3840919611481013
    One-Electron Energy =               -1771.7987351879683047
    Two-Electron Energy =                 726.0798792753095086
    Total Energy =                       -512.3347639515108085
  Basis Set: (AUG-CC-PVTZ AUX)
    Blend: AUG-CC-PVTZ-RI
    Molecular point group: c1

    Geometry (in Angstrom), charge = -1, multiplicity = 1:

       Center              X                  Y                   Z               Mass
    ------------   -----------------  -----------------  -----------------  -----------------
         O           -1.687293883515     1.302040614883    -0.547263181112    15.994914619570
         O            1.934259116485    -1.715080385117     0.210177818888    15.994914619570
         O            3.295419116485    -0.045093385117    -0.523547181112    15.994914619570
         N           -0.199643883515    -0.233976385117     0.249603818888    14.003074004430
         C            1.002670116485     0.475226614883    -0.156292181112    12.000000000000
         C            1.317097716485     1.653920014883     0.758867718888    12.000000000000
         C           -2.557999883515    -0.789625385117     0.328457818888    12.000000000000
         C           -1.449827883515     0.192208614883    -0.036378181112    12.000000000000
         C            2.201602616485    -0.510993385117    -0.141889881112    12.000000000000
         C           -3.931740883515    -0.320781385117    -0.131872181112    12.000000000000
         H            0.870178116485     0.842625614883    -1.183610181112     1.007825032230
         H           -0.017639883515    -1.209600385117     0.480561818888     1.007825032230
         H            1.444486116485     1.318216614883     1.780608818888     1.007825032230
         H            2.200264116485     2.172836614883     0.418816818888     1.007825032230
         H            0.457216116485     2.367844614883     0.738765818888     1.007825032230
         H           -2.317454883515    -1.766393385117    -0.107545181112     1.007825032230
         H           -2.543714883515    -0.930484385117     1.415523818888     1.007825032230
         H           -4.184447883515     0.640692614883     0.319068818888     1.007825032230
         H           -3.958695883515    -0.199563385117    -1.217029181112     1.007825032230
         H           -4.696578883515    -1.048564385117     0.152750818888     1.007825032230

  Basis Set: AUG-CC-PVTZ
    Blend: AUG-CC-PVTZ
  Basis Set: (AUG-CC-PVTZ AUX)
    Blend: AUG-CC-PVTZ-JKFIT
	 Reference Energy          =    -512.3347639515108085 [Eh]
	 Singles Energy            =      -0.0000000000000000 [Eh]
	 Same-Spin Energy          =      -0.5201784074303326 [Eh]
	 Opposite-Spin Energy      =      -1.6213815510034491 [Eh]
	 Correlation Energy        =      -2.1415599584337817 [Eh]
	 Total Energy              =    -514.4763239099445400 [Eh]

	 ================> DF-SCS-MP2 Energies <==================
	-----------------------------------------------------------
	 SCS Same-Spin Scale       =       0.3333333333333333 [-]
	 SCS Opposite-Spin Scale   =       1.2000000000000000 [-]
	 SCS Same-Spin Energy      =      -0.1733928024767775 [Eh]
	 SCS Opposite-Spin Energy  =      -1.9456578612041389 [Eh]
	 SCS Correlation Energy    =      -2.1190506636809165 [Eh]
	 SCS Total Energy          =    -514.4538146151917317 [Eh]
	-----------------------------------------------------------

  Dipole Moment: [D]
     X:    -8.5771      Y:     0.7180      Z:     1.5675     Total:     8.7486

*** Psi4 exiting successfully. Buy a developer a beer!
