                               Psi4 1.3.2 release

  ==> Input File <==

--------------------------------------------------------------------------
#psi4
#
memory 32 gb

molecule  {
-1 1
  O       -1.6024110     1.2883820    -0.5634480
  O        2.0191420    -1.7287390     0.1939930
  O        3.3803020    -0.0587520    -0.5397320
  N       -0.0728927    -0.3108683     0.2398182
  C        1.0875530     0.4615680    -0.1724770
  C        1.3782960     1.6508690     0.7367710
  C       -2.4731170    -0.8032840     0.3122730
  C       -1.3649450     0.1785500    -0.0525630
  C        2.2214414    -0.5986834    -0.1514888
  C       -3.8468580    -0.3344400    -0.1480570
  H        0.9550610     0.8289670    -1.1997950
  H        0.0672430    -1.2232590     0.4643770
  H        1.5293690     1.3045580     1.7644240
  H        2.2851470     2.1591780     0.4026320
  H        0.5420990     2.3541860     0.7225810
  H       -2.2325720    -1.7800520    -0.1237300
  H       -2.4588320    -0.9441430     1.3993390
  H       -4.0995650     0.6270340     0.3028840
  H       -3.8738130    -0.2132220    -1.2332140
  H       -4.6116960    -1.0622230     0.1365660
units angstrom
no_reorient  #important for SAPT in psi4, default
symmetry c1  #important for SAPT in psi4, default
}

set PROPERTIES_ORIGIN ["COM"]
properties('MP2/aug-cc-pvtz', properties = ['dipole'])
--------------------------------------------------------------------------

    Molecular point group: c1
  Charge       = -1
  Multiplicity = 1
  Basis Set: AUG-CC-PVTZ
    Blend: AUG-CC-PVTZ
  Basis Set: (AUG-CC-PVTZ AUX)
    Blend: AUG-CC-PVTZ-JKFIT

    Orbital Energies [Eh]
    ---------------------

    Doubly Occupied:

       1A    -20.406068     2A    -20.336499     3A    -20.290390
       4A    -15.433595     5A    -11.235384     6A    -11.155889
       7A    -11.138652     8A    -11.127316     9A    -11.112573
      10A    -11.073839    11A     -1.246426    12A     -1.215770
      13A     -1.087126    14A     -1.059294    15A     -0.952329
      16A     -0.872362    17A     -0.787885    18A     -0.716898
      19A     -0.653487    20A     -0.589750    21A     -0.536425
      22A     -0.533956    23A     -0.515605    24A     -0.492392
      25A     -0.468222    26A     -0.439628    27A     -0.425786
      28A     -0.421512    29A     -0.415046    30A     -0.403755
      31A     -0.397805    32A     -0.380089    33A     -0.373690
      34A     -0.346875    35A     -0.304291    36A     -0.257362
      37A     -0.233681    38A     -0.206934    39A     -0.202051

  @DF-RHF Final Energy:  -512.31448377187883

   => Energetics <=

    Nuclear Repulsion Energy =            533.1772787605343638
    One-Electron Energy =               -1771.2902517589916442
    Two-Electron Energy =                 725.7984892265784538
    Total Energy =                       -512.3144837718788267
  Basis Set: (AUG-CC-PVTZ AUX)
    Blend: AUG-CC-PVTZ-RI
    Molecular point group: c1

    Geometry (in Angstrom), charge = -1, multiplicity = 1:

       Center              X                  Y                   Z               Mass
    ------------   -----------------  -----------------  -----------------  -----------------
         O           -1.683972771870     1.313469719600    -0.547941317695    15.994914619570
         O            1.937580228130    -1.703651280400     0.209499682305    15.994914619570
         O            3.298740228130    -0.033664280400    -0.524225317695    15.994914619570
         N           -0.154454471870    -0.285780580400     0.255324882305    14.003074004430
         C            1.005991228130     0.486655719600    -0.156970317695    12.000000000000
         C            1.296734228130     1.675956719600     0.752277682305    12.000000000000
         C           -2.554678771870    -0.778196280400     0.327779682305    12.000000000000
         C           -1.446506771870     0.203637719600    -0.037056317695    12.000000000000
         C            2.139879628130    -0.573595680400    -0.135982117695    12.000000000000
         C           -3.928419771870    -0.309352280400    -0.132550317695    12.000000000000
         H            0.873499228130     0.854054719600    -1.184288317695     1.007825032230
         H           -0.014318771870    -1.198171280400     0.479883682305     1.007825032230
         H            1.447807228130     1.329645719600     1.779930682305     1.007825032230
         H            2.203585228130     2.184265719600     0.418138682305     1.007825032230
         H            0.460537228130     2.379273719600     0.738087682305     1.007825032230
         H           -2.314133771870    -1.754964280400    -0.108223317695     1.007825032230
         H           -2.540393771870    -0.919055280400     1.414845682305     1.007825032230
         H           -4.181126771870     0.652121719600     0.318390682305     1.007825032230
         H           -3.955374771870    -0.188134280400    -1.217707317695     1.007825032230
         H           -4.693257771870    -1.037135280400     0.152072682305     1.007825032230

  Basis Set: AUG-CC-PVTZ
    Blend: AUG-CC-PVTZ
  Basis Set: (AUG-CC-PVTZ AUX)
    Blend: AUG-CC-PVTZ-JKFIT
	 Reference Energy          =    -512.3144837718788267 [Eh]
	 Singles Energy            =      -0.0000000000000000 [Eh]
	 Same-Spin Energy          =      -0.5200474410896958 [Eh]
	 Opposite-Spin Energy      =      -1.6218059060867920 [Eh]
	 Correlation Energy        =      -2.1418533471764878 [Eh]
	 Total Energy              =    -514.4563371190553198 [Eh]

	 ================> DF-SCS-MP2 Energies <==================
	-----------------------------------------------------------
	 SCS Same-Spin Scale       =       0.3333333333333333 [-]
	 SCS Opposite-Spin Scale   =       1.2000000000000000 [-]
	 SCS Same-Spin Energy      =      -0.1733491470298986 [Eh]
	 SCS Opposite-Spin Energy  =      -1.9461670873041503 [Eh]
	 SCS Correlation Energy    =      -2.1195162343340490 [Eh]
	 SCS Total Energy          =    -514.4340000062128411 [Eh]
	-----------------------------------------------------------

  Dipole Moment: [D]
     X:    -9.6424      Y:     0.2355      Z:     1.8108     Total:     9.8138

*** Psi4 exiting successfully. Buy a developer a beer!
