                               Psi4 1.3.2 release

  ==> Input File <==

--------------------------------------------------------------------------
#psi4
#
memory 32 gb

molecule  {
-1 1
  O       -1.6024110     1.2883820    -0.5634480
  O        2.0191420    -1.7287390     0.1939930
  O        3.3803020    -0.0587520    -0.5397320
  N       -0.1147610    -0.2476350     0.2334190
  C        1.0431618     0.5139553    -0.2053000
  C        1.3782960     1.6508690     0.7367710
  C       -2.4731170    -0.8032840     0.3122730
  C       -1.3364015     0.2341245    -0.0857702
  C        2.2731730    -0.5407160    -0.1753640
  C       -3.8468580    -0.3344400    -0.1480570
  H        0.9550610     0.8289670    -1.1997950
  H        0.0672430    -1.2232590     0.4643770
  H        1.5293690     1.3045580     1.7644240
  H        2.2851470     2.1591780     0.4026320
  H        0.5420990     2.3541860     0.7225810
  H       -2.2325720    -1.7800520    -0.1237300
  H       -2.4588320    -0.9441430     1.3993390
  H       -4.0995650     0.6270340     0.3028840
  H       -3.8738130    -0.2132220    -1.2332140
  H       -4.6116960    -1.0622230     0.1365660
units angstrom
no_reorient  #important for SAPT in psi4, default
symmetry c1  #important for SAPT in psi4, default
}

set PROPERTIES_ORIGIN ["COM"]
properties('MP2/aug-cc-pvtz', properties = ['dipole'])
--------------------------------------------------------------------------

    Molecular point group: c1
  Charge       = -1
  Multiplicity = 1
  Basis Set: AUG-CC-PVTZ
    Blend: AUG-CC-PVTZ
  Basis Set: (AUG-CC-PVTZ AUX)
    Blend: AUG-CC-PVTZ-JKFIT

    Orbital Energies [Eh]
    ---------------------

    Doubly Occupied:

       1A    -20.400644     2A    -20.323271     3A    -20.313606
       4A    -15.433724     5A    -11.219539     6A    -11.163368
       7A    -11.128962     8A    -11.120542     9A    -11.109357
      10A    -11.074876    11A     -1.279337    12A     -1.188349
      13A     -1.097907    14A     -1.082876    15A     -0.937895
      16A     -0.876372    17A     -0.772332    18A     -0.712676
      19A     -0.645609    20A     -0.583382    21A     -0.536448
      22A     -0.530823    23A     -0.518809    24A     -0.493206
      25A     -0.464263    26A     -0.444919    27A     -0.422927
      28A     -0.417723    29A     -0.414026    30A     -0.403616
      31A     -0.395023    32A     -0.383607    33A     -0.373483
      34A     -0.351168    35A     -0.293386    36A     -0.262689
      37A     -0.236073    38A     -0.217329    39A     -0.210786

  @DF-RHF Final Energy:  -512.32801290034638

   => Energetics <=

    Nuclear Repulsion Energy =            533.5205789781839485
    One-Electron Energy =               -1772.0273234426920226
    Two-Electron Energy =                 726.1787315641616942
    Total Energy =                       -512.3280129003463799
  Basis Set: (AUG-CC-PVTZ AUX)
    Blend: AUG-CC-PVTZ-RI
    Molecular point group: c1

    Geometry (in Angstrom), charge = -1, multiplicity = 1:

       Center              X                  Y                   Z               Mass
    ------------   -----------------  -----------------  -----------------  -----------------
         O           -1.682892169718     1.293502415601    -0.539830641213    15.994914619570
         O            1.938660830282    -1.723618584399     0.217610358787    15.994914619570
         O            3.299820830282    -0.053631584399    -0.516114641213    15.994914619570
         N           -0.195242169718    -0.242514584399     0.257036358787    14.003074004430
         C            0.962680630282     0.519075715601    -0.181682641213    12.000000000000
         C            1.297814830282     1.655989415601     0.760388358787    12.000000000000
         C           -2.553598169718    -0.798163584399     0.335890358787    12.000000000000
         C           -1.416882669718     0.239244915601    -0.062152841213    12.000000000000
         C            2.192691830282    -0.535595584399    -0.151746641213    12.000000000000
         C           -3.927339169718    -0.329319584399    -0.124439641213    12.000000000000
         H            0.874579830282     0.834087415601    -1.176177641213     1.007825032230
         H           -0.013238169718    -1.218138584399     0.487994358787     1.007825032230
         H            1.448887830282     1.309678415601     1.788041358787     1.007825032230
         H            2.204665830282     2.164298415601     0.426249358787     1.007825032230
         H            0.461617830282     2.359306415601     0.746198358787     1.007825032230
         H           -2.313053169718    -1.774931584399    -0.100112641213     1.007825032230
         H           -2.539313169718    -0.939022584399     1.422956358787     1.007825032230
         H           -4.180046169718     0.632154415601     0.326501358787     1.007825032230
         H           -3.954294169718    -0.208101584399    -1.209596641213     1.007825032230
         H           -4.692177169718    -1.057102584399     0.160183358787     1.007825032230

  Basis Set: AUG-CC-PVTZ
    Blend: AUG-CC-PVTZ
  Basis Set: (AUG-CC-PVTZ AUX)
    Blend: AUG-CC-PVTZ-JKFIT
	 Reference Energy          =    -512.3280129003463799 [Eh]
	 Singles Energy            =      -0.0000000000000000 [Eh]
	 Same-Spin Energy          =      -0.5192755375713491 [Eh]
	 Opposite-Spin Energy      =      -1.6194669769001060 [Eh]
	 Correlation Energy        =      -2.1387425144714554 [Eh]
	 Total Energy              =    -514.4667554148178397 [Eh]

	 ================> DF-SCS-MP2 Energies <==================
	-----------------------------------------------------------
	 SCS Same-Spin Scale       =       0.3333333333333333 [-]
	 SCS Opposite-Spin Scale   =       1.2000000000000000 [-]
	 SCS Same-Spin Energy      =      -0.1730918458571164 [Eh]
	 SCS Opposite-Spin Energy  =      -1.9433603722801271 [Eh]
	 SCS Correlation Energy    =      -2.1164522181372436 [Eh]
	 SCS Total Energy          =    -514.4444651184836630 [Eh]
	-----------------------------------------------------------

  Dipole Moment: [D]
     X:    -8.5410      Y:     0.9432      Z:     1.3838     Total:     8.7037

*** Psi4 exiting successfully. Buy a developer a beer!
