                               Psi4 1.4a3.dev225

  ==> Input File <==

--------------------------------------------------------------------------
#psi4
#
memory 32 gb

molecule  {
-1 1
  O       -1.5868420     1.2523650    -0.8113290
  O        2.0299390    -1.6922460     0.2543140
  O        3.4074630     0.0142020    -0.3584910
  N       -0.1383540    -0.2870410     0.0455440
  C        1.0782140     0.4735880    -0.1782270
  C        1.2275190     1.6106150     0.8299030
  C       -2.4816390    -0.8906360    -0.1487800
  C       -1.3641120     0.1217370    -0.3343690
  C        2.2406021    -0.4773207    -0.1007139
  C       -3.7126180    -0.2515540     0.4884160
  H        1.0494870     0.8996880    -1.1894520
  H        0.0515970    -1.2513350     0.3145600
  H        1.2660770     1.2028380     1.8451460
  H        2.1536960     2.1558630     0.6353850
  H        0.3800930     2.2967220     0.7589720
  H       -2.7387560    -1.2794370    -1.1416750
  H       -2.1327770    -1.7398080     0.4477120
  H       -3.4838230     0.1112750     1.4946450
  H       -4.0489630     0.5957980    -0.1116680
  H       -4.5299760    -0.9736440     0.5641870
units angstrom
no_reorient  #important for SAPT in psi4, default
symmetry c1  #important for SAPT in psi4, default
}

set PROPERTIES_ORIGIN ["COM"]
properties('MP2/aug-cc-pvtz', properties = ['dipole'])
--------------------------------------------------------------------------

    Molecular point group: c1
  Charge       = -1
  Multiplicity = 1
  Basis Set: AUG-CC-PVTZ
    Blend: AUG-CC-PVTZ
  Basis Set: (AUG-CC-PVTZ AUX)
    Blend: AUG-CC-PVTZ-JKFIT

    Orbital Energies [Eh]
    ---------------------

    Doubly Occupied:

       1A    -20.389634     2A    -20.324048     3A    -20.310632
       4A    -15.444875     5A    -11.224718     6A    -11.164221
       7A    -11.136034     8A    -11.128514     9A    -11.120080
      10A    -11.080746    11A     -1.240925    12A     -1.181214
      13A     -1.095242    14A     -1.071516    15A     -0.952464
      16A     -0.886044    17A     -0.786302    18A     -0.734226
      19A     -0.646846    20A     -0.594626    21A     -0.549688
      22A     -0.524477    23A     -0.517035    24A     -0.483951
      25A     -0.465325    26A     -0.444646    27A     -0.436040
      28A     -0.415987    29A     -0.411928    30A     -0.403327
      31A     -0.396568    32A     -0.376895    33A     -0.368049
      34A     -0.335241    35A     -0.298468    36A     -0.260755
      37A     -0.238046    38A     -0.223976    39A     -0.210030

  @DF-RHF Final Energy:  -512.32945257755773

   => Energetics <=

    Nuclear Repulsion Energy =            534.6040698933919657
    One-Electron Energy =               -1774.1203664786021363
    Two-Electron Energy =                 727.1868440076523257
    Total Energy =                       -512.3294525775577313
  Basis Set: (AUG-CC-PVTZ AUX)
    Blend: AUG-CC-PVTZ-RI
    Molecular point group: c1

    Geometry (in Angstrom), charge = -1, multiplicity = 1:

       Center              X                  Y                   Z               Mass
    ------------   -----------------  -----------------  -----------------  -----------------
         O           -1.665834119155     1.264562552455    -0.785751751643    15.994914619570
         O            1.950946880845    -1.680048447545     0.279891248357    15.994914619570
         O            3.328470880845     0.026399552455    -0.332913751643    15.994914619570
         N           -0.217346119155    -0.274843447545     0.071121248357    14.003074004430
         C            0.999221880845     0.485785552455    -0.152649751643    12.000000000000
         C            1.148526880845     1.622812552455     0.855480248357    12.000000000000
         C           -2.560631119155    -0.878438447545    -0.123202751643    12.000000000000
         C           -1.443104119155     0.133934552455    -0.308791751643    12.000000000000
         C            2.161609980845    -0.465123147545    -0.075136651643    12.000000000000
         C           -3.791610119155    -0.239356447545     0.513993248357    12.000000000000
         H            0.970494880845     0.911885552455    -1.163874751643     1.007825032230
         H           -0.027395119155    -1.239137447545     0.340137248357     1.007825032230
         H            1.187084880845     1.215035552455     1.870723248357     1.007825032230
         H            2.074703880845     2.168060552455     0.660962248357     1.007825032230
         H            0.301100880845     2.308919552455     0.784549248357     1.007825032230
         H           -2.817748119155    -1.267239447545    -1.116097751643     1.007825032230
         H           -2.211769119155    -1.727610447545     0.473289248357     1.007825032230
         H           -3.562815119155     0.123472552455     1.520222248357     1.007825032230
         H           -4.127955119155     0.607995552455    -0.086090751643     1.007825032230
         H           -4.608968119155    -0.961446447545     0.589764248357     1.007825032230

  Basis Set: AUG-CC-PVTZ
    Blend: AUG-CC-PVTZ
  Basis Set: (AUG-CC-PVTZ AUX)
    Blend: AUG-CC-PVTZ-JKFIT
	 Reference Energy          =    -512.3294525775577313 [Eh]
	 Singles Energy            =      -0.0000000000000000 [Eh]
	 Same-Spin Energy          =      -0.5213698257402760 [Eh]
	 Opposite-Spin Energy      =      -1.6238998120578705 [Eh]
	 Correlation Energy        =      -2.1452696377981466 [Eh]
	 Total Energy              =    -514.4747222153558823 [Eh]

	 ================> DF-SCS-MP2 Energies <==================
	-----------------------------------------------------------
	 SCS Same-Spin Scale       =       0.3333333333333333 [-]
	 SCS Opposite-Spin Scale   =       1.2000000000000000 [-]
	 SCS Same-Spin Energy      =      -0.1737899419134253 [Eh]
	 SCS Opposite-Spin Energy  =      -1.9486797744694444 [Eh]
	 SCS Correlation Energy    =      -2.1224697163828696 [Eh]
	 SCS Total Energy          =    -514.4519222939405836 [Eh]
	-----------------------------------------------------------

  Dipole Moment: [D]
     X:    -8.9670      Y:     0.4895      Z:     1.2528     Total:     9.0673

*** Psi4 exiting successfully. Buy a developer a beer!
