                               Psi4 1.4a3.dev225

  ==> Input File <==

--------------------------------------------------------------------------
#psi4
#
memory 32 gb

molecule  {
-1 1
  O       -1.5868420     1.2523650    -0.8113290
  O        2.0299390    -1.6922460     0.2543140
  O        3.4074630     0.0142020    -0.3584910
  N       -0.1383540    -0.2870410     0.0455440
  C        1.0782140     0.4735880    -0.1782270
  C        1.2275190     1.6106150     0.8299030
  C       -2.4816390    -0.8906360    -0.1487800
  C       -1.3641120     0.1217370    -0.3343690
  C        2.2699673    -0.4851062    -0.0934795
  C       -3.7126180    -0.2515540     0.4884160
  H        1.0494870     0.8996880    -1.1894520
  H        0.0515970    -1.2513350     0.3145600
  H        1.2660770     1.2028380     1.8451460
  H        2.1536960     2.1558630     0.6353850
  H        0.3800930     2.2967220     0.7589720
  H       -2.7387560    -1.2794370    -1.1416750
  H       -2.1327770    -1.7398080     0.4477120
  H       -3.4838230     0.1112750     1.4946450
  H       -4.0489630     0.5957980    -0.1116680
  H       -4.5299760    -0.9736440     0.5641870
units angstrom
no_reorient  #important for SAPT in psi4, default
symmetry c1  #important for SAPT in psi4, default
}

set PROPERTIES_ORIGIN ["COM"]
properties('MP2/aug-cc-pvtz', properties = ['dipole'])
--------------------------------------------------------------------------

    Molecular point group: c1
  Charge       = -1
  Multiplicity = 1
  Basis Set: AUG-CC-PVTZ
    Blend: AUG-CC-PVTZ
  Basis Set: (AUG-CC-PVTZ AUX)
    Blend: AUG-CC-PVTZ-JKFIT

    Orbital Energies [Eh]
    ---------------------

    Doubly Occupied:

       1A    -20.388270     2A    -20.322556     3A    -20.314046
       4A    -15.443342     5A    -11.223365     6A    -11.163402
       7A    -11.135113     8A    -11.127775     9A    -11.117570
      10A    -11.078822    11A     -1.239501    12A     -1.186796
      13A     -1.096581    14A     -1.078753    15A     -0.951217
      16A     -0.882296    17A     -0.784907    18A     -0.728654
      19A     -0.644641    20A     -0.591329    21A     -0.548129
      22A     -0.523563    23A     -0.515132    24A     -0.483485
      25A     -0.464249    26A     -0.443648    27A     -0.435355
      28A     -0.417270    29A     -0.411863    30A     -0.405167
      31A     -0.395980    32A     -0.376328    33A     -0.368639
      34A     -0.338943    35A     -0.297507    36A     -0.259366
      37A     -0.236708    38A     -0.225386    39A     -0.214094

  @DF-RHF Final Energy:  -512.33442176678500

   => Energetics <=

    Nuclear Repulsion Energy =            534.4324466857430025
    One-Electron Energy =               -1773.8142475720965194
    Two-Electron Energy =                 727.0473791195686317
    Total Energy =                       -512.3344217667849989
  Basis Set: (AUG-CC-PVTZ AUX)
    Blend: AUG-CC-PVTZ-RI
    Molecular point group: c1

    Geometry (in Angstrom), charge = -1, multiplicity = 1:

       Center              X                  Y                   Z               Mass
    ------------   -----------------  -----------------  -----------------  -----------------
         O           -1.668280096923     1.265211046588    -0.786354341838    15.994914619570
         O            1.948500903077    -1.679399953412     0.279288658162    15.994914619570
         O            3.326024903077     0.027048046588    -0.333516341838    15.994914619570
         N           -0.219792096923    -0.274194953412     0.070518658162    14.003074004430
         C            0.996775903077     0.486434046588    -0.153252341838    12.000000000000
         C            1.146080903077     1.623461046588     0.854877658162    12.000000000000
         C           -2.563077096923    -0.877789953412    -0.123805341838    12.000000000000
         C           -1.445550096923     0.134583046588    -0.309394341838    12.000000000000
         C            2.188529203077    -0.472260153412    -0.068504841838    12.000000000000
         C           -3.794056096923    -0.238707953412     0.513390658162    12.000000000000
         H            0.968048903077     0.912534046588    -1.164477341838     1.007825032230
         H           -0.029841096923    -1.238488953412     0.339534658162     1.007825032230
         H            1.184638903077     1.215684046588     1.870120658162     1.007825032230
         H            2.072257903077     2.168709046588     0.660359658162     1.007825032230
         H            0.298654903077     2.309568046588     0.783946658162     1.007825032230
         H           -2.820194096923    -1.266590953412    -1.116700341838     1.007825032230
         H           -2.214215096923    -1.726961953412     0.472686658162     1.007825032230
         H           -3.565261096923     0.124121046588     1.519619658162     1.007825032230
         H           -4.130401096923     0.608644046588    -0.086693341838     1.007825032230
         H           -4.611414096923    -0.960797953412     0.589161658162     1.007825032230

  Basis Set: AUG-CC-PVTZ
    Blend: AUG-CC-PVTZ
  Basis Set: (AUG-CC-PVTZ AUX)
    Blend: AUG-CC-PVTZ-JKFIT
	 Reference Energy          =    -512.3344217667849989 [Eh]
	 Singles Energy            =      -0.0000000000000000 [Eh]
	 Same-Spin Energy          =      -0.5207767803563725 [Eh]
	 Opposite-Spin Energy      =      -1.6225837602408197 [Eh]
	 Correlation Energy        =      -2.1433605405971923 [Eh]
	 Total Energy              =    -514.4777823073821992 [Eh]

	 ================> DF-SCS-MP2 Energies <==================
	-----------------------------------------------------------
	 SCS Same-Spin Scale       =       0.3333333333333333 [-]
	 SCS Opposite-Spin Scale   =       1.2000000000000000 [-]
	 SCS Same-Spin Energy      =      -0.1735922601187908 [Eh]
	 SCS Opposite-Spin Energy  =      -1.9471005122889835 [Eh]
	 SCS Correlation Energy    =      -2.1206927724077742 [Eh]
	 SCS Total Energy          =    -514.4551145391927776 [Eh]
	-----------------------------------------------------------

  Dipole Moment: [D]
     X:    -8.7552      Y:     0.4571      Z:     1.2271     Total:     8.8525

*** Psi4 exiting successfully. Buy a developer a beer!
