                               Psi4 1.3.2 release

  ==> Input File <==

--------------------------------------------------------------------------
#psi4
#
memory 32 gb

molecule  {
-1 1
  O       -1.6024110     1.2883820    -0.5634480
  O        2.0191420    -1.7287390     0.1939930
  O        3.3803020    -0.0587520    -0.5397320
  N       -0.1348828    -0.2377612     0.1878962
  C        1.0875530     0.4615680    -0.1724770
  C        1.3782960     1.6508690     0.7367710
  C       -2.4731170    -0.8032840     0.3122730
  C       -1.3649450     0.1785500    -0.0525630
  C        2.2731730    -0.5407160    -0.1753640
  C       -3.8468580    -0.3344400    -0.1480570
  H        0.9200196     0.8133580    -1.2001417
  H        0.0672430    -1.2232590     0.4643770
  H        1.5293690     1.3045580     1.7644240
  H        2.2851470     2.1591780     0.4026320
  H        0.5420990     2.3541860     0.7225810
  H       -2.2325720    -1.7800520    -0.1237300
  H       -2.4588320    -0.9441430     1.3993390
  H       -4.0995650     0.6270340     0.3028840
  H       -3.8738130    -0.2132220    -1.2332140
  H       -4.6116960    -1.0622230     0.1365660
units angstrom
no_reorient  #important for SAPT in psi4, default
symmetry c1  #important for SAPT in psi4, default
}

set PROPERTIES_ORIGIN ["COM"]
properties('MP2/aug-cc-pvtz', properties = ['dipole'])
--------------------------------------------------------------------------

    Molecular point group: c1
  Charge       = -1
  Multiplicity = 1
  Basis Set: AUG-CC-PVTZ
    Blend: AUG-CC-PVTZ
  Basis Set: (AUG-CC-PVTZ AUX)
    Blend: AUG-CC-PVTZ-JKFIT

    Orbital Energies [Eh]
    ---------------------

    Doubly Occupied:

       1A    -20.384278     2A    -20.324467     3A    -20.315669
       4A    -15.439734     5A    -11.217391     6A    -11.164306
       7A    -11.133967     8A    -11.123063     9A    -11.116599
      10A    -11.077628    11A     -1.240463    12A     -1.192167
      13A     -1.098709    14A     -1.084351    15A     -0.948177
      16A     -0.881548    17A     -0.783575    18A     -0.724908
      19A     -0.636697    20A     -0.589531    21A     -0.544519
      22A     -0.532714    23A     -0.508648    24A     -0.479859
      25A     -0.468443    26A     -0.439646    27A     -0.425102
      28A     -0.419553    29A     -0.412399    30A     -0.404925
      31A     -0.397885    32A     -0.375452    33A     -0.368396
      34A     -0.342277    35A     -0.296096    36A     -0.256147
      37A     -0.238810    38A     -0.225369    39A     -0.217282

  @DF-RHF Final Energy:  -512.33476859858149

   => Energetics <=

    Nuclear Repulsion Energy =            533.8585590923961490
    One-Electron Energy =               -1772.7251530746682420
    Two-Electron Energy =                 726.5318253836907161
    Total Energy =                       -512.3347685985814906
  Basis Set: (AUG-CC-PVTZ AUX)
    Blend: AUG-CC-PVTZ-RI
    Molecular point group: c1

    Geometry (in Angstrom), charge = -1, multiplicity = 1:

       Center              X                  Y                   Z               Mass
    ------------   -----------------  -----------------  -----------------  -----------------
         O           -1.682011252676     1.301644577066    -0.540903439629    15.994914619570
         O            1.939541747324    -1.715476422934     0.216537560371    15.994914619570
         O            3.300701747324    -0.045489422934    -0.517187439629    15.994914619570
         N           -0.214483052676    -0.224498622934     0.210440760371    14.003074004430
         C            1.007952747324     0.474830577066    -0.149932439629    12.000000000000
         C            1.298695747324     1.664131577066     0.759315560371    12.000000000000
         C           -2.552717252676    -0.790021422934     0.334817560371    12.000000000000
         C           -1.444545252676     0.191812577066    -0.030018439629    12.000000000000
         C            2.193572747324    -0.527453422934    -0.152819439629    12.000000000000
         C           -3.926458252676    -0.321177422934    -0.125512439629    12.000000000000
         H            0.840419347324     0.826620577066    -1.177597139629     1.007825032230
         H           -0.012357252676    -1.209996422934     0.486921560371     1.007825032230
         H            1.449768747324     1.317820577066     1.786968560371     1.007825032230
         H            2.205546747324     2.172440577066     0.425176560371     1.007825032230
         H            0.462498747324     2.367448577066     0.745125560371     1.007825032230
         H           -2.312172252676    -1.766789422934    -0.101185439629     1.007825032230
         H           -2.538432252676    -0.930880422934     1.421883560371     1.007825032230
         H           -4.179165252676     0.640296577066     0.325428560371     1.007825032230
         H           -3.953413252676    -0.199959422934    -1.210669439629     1.007825032230
         H           -4.691296252676    -1.048960422934     0.159110560371     1.007825032230

  Basis Set: AUG-CC-PVTZ
    Blend: AUG-CC-PVTZ
  Basis Set: (AUG-CC-PVTZ AUX)
    Blend: AUG-CC-PVTZ-JKFIT
	 Reference Energy          =    -512.3347685985814906 [Eh]
	 Singles Energy            =      -0.0000000000000000 [Eh]
	 Same-Spin Energy          =      -0.5203188835190626 [Eh]
	 Opposite-Spin Energy      =      -1.6213796532810634 [Eh]
	 Correlation Energy        =      -2.1416985368001260 [Eh]
	 Total Energy              =    -514.4764671353816539 [Eh]

	 ================> DF-SCS-MP2 Energies <==================
	-----------------------------------------------------------
	 SCS Same-Spin Scale       =       0.3333333333333333 [-]
	 SCS Opposite-Spin Scale   =       1.2000000000000000 [-]
	 SCS Same-Spin Energy      =      -0.1734396278396875 [Eh]
	 SCS Opposite-Spin Energy  =      -1.9456555839372760 [Eh]
	 SCS Correlation Energy    =      -2.1190952117769637 [Eh]
	 SCS Total Energy          =    -514.4538638103584844 [Eh]
	-----------------------------------------------------------

  Dipole Moment: [D]
     X:    -8.4573      Y:     0.5657      Z:     1.6901     Total:     8.6431

*** Psi4 exiting successfully. Buy a developer a beer!
