                               Psi4 1.3.2 release

  ==> Input File <==

--------------------------------------------------------------------------
#psi4
#
memory 32 gb

molecule  {
-1 1
  O       -1.6024110     1.2883820    -0.5634480
  O        2.0191420    -1.7287390     0.1939930
  O        3.3803020    -0.0587520    -0.5397320
  N       -0.1147610    -0.2476350     0.2334190
  C        1.0875530     0.4615680    -0.1724770
  C        1.3782960     1.6508690     0.7367710
  C       -2.4731170    -0.8032840     0.3122730
  C       -1.3649450     0.1785500    -0.0525630
  C        2.2731730    -0.5407160    -0.1753640
  C       -3.8494357    -0.3567302    -0.1622997
  H        0.9550610     0.8289670    -1.1997950
  H        0.0672430    -1.2232590     0.4643770
  H        1.5293690     1.3045580     1.7644240
  H        2.2851470     2.1591780     0.4026320
  H        0.5420990     2.3541860     0.7225810
  H       -2.2494717    -1.7800202    -0.1327050
  H       -2.4588320    -0.9441430     1.3993390
  H       -4.0995650     0.6270340     0.3028840
  H       -3.8738130    -0.2132220    -1.2332140
  H       -4.6116960    -1.0622230     0.1365660
units angstrom
no_reorient  #important for SAPT in psi4, default
symmetry c1  #important for SAPT in psi4, default
}

set PROPERTIES_ORIGIN ["COM"]
properties('MP2/aug-cc-pvtz', properties = ['dipole'])
--------------------------------------------------------------------------

    Molecular point group: c1
  Charge       = -1
  Multiplicity = 1
  Basis Set: AUG-CC-PVTZ
    Blend: AUG-CC-PVTZ
  Basis Set: (AUG-CC-PVTZ AUX)
    Blend: AUG-CC-PVTZ-JKFIT

    Orbital Energies [Eh]
    ---------------------

    Doubly Occupied:

       1A    -20.391904     2A    -20.322283     3A    -20.313766
       4A    -15.438088     5A    -11.223974     6A    -11.161953
       7A    -11.135397     8A    -11.124152     9A    -11.114782
      10A    -11.075622    11A     -1.241683    12A     -1.190575
      13A     -1.096653    14A     -1.081225    15A     -0.949424
      16A     -0.878541    17A     -0.783853    18A     -0.720976
      19A     -0.639552    20A     -0.588820    21A     -0.542288
      22A     -0.533028    23A     -0.511025    24A     -0.484525
      25A     -0.465592    26A     -0.438623    27A     -0.426674
      28A     -0.421917    29A     -0.410121    30A     -0.403187
      31A     -0.395745    32A     -0.375297    33A     -0.370116
      34A     -0.341505    35A     -0.299823    36A     -0.257159
      37A     -0.236904    38A     -0.223067    39A     -0.215598

  @DF-RHF Final Energy:  -512.33518365073712

   => Energetics <=

    Nuclear Repulsion Energy =            533.3164370287552174
    One-Electron Energy =               -1771.6524081292152459
    Two-Electron Energy =                 726.0007874497229068
    Total Energy =                       -512.3351836507371218
  Basis Set: (AUG-CC-PVTZ AUX)
    Blend: AUG-CC-PVTZ-RI
    Molecular point group: c1

    Geometry (in Angstrom), charge = -1, multiplicity = 1:

       Center              X                  Y                   Z               Mass
    ------------   -----------------  -----------------  -----------------  -----------------
         O           -1.683879272796     1.304351548716    -0.544081501794    15.994914619570
         O            1.937673727204    -1.712769451284     0.213359498206    15.994914619570
         O            3.298833727204    -0.042782451284    -0.520365501794    15.994914619570
         N           -0.196229272796    -0.231665451284     0.252785498206    14.003074004430
         C            1.006084727204     0.477537548716    -0.153110501794    12.000000000000
         C            1.296827727204     1.666838548716     0.756137498206    12.000000000000
         C           -2.554585272796    -0.787314451284     0.331639498206    12.000000000000
         C           -1.446413272796     0.194519548716    -0.033196501794    12.000000000000
         C            2.191704727204    -0.524746451284    -0.155997501794    12.000000000000
         C           -3.930903972796    -0.340760651284    -0.142933201794    12.000000000000
         H            0.873592727204     0.844936548716    -1.180428501794     1.007825032230
         H           -0.014225272796    -1.207289451284     0.483743498206     1.007825032230
         H            1.447900727204     1.320527548716     1.783790498206     1.007825032230
         H            2.203678727204     2.175147548716     0.421998498206     1.007825032230
         H            0.460630727204     2.370155548716     0.741947498206     1.007825032230
         H           -2.330939972796    -1.764050651284    -0.113338501794     1.007825032230
         H           -2.540300272796    -0.928173451284     1.418705498206     1.007825032230
         H           -4.181033272796     0.643003548716     0.322250498206     1.007825032230
         H           -3.955281272796    -0.197252451284    -1.213847501794     1.007825032230
         H           -4.693164272796    -1.046253451284     0.155932498206     1.007825032230

  Basis Set: AUG-CC-PVTZ
    Blend: AUG-CC-PVTZ
  Basis Set: (AUG-CC-PVTZ AUX)
    Blend: AUG-CC-PVTZ-JKFIT
	 Reference Energy          =    -512.3351836507371218 [Eh]
	 Singles Energy            =      -0.0000000000000000 [Eh]
	 Same-Spin Energy          =      -0.5201748957768867 [Eh]
	 Opposite-Spin Energy      =      -1.6213948343438429 [Eh]
	 Correlation Energy        =      -2.1415697301207297 [Eh]
	 Total Energy              =    -514.4767533808578719 [Eh]

	 ================> DF-SCS-MP2 Energies <==================
	-----------------------------------------------------------
	 SCS Same-Spin Scale       =       0.3333333333333333 [-]
	 SCS Opposite-Spin Scale   =       1.2000000000000000 [-]
	 SCS Same-Spin Energy      =      -0.1733916319256289 [Eh]
	 SCS Opposite-Spin Energy  =      -1.9456738012126114 [Eh]
	 SCS Correlation Energy    =      -2.1190654331382404 [Eh]
	 SCS Total Energy          =    -514.4542490838753110 [Eh]
	-----------------------------------------------------------

  Dipole Moment: [D]
     X:    -8.6830      Y:     0.6056      Z:     1.5874     Total:     8.8477

*** Psi4 exiting successfully. Buy a developer a beer!
