                               Psi4 1.3.2 release

  ==> Input File <==

--------------------------------------------------------------------------
#psi4
#
memory 32 gb

molecule  {
-1 1
  O       -1.6024110     1.2883820    -0.5634480
  O        2.0191420    -1.7287390     0.1939930
  O        3.3803020    -0.0587520    -0.5397320
  N       -0.1147610    -0.2476350     0.2334190
  C        1.0875530     0.4615680    -0.1724770
  C        1.3782960     1.6508690     0.7367710
  C       -2.4731170    -0.8032840     0.3122730
  C       -1.3649450     0.1785500    -0.0525630
  C        2.1853937    -0.5789288    -0.1464749
  C       -3.8468580    -0.3344400    -0.1480570
  H        0.9550610     0.8289670    -1.1997950
  H        0.0672430    -1.2232590     0.4643770
  H        1.5293690     1.3045580     1.7644240
  H        2.2851470     2.1591780     0.4026320
  H        0.5420990     2.3541860     0.7225810
  H       -2.2325720    -1.7800520    -0.1237300
  H       -2.4588320    -0.9441430     1.3993390
  H       -4.0995650     0.6270340     0.3028840
  H       -3.8738130    -0.2132220    -1.2332140
  H       -4.6116960    -1.0622230     0.1365660
units angstrom
no_reorient  #important for SAPT in psi4, default
symmetry c1  #important for SAPT in psi4, default
}

set PROPERTIES_ORIGIN ["COM"]
properties('MP2/aug-cc-pvtz', properties = ['dipole'])
--------------------------------------------------------------------------

    Molecular point group: c1
  Charge       = -1
  Multiplicity = 1
  Basis Set: AUG-CC-PVTZ
    Blend: AUG-CC-PVTZ
  Basis Set: (AUG-CC-PVTZ AUX)
    Blend: AUG-CC-PVTZ-JKFIT

    Orbital Energies [Eh]
    ---------------------

    Doubly Occupied:

       1A    -20.395332     2A    -20.341746     3A    -20.290921
       4A    -15.441879     5A    -11.226889     6A    -11.161487
       7A    -11.138110     8A    -11.126465     9A    -11.119274
      10A    -11.077373    11A     -1.245442    12A     -1.211739
      13A     -1.094622    14A     -1.048238    15A     -0.952342
      16A     -0.882302    17A     -0.787325    18A     -0.730324
      19A     -0.644441    20A     -0.594042    21A     -0.544150
      22A     -0.536660    23A     -0.517199    24A     -0.487269
      25A     -0.472922    26A     -0.441287    27A     -0.425544
      28A     -0.420929    29A     -0.412715    30A     -0.402107
      31A     -0.399330    32A     -0.378809    33A     -0.371563
      34A     -0.344839    35A     -0.301943    36A     -0.260464
      37A     -0.236998    38A     -0.209791    39A     -0.200218

  @DF-RHF Final Energy:  -512.31839393132839

   => Energetics <=

    Nuclear Repulsion Energy =            534.0162462127119625
    One-Electron Energy =               -1772.9192112826440280
    Two-Electron Energy =                 726.5845711386037920
    Total Energy =                       -512.3183939313283872
  Basis Set: (AUG-CC-PVTZ AUX)
    Blend: AUG-CC-PVTZ-RI
    Molecular point group: c1

    Geometry (in Angstrom), charge = -1, multiplicity = 1:

       Center              X                  Y                   Z               Mass
    ------------   -----------------  -----------------  -----------------  -----------------
         O           -1.676900618683     1.305678046005    -0.547736955408    15.994914619570
         O            1.944652381317    -1.711442953995     0.209704044592    15.994914619570
         O            3.305812381317    -0.041455953995    -0.524020955408    15.994914619570
         N           -0.189250618683    -0.230338953995     0.249130044592    14.003074004430
         C            1.013063381317     0.478864046005    -0.156765955408    12.000000000000
         C            1.303806381317     1.668165046005     0.752482044592    12.000000000000
         C           -2.547606618683    -0.785987953995     0.327984044592    12.000000000000
         C           -1.439434618683     0.195846046005    -0.036851955408    12.000000000000
         C            2.110904081317    -0.561632753995    -0.130763855408    12.000000000000
         C           -3.921347618683    -0.317143953995    -0.132345955408    12.000000000000
         H            0.880571381317     0.846263046005    -1.184083955408     1.007825032230
         H           -0.007246618683    -1.205962953995     0.480088044592     1.007825032230
         H            1.454879381317     1.321854046005     1.780135044592     1.007825032230
         H            2.210657381317     2.176474046005     0.418343044592     1.007825032230
         H            0.467609381317     2.371482046005     0.738292044592     1.007825032230
         H           -2.307061618683    -1.762755953995    -0.108018955408     1.007825032230
         H           -2.533321618683    -0.926846953995     1.415050044592     1.007825032230
         H           -4.174054618683     0.644330046005     0.318595044592     1.007825032230
         H           -3.948302618683    -0.195925953995    -1.217502955408     1.007825032230
         H           -4.686185618683    -1.044926953995     0.152277044592     1.007825032230

  Basis Set: AUG-CC-PVTZ
    Blend: AUG-CC-PVTZ
  Basis Set: (AUG-CC-PVTZ AUX)
    Blend: AUG-CC-PVTZ-JKFIT
	 Reference Energy          =    -512.3183939313283872 [Eh]
	 Singles Energy            =      -0.0000000000000000 [Eh]
	 Same-Spin Energy          =      -0.5209914171508626 [Eh]
	 Opposite-Spin Energy      =      -1.6232989467880250 [Eh]
	 Correlation Energy        =      -2.1442903639388877 [Eh]
	 Total Energy              =    -514.4626842952673087 [Eh]

	 ================> DF-SCS-MP2 Energies <==================
	-----------------------------------------------------------
	 SCS Same-Spin Scale       =       0.3333333333333333 [-]
	 SCS Opposite-Spin Scale   =       1.2000000000000000 [-]
	 SCS Same-Spin Energy      =      -0.1736638057169542 [Eh]
	 SCS Opposite-Spin Energy  =      -1.9479587361456299 [Eh]
	 SCS Correlation Energy    =      -2.1216225418625840 [Eh]
	 SCS Total Energy          =    -514.4400164731910081 [Eh]
	-----------------------------------------------------------

  Dipole Moment: [D]
     X:    -9.5128      Y:     0.1876      Z:     1.9054     Total:     9.7036

*** Psi4 exiting successfully. Buy a developer a beer!
