                               Psi4 1.3.2 release

  ==> Input File <==

--------------------------------------------------------------------------
#psi4
#
memory 32 gb

molecule  {
-1 1
  O       -1.6024110     1.2883820    -0.5634480
  O        2.0191420    -1.7287390     0.1939930
  O        3.3803020    -0.0587520    -0.5397320
  N       -0.1147610    -0.2476350     0.2334190
  C        1.0875530     0.4615680    -0.1724770
  C        1.3782960     1.6508690     0.7367710
  C       -2.4731170    -0.8032840     0.3122730
  C       -1.3649450     0.1785500    -0.0525630
  C        2.4259092    -0.6698342    -0.1757359
  C       -3.8468580    -0.3344400    -0.1480570
  H        0.9550610     0.8289670    -1.1997950
  H        0.0672430    -1.2232590     0.4643770
  H        1.5293690     1.3045580     1.7644240
  H        2.2851470     2.1591780     0.4026320
  H        0.5420990     2.3541860     0.7225810
  H       -2.2325720    -1.7800520    -0.1237300
  H       -2.4588320    -0.9441430     1.3993390
  H       -4.0995650     0.6270340     0.3028840
  H       -3.8738130    -0.2132220    -1.2332140
  H       -4.6116960    -1.0622230     0.1365660
units angstrom
no_reorient  #important for SAPT in psi4, default
symmetry c1  #important for SAPT in psi4, default
}

set PROPERTIES_ORIGIN ["COM"]
properties('MP2/aug-cc-pvtz', properties = ['dipole'])
--------------------------------------------------------------------------

    Molecular point group: c1
  Charge       = -1
  Multiplicity = 1
  Basis Set: AUG-CC-PVTZ
    Blend: AUG-CC-PVTZ
  Basis Set: (AUG-CC-PVTZ AUX)
    Blend: AUG-CC-PVTZ-JKFIT

    Orbital Energies [Eh]
    ---------------------

    Doubly Occupied:

       1A    -20.380976     2A    -20.340274     3A    -20.331472
       4A    -15.425629     5A    -11.212362     6A    -11.170446
       7A    -11.128424     8A    -11.118950     9A    -11.080573
      10A    -11.059737    11A     -1.242254    12A     -1.229433
      13A     -1.161474    14A     -1.073303    15A     -0.941073
      16A     -0.852117    17A     -0.774383    18A     -0.689182
      19A     -0.624142    20A     -0.570127    21A     -0.537455
      22A     -0.525762    23A     -0.501911    24A     -0.481864
      25A     -0.459838    26A     -0.456674    27A     -0.431508
      28A     -0.423082    29A     -0.413142    30A     -0.407419
      31A     -0.390847    32A     -0.384043    33A     -0.363274
      34A     -0.340372    35A     -0.292543    36A     -0.271311
      37A     -0.256240    38A     -0.235217    39A     -0.171169

  @DF-RHF Final Energy:  -512.31453158730892

   => Energetics <=

    Nuclear Repulsion Energy =            532.3863029795778630
    One-Electron Energy =               -1769.9016607667060725
    Two-Electron Energy =                 725.2008261998194030
    Total Energy =                       -512.3145315873089203
  Basis Set: (AUG-CC-PVTZ AUX)
    Blend: AUG-CC-PVTZ-RI
    Molecular point group: c1

    Geometry (in Angstrom), charge = -1, multiplicity = 1:

       Center              X                  Y                   Z               Mass
    ------------   -----------------  -----------------  -----------------  -----------------
         O           -1.696934385387     1.313250021930    -0.545299656991    15.994914619570
         O            1.924618614613    -1.703870978070     0.212141343009    15.994914619570
         O            3.285778614613    -0.033883978070    -0.521583656991    15.994914619570
         N           -0.209284385387    -0.222766978070     0.251567343009    14.003074004430
         C            0.993029614613     0.486436021930    -0.154328656991    12.000000000000
         C            1.283772614613     1.675737021930     0.754919343009    12.000000000000
         C           -2.567640385387    -0.778415978070     0.330421343009    12.000000000000
         C           -1.459468385387     0.203418021930    -0.034414656991    12.000000000000
         C            2.331385814613    -0.644966178070    -0.157587556991    12.000000000000
         C           -3.941381385387    -0.309571978070    -0.129908656991    12.000000000000
         H            0.860537614613     0.853835021930    -1.181646656991     1.007825032230
         H           -0.027280385387    -1.198390978070     0.482525343009     1.007825032230
         H            1.434845614613     1.329426021930     1.782572343009     1.007825032230
         H            2.190623614613     2.184046021930     0.420780343009     1.007825032230
         H            0.447575614613     2.379054021930     0.740729343009     1.007825032230
         H           -2.327095385387    -1.755183978070    -0.105581656991     1.007825032230
         H           -2.553355385387    -0.919274978070     1.417487343009     1.007825032230
         H           -4.194088385387     0.651902021930     0.321032343009     1.007825032230
         H           -3.968336385387    -0.188353978070    -1.215065656991     1.007825032230
         H           -4.706219385387    -1.037354978070     0.154714343009     1.007825032230

  Basis Set: AUG-CC-PVTZ
    Blend: AUG-CC-PVTZ
  Basis Set: (AUG-CC-PVTZ AUX)
    Blend: AUG-CC-PVTZ-JKFIT
	 Reference Energy          =    -512.3145315873089203 [Eh]
	 Singles Energy            =      -0.0000000000000000 [Eh]
	 Same-Spin Energy          =      -0.5193634123441675 [Eh]
	 Opposite-Spin Energy      =      -1.6182422459481776 [Eh]
	 Correlation Energy        =      -2.1376056582923448 [Eh]
	 Total Energy              =    -514.4521372456013069 [Eh]

	 ================> DF-SCS-MP2 Energies <==================
	-----------------------------------------------------------
	 SCS Same-Spin Scale       =       0.3333333333333333 [-]
	 SCS Opposite-Spin Scale   =       1.2000000000000000 [-]
	 SCS Same-Spin Energy      =      -0.1731211374480558 [Eh]
	 SCS Opposite-Spin Energy  =      -1.9418906951378130 [Eh]
	 SCS Correlation Energy    =      -2.1150118325858687 [Eh]
	 SCS Total Energy          =    -514.4295434198947987 [Eh]
	-----------------------------------------------------------

  Dipole Moment: [D]
     X:    -7.3224      Y:    -0.4195      Z:     1.4980     Total:     7.4858

*** Psi4 exiting successfully. Buy a developer a beer!
