                               Psi4 1.4a3.dev225

  ==> Input File <==

--------------------------------------------------------------------------
#psi4
#
memory 32 gb

molecule  {
-1 1
  O       -1.5868420     1.2523650    -0.8113290
  O        2.0299390    -1.6922460     0.2543140
  O        3.4074630     0.0142020    -0.3584910
  N       -0.1383540    -0.2870410     0.0455440
  C        1.0782140     0.4735880    -0.1782270
  C        1.2275190     1.6106150     0.8299030
  C       -2.4816390    -0.8906360    -0.1487800
  C       -1.3641120     0.1217370    -0.3343690
  C        2.2855270    -0.4976230    -0.0923730
  C       -3.7126180    -0.2515540     0.4884160
  H        1.0494870     0.8996880    -1.1894520
  H        0.0478687    -1.2324083     0.3092799
  H        1.2660770     1.2028380     1.8451460
  H        2.1536960     2.1558630     0.6353850
  H        0.3800930     2.2967220     0.7589720
  H       -2.7387560    -1.2794370    -1.1416750
  H       -2.1327770    -1.7398080     0.4477120
  H       -3.4838230     0.1112750     1.4946450
  H       -4.0489630     0.5957980    -0.1116680
  H       -4.5299760    -0.9736440     0.5641870
units angstrom
no_reorient  #important for SAPT in psi4, default
symmetry c1  #important for SAPT in psi4, default
}

set PROPERTIES_ORIGIN ["COM"]
properties('MP2/aug-cc-pvtz', properties = ['dipole'])
--------------------------------------------------------------------------

    Molecular point group: c1
  Charge       = -1
  Multiplicity = 1
  Basis Set: AUG-CC-PVTZ
    Blend: AUG-CC-PVTZ
  Basis Set: (AUG-CC-PVTZ AUX)
    Blend: AUG-CC-PVTZ-JKFIT

    Orbital Energies [Eh]
    ---------------------

    Doubly Occupied:

       1A    -20.387792     2A    -20.322944     3A    -20.314684
       4A    -15.441110     5A    -11.222910     6A    -11.162801
       7A    -11.134836     8A    -11.127549     9A    -11.115570
      10A    -11.077462    11A     -1.239115    12A     -1.191278
      13A     -1.099554    14A     -1.083472    15A     -0.950731
      16A     -0.879912    17A     -0.784539    18A     -0.725231
      19A     -0.647659    20A     -0.589875    21A     -0.547123
      22A     -0.523240    23A     -0.514458    24A     -0.483658
      25A     -0.463811    26A     -0.443593    27A     -0.435167
      28A     -0.419135    29A     -0.411812    30A     -0.406095
      31A     -0.395702    32A     -0.376379    33A     -0.369740
      34A     -0.341183    35A     -0.297214    36A     -0.259032
      37A     -0.238016    38A     -0.223516    39A     -0.216132

  @DF-RHF Final Energy:  -512.33699561015101

   => Energetics <=

    Nuclear Repulsion Energy =            534.4419289454098134
    One-Electron Energy =               -1773.8297916131639340
    Two-Electron Energy =                 727.0508670576032273
    Total Energy =                       -512.3369956101510070
  Basis Set: (AUG-CC-PVTZ AUX)
    Blend: AUG-CC-PVTZ-RI
    Molecular point group: c1

    Geometry (in Angstrom), charge = -1, multiplicity = 1:

       Center              X                  Y                   Z               Mass
    ------------   -----------------  -----------------  -----------------  -----------------
         O           -1.669550062351     1.266121231752    -0.786409570547    15.994914619570
         O            1.947230937649    -1.678489768248     0.279233429453    15.994914619570
         O            3.324754937649     0.027958231752    -0.333571570547    15.994914619570
         N           -0.221062062351    -0.273284768248     0.070463429453    14.003074004430
         C            0.995505937649     0.487344231752    -0.153307570547    12.000000000000
         C            1.144810937649     1.624371231752     0.854822429453    12.000000000000
         C           -2.564347062351    -0.876879768248    -0.123860570547    12.000000000000
         C           -1.446820062351     0.135493231752    -0.309449570547    12.000000000000
         C            2.202818937649    -0.483866768248    -0.067453570547    12.000000000000
         C           -3.795326062351    -0.237797768248     0.513335429453    12.000000000000
         H            0.966778937649     0.913444231752    -1.164532570547     1.007825032230
         H           -0.034839362351    -1.218652068248     0.334199329453     1.007825032230
         H            1.183368937649     1.216594231752     1.870065429453     1.007825032230
         H            2.070987937649     2.169619231752     0.660304429453     1.007825032230
         H            0.297384937649     2.310478231752     0.783891429453     1.007825032230
         H           -2.821464062351    -1.265680768248    -1.116755570547     1.007825032230
         H           -2.215485062351    -1.726051768248     0.472631429453     1.007825032230
         H           -3.566531062351     0.125031231752     1.519564429453     1.007825032230
         H           -4.131671062351     0.609554231752    -0.086748570547     1.007825032230
         H           -4.612684062351    -0.959887768248     0.589106429453     1.007825032230

  Basis Set: AUG-CC-PVTZ
    Blend: AUG-CC-PVTZ
  Basis Set: (AUG-CC-PVTZ AUX)
    Blend: AUG-CC-PVTZ-JKFIT
	 Reference Energy          =    -512.3369956101510070 [Eh]
	 Singles Energy            =      -0.0000000000000000 [Eh]
	 Same-Spin Energy          =      -0.5201951670561634 [Eh]
	 Opposite-Spin Energy      =      -1.6213649749366752 [Eh]
	 Correlation Energy        =      -2.1415601419928385 [Eh]
	 Total Energy              =    -514.4785557521438477 [Eh]

	 ================> DF-SCS-MP2 Energies <==================
	-----------------------------------------------------------
	 SCS Same-Spin Scale       =       0.3333333333333333 [-]
	 SCS Opposite-Spin Scale   =       1.2000000000000000 [-]
	 SCS Same-Spin Energy      =      -0.1733983890187211 [Eh]
	 SCS Opposite-Spin Energy  =      -1.9456379699240101 [Eh]
	 SCS Correlation Energy    =      -2.1190363589427310 [Eh]
	 SCS Total Energy          =    -514.4560319690937149 [Eh]
	-----------------------------------------------------------

  Dipole Moment: [D]
     X:    -8.6839      Y:     0.4025      Z:     1.2197     Total:     8.7783

*** Psi4 exiting successfully. Buy a developer a beer!
