                               Psi4 1.3.2 release

  ==> Input File <==

--------------------------------------------------------------------------
#psi4
#
memory 32 gb

molecule  {
-1 1
  O       -1.6024110     1.2883820    -0.5634480
  O        2.0191420    -1.7287390     0.1939930
  O        3.3803020    -0.0587520    -0.5397320
  N       -0.1035460    -0.2957144     0.1754971
  C        1.0875530     0.4615680    -0.1724770
  C        1.4429103     1.6662626     0.6924695
  C       -2.4731170    -0.8032840     0.3122730
  C       -1.3649450     0.1785500    -0.0525630
  C        2.2731730    -0.5407160    -0.1753640
  C       -3.8468580    -0.3344400    -0.1480570
  H        0.9550610     0.8289670    -1.1997950
  H        0.0672430    -1.2232590     0.4643770
  H        1.5293690     1.3045580     1.7644240
  H        2.2851470     2.1591780     0.4026320
  H        0.5420990     2.3541860     0.7225810
  H       -2.2325720    -1.7800520    -0.1237300
  H       -2.4588320    -0.9441430     1.3993390
  H       -4.0995650     0.6270340     0.3028840
  H       -3.8738130    -0.2132220    -1.2332140
  H       -4.6116960    -1.0622230     0.1365660
units angstrom
no_reorient  #important for SAPT in psi4, default
symmetry c1  #important for SAPT in psi4, default
}

set PROPERTIES_ORIGIN ["COM"]
properties('MP2/aug-cc-pvtz', properties = ['dipole'])
--------------------------------------------------------------------------

    Molecular point group: c1
  Charge       = -1
  Multiplicity = 1
  Basis Set: AUG-CC-PVTZ
    Blend: AUG-CC-PVTZ
  Basis Set: (AUG-CC-PVTZ AUX)
    Blend: AUG-CC-PVTZ-JKFIT

    Orbital Energies [Eh]
    ---------------------

    Doubly Occupied:

       1A    -20.395126     2A    -20.319846     3A    -20.311696
       4A    -15.437944     5A    -11.227008     6A    -11.159254
       7A    -11.135913     8A    -11.124910     9A    -11.114386
      10A    -11.078871    11A     -1.242324    12A     -1.189069
      13A     -1.096484    14A     -1.079702    15A     -0.949745
      16A     -0.878894    17A     -0.786616    18A     -0.720208
      19A     -0.647620    20A     -0.589031    21A     -0.540671
      22A     -0.532493    23A     -0.510003    24A     -0.486471
      25A     -0.467366    26A     -0.439581    27A     -0.426821
      28A     -0.422072    29A     -0.414992    30A     -0.403853
      31A     -0.399303    32A     -0.383572    33A     -0.359616
      34A     -0.337360    35A     -0.300912    36A     -0.256729
      37A     -0.234936    38A     -0.220653    39A     -0.213089

  @DF-RHF Final Energy:  -512.32594176824512

   => Energetics <=

    Nuclear Repulsion Energy =            533.1166205217765537
    One-Electron Energy =               -1771.2148413082691150
    Two-Electron Energy =                 725.7722790182475592
    Total Energy =                       -512.3259417682451158
  Basis Set: (AUG-CC-PVTZ AUX)
    Blend: AUG-CC-PVTZ-RI
    Molecular point group: c1

    Geometry (in Angstrom), charge = -1, multiplicity = 1:

       Center              X                  Y                   Z               Mass
    ------------   -----------------  -----------------  -----------------  -----------------
         O           -1.690684347912     1.305886162993    -0.536010586573    15.994914619570
         O            1.930868652088    -1.711234837007     0.221430413427    15.994914619570
         O            3.292028652088    -0.041247837007    -0.512294586573    15.994914619570
         N           -0.191819347912    -0.278210237007     0.202934513427    14.003074004430
         C            0.999279652088     0.479072162993    -0.145039586573    12.000000000000
         C            1.354636952088     1.683766762993     0.719906913427    12.000000000000
         C           -2.561390347912    -0.785779837007     0.339710413427    12.000000000000
         C           -1.453218347912     0.196054162993    -0.025125586573    12.000000000000
         C            2.184899652088    -0.523211837007    -0.147926586573    12.000000000000
         C           -3.935131347912    -0.316935837007    -0.120619586573    12.000000000000
         H            0.866787652088     0.846471162993    -1.172357586573     1.007825032230
         H           -0.021030347912    -1.205754837007     0.491814413427     1.007825032230
         H            1.441095652088     1.322062162993     1.791861413427     1.007825032230
         H            2.196873652088     2.176682162993     0.430069413427     1.007825032230
         H            0.453825652088     2.371690162993     0.750018413427     1.007825032230
         H           -2.320845347912    -1.762547837007    -0.096292586573     1.007825032230
         H           -2.547105347912    -0.926638837007     1.426776413427     1.007825032230
         H           -4.187838347912     0.644538162993     0.330321413427     1.007825032230
         H           -3.962086347912    -0.195717837007    -1.205776586573     1.007825032230
         H           -4.699969347912    -1.044718837007     0.164003413427     1.007825032230

  Basis Set: AUG-CC-PVTZ
    Blend: AUG-CC-PVTZ
  Basis Set: (AUG-CC-PVTZ AUX)
    Blend: AUG-CC-PVTZ-JKFIT
	 Reference Energy          =    -512.3259417682451158 [Eh]
	 Singles Energy            =      -0.0000000000000000 [Eh]
	 Same-Spin Energy          =      -0.5200082408838382 [Eh]
	 Opposite-Spin Energy      =      -1.6212582966211204 [Eh]
	 Correlation Energy        =      -2.1412665375049587 [Eh]
	 Total Energy              =    -514.4672083057500913 [Eh]

	 ================> DF-SCS-MP2 Energies <==================
	-----------------------------------------------------------
	 SCS Same-Spin Scale       =       0.3333333333333333 [-]
	 SCS Opposite-Spin Scale   =       1.2000000000000000 [-]
	 SCS Same-Spin Energy      =      -0.1733360802946127 [Eh]
	 SCS Opposite-Spin Energy  =      -1.9455099559453444 [Eh]
	 SCS Correlation Energy    =      -2.1188460362399573 [Eh]
	 SCS Total Energy          =    -514.4447878044850313 [Eh]
	-----------------------------------------------------------

  Dipole Moment: [D]
     X:    -8.7800      Y:     0.7104      Z:     1.6165     Total:     8.9557

*** Psi4 exiting successfully. Buy a developer a beer!
