                               Psi4 1.3.2 release

  ==> Input File <==

--------------------------------------------------------------------------
#psi4
#
memory 32 gb

molecule  {
-1 1
  O       -1.6024110     1.2883820    -0.5634480
  O        1.9508528    -1.8403270     0.2306448
  O        3.3803020    -0.0587520    -0.5397320
  N       -0.1147610    -0.2476350     0.2334190
  C        1.0875530     0.4615680    -0.1724770
  C        1.3782960     1.6508690     0.7367710
  C       -2.4361371    -0.8408544     0.3196073
  C       -1.3649450     0.1785500    -0.0525630
  C        2.2731730    -0.5407160    -0.1753640
  C       -3.8468580    -0.3344400    -0.1480570
  H        0.9550610     0.8289670    -1.1997950
  H        0.0672430    -1.2232590     0.4643770
  H        1.5293690     1.3045580     1.7644240
  H        2.2851470     2.1591780     0.4026320
  H        0.5420990     2.3541860     0.7225810
  H       -2.2325720    -1.7800520    -0.1237300
  H       -2.4588320    -0.9441430     1.3993390
  H       -4.0995650     0.6270340     0.3028840
  H       -3.8738130    -0.2132220    -1.2332140
  H       -4.6116960    -1.0622230     0.1365660
units angstrom
no_reorient  #important for SAPT in psi4, default
symmetry c1  #important for SAPT in psi4, default
}

set PROPERTIES_ORIGIN ["COM"]
properties('MP2/aug-cc-pvtz', properties = ['dipole'])
--------------------------------------------------------------------------

    Molecular point group: c1
  Charge       = -1
  Multiplicity = 1
  Basis Set: AUG-CC-PVTZ
    Blend: AUG-CC-PVTZ
  Basis Set: (AUG-CC-PVTZ AUX)
    Blend: AUG-CC-PVTZ-JKFIT

    Orbital Energies [Eh]
    ---------------------

    Doubly Occupied:

       1A    -20.392640     2A    -20.341110     3A    -20.322021
       4A    -15.435784     5A    -11.223248     6A    -11.184634
       7A    -11.132316     8A    -11.124912     9A    -11.122675
      10A    -11.080347    11A     -1.241466    12A     -1.176505
      13A     -1.095215    14A     -1.050470    15A     -0.943273
      16A     -0.881110    17A     -0.785089    18A     -0.725876
      19A     -0.640270    20A     -0.592150    21A     -0.544829
      22A     -0.535572    23A     -0.513682    24A     -0.480451
      25A     -0.463946    26A     -0.438342    27A     -0.421857
      28A     -0.416858    29A     -0.411257    30A     -0.398719
      31A     -0.395130    32A     -0.377030    33A     -0.367471
      34A     -0.334660    35A     -0.300748    36A     -0.257513
      37A     -0.236427    38A     -0.227846    39A     -0.215977

  @DF-RHF Final Energy:  -512.30854989962097

   => Energetics <=

    Nuclear Repulsion Energy =            530.0106143686973610
    One-Electron Energy =               -1764.9794745753620191
    Two-Electron Energy =                 722.6603103070436873
    Total Energy =                       -512.3085498996209708
  Basis Set: (AUG-CC-PVTZ AUX)
    Blend: AUG-CC-PVTZ-RI
    Molecular point group: c1

    Geometry (in Angstrom), charge = -1, multiplicity = 1:

       Center              X                  Y                   Z               Mass
    ------------   -----------------  -----------------  -----------------  -----------------
         O           -1.679710652174     1.318013578965    -0.550010806675    15.994914619570
         O            1.873553147826    -1.810695421035     0.244081993325    15.994914619570
         O            3.303002347826    -0.029120421035    -0.526294806675    15.994914619570
         N           -0.192060652174    -0.218003421035     0.246856193325    14.003074004430
         C            1.010253347826     0.491199578965    -0.159039806675    12.000000000000
         C            1.300996347826     1.680500578965     0.750208193325    12.000000000000
         C           -2.513436752174    -0.811222821035     0.333044493325    12.000000000000
         C           -1.442244652174     0.208181578965    -0.039125806675    12.000000000000
         C            2.195873347826    -0.511084421035    -0.161926806675    12.000000000000
         C           -3.924157652174    -0.304808421035    -0.134619806675    12.000000000000
         H            0.877761347826     0.858598578965    -1.186357806675     1.007825032230
         H           -0.010056652174    -1.193627421035     0.477814193325     1.007825032230
         H            1.452069347826     1.334189578965     1.777861193325     1.007825032230
         H            2.207847347826     2.188809578965     0.416069193325     1.007825032230
         H            0.464799347826     2.383817578965     0.736018193325     1.007825032230
         H           -2.309871652174    -1.750420421035    -0.110292806675     1.007825032230
         H           -2.536131652174    -0.914511421035     1.412776193325     1.007825032230
         H           -4.176864652174     0.656665578965     0.316321193325     1.007825032230
         H           -3.951112652174    -0.183590421035    -1.219776806675     1.007825032230
         H           -4.688995652174    -1.032591421035     0.150003193325     1.007825032230

  Basis Set: AUG-CC-PVTZ
    Blend: AUG-CC-PVTZ
  Basis Set: (AUG-CC-PVTZ AUX)
    Blend: AUG-CC-PVTZ-JKFIT
	 Reference Energy          =    -512.3085498996209708 [Eh]
	 Singles Energy            =      -0.0000000000000000 [Eh]
	 Same-Spin Energy          =      -0.5224495082800359 [Eh]
	 Opposite-Spin Energy      =      -1.6282628223044060 [Eh]
	 Correlation Energy        =      -2.1507123305844420 [Eh]
	 Total Energy              =    -514.4592622302054679 [Eh]

	 ================> DF-SCS-MP2 Energies <==================
	-----------------------------------------------------------
	 SCS Same-Spin Scale       =       0.3333333333333333 [-]
	 SCS Opposite-Spin Scale   =       1.2000000000000000 [-]
	 SCS Same-Spin Energy      =      -0.1741498360933453 [Eh]
	 SCS Opposite-Spin Energy  =      -1.9539153867652872 [Eh]
	 SCS Correlation Energy    =      -2.1280652228586323 [Eh]
	 SCS Total Energy          =    -514.4366151224795658 [Eh]
	-----------------------------------------------------------

  Dipole Moment: [D]
     X:    -8.1808      Y:     1.3638      Z:     1.3560     Total:     8.4038

*** Psi4 exiting successfully. Buy a developer a beer!
