                               Psi4 1.3.2 release

  ==> Input File <==

--------------------------------------------------------------------------
#psi4
#
memory 32 gb

molecule  {
-1 1
  O       -1.6024110     1.2883820    -0.5634480
  O        2.0191420    -1.7287390     0.1939930
  O        3.3803020    -0.0587520    -0.5397320
  N       -0.1113875    -0.2638841     0.2142275
  C        1.0875530     0.4615680    -0.1724770
  C        1.3999314     1.6563647     0.7222749
  C       -2.4731170    -0.8032840     0.3122730
  C       -1.3649450     0.1785500    -0.0525630
  C        2.2731730    -0.5407160    -0.1753640
  C       -3.8468580    -0.3344400    -0.1480570
  H        0.9550610     0.8289670    -1.1997950
  H        0.0672430    -1.2232590     0.4643770
  H        1.5293690     1.3045580     1.7644240
  H        2.2851470     2.1591780     0.4026320
  H        0.5420990     2.3541860     0.7225810
  H       -2.2325720    -1.7800520    -0.1237300
  H       -2.4588320    -0.9441430     1.3993390
  H       -4.0995650     0.6270340     0.3028840
  H       -3.8738130    -0.2132220    -1.2332140
  H       -4.6116960    -1.0622230     0.1365660
units angstrom
no_reorient  #important for SAPT in psi4, default
symmetry c1  #important for SAPT in psi4, default
}

set PROPERTIES_ORIGIN ["COM"]
properties('MP2/aug-cc-pvtz', properties = ['dipole'])
--------------------------------------------------------------------------

    Molecular point group: c1
  Charge       = -1
  Multiplicity = 1
  Basis Set: AUG-CC-PVTZ
    Blend: AUG-CC-PVTZ
  Basis Set: (AUG-CC-PVTZ AUX)
    Blend: AUG-CC-PVTZ-JKFIT

    Orbital Energies [Eh]
    ---------------------

    Doubly Occupied:

       1A    -20.392669     2A    -20.321470     3A    -20.313066
       4A    -15.437875     5A    -11.224563     6A    -11.161040
       7A    -11.135474     8A    -11.124478     9A    -11.114523
      10A    -11.076440    11A     -1.241716    12A     -1.190055
      13A     -1.096582    14A     -1.080741    15A     -0.949379
      16A     -0.878519    17A     -0.784789    18A     -0.720572
      19A     -0.642263    20A     -0.588726    21A     -0.541548
      22A     -0.532879    23A     -0.510998    24A     -0.483830
      25A     -0.465496    26A     -0.438355    27A     -0.426122
      28A     -0.419510    29A     -0.413770    30A     -0.404179
      31A     -0.397380    32A     -0.380016    33A     -0.367184
      34A     -0.340225    35A     -0.299923    36A     -0.256987
      37A     -0.236275    38A     -0.222254    39A     -0.214780

  @DF-RHF Final Energy:  -512.33514264613166

   => Energetics <=

    Nuclear Repulsion Energy =            533.3215066761906655
    One-Electron Energy =               -1771.6600006358789869
    Two-Electron Energy =                 726.0033513135566636
    Total Energy =                       -512.3351426461316578
  Basis Set: (AUG-CC-PVTZ AUX)
    Blend: AUG-CC-PVTZ-RI
    Molecular point group: c1

    Geometry (in Angstrom), charge = -1, multiplicity = 1:

       Center              X                  Y                   Z               Mass
    ------------   -----------------  -----------------  -----------------  -----------------
         O           -1.686342229655     1.303616737232    -0.542257785992    15.994914619570
         O            1.935210770345    -1.713504262768     0.215183214008    15.994914619570
         O            3.296370770345    -0.043517262768    -0.518541785992    15.994914619570
         N           -0.195318729655    -0.248649362768     0.235417714008    14.003074004430
         C            1.003621770345     0.476802737232    -0.151286785992    12.000000000000
         C            1.316000170345     1.671599437232     0.743465114008    12.000000000000
         C           -2.557048229655    -0.788049262768     0.333463214008    12.000000000000
         C           -1.448876229655     0.193784737232    -0.031372785992    12.000000000000
         C            2.189241770345    -0.525481262768    -0.154173785992    12.000000000000
         C           -3.930789229655    -0.319205262768    -0.126866785992    12.000000000000
         H            0.871129770345     0.844201737232    -1.178604785992     1.007825032230
         H           -0.016688229655    -1.208024262768     0.485567214008     1.007825032230
         H            1.445437770345     1.319792737232     1.785614214008     1.007825032230
         H            2.201215770345     2.174412737232     0.423822214008     1.007825032230
         H            0.458167770345     2.369420737232     0.743771214008     1.007825032230
         H           -2.316503229655    -1.764817262768    -0.102539785992     1.007825032230
         H           -2.542763229655    -0.928908262768     1.420529214008     1.007825032230
         H           -4.183496229655     0.642268737232     0.324074214008     1.007825032230
         H           -3.957744229655    -0.197987262768    -1.212023785992     1.007825032230
         H           -4.695627229655    -1.046988262768     0.157756214008     1.007825032230

  Basis Set: AUG-CC-PVTZ
    Blend: AUG-CC-PVTZ
  Basis Set: (AUG-CC-PVTZ AUX)
    Blend: AUG-CC-PVTZ-JKFIT
	 Reference Energy          =    -512.3351426461316578 [Eh]
	 Singles Energy            =      -0.0000000000000000 [Eh]
	 Same-Spin Energy          =      -0.5200511458533393 [Eh]
	 Opposite-Spin Energy      =      -1.6211530027860732 [Eh]
	 Correlation Energy        =      -2.1412041486394124 [Eh]
	 Total Energy              =    -514.4763467947710751 [Eh]

	 ================> DF-SCS-MP2 Energies <==================
	-----------------------------------------------------------
	 SCS Same-Spin Scale       =       0.3333333333333333 [-]
	 SCS Opposite-Spin Scale   =       1.2000000000000000 [-]
	 SCS Same-Spin Energy      =      -0.1733503819511131 [Eh]
	 SCS Opposite-Spin Energy  =      -1.9453836033432879 [Eh]
	 SCS Correlation Energy    =      -2.1187339852944009 [Eh]
	 SCS Total Energy          =    -514.4538766314260556 [Eh]
	-----------------------------------------------------------

  Dipole Moment: [D]
     X:    -8.7083      Y:     0.6557      Z:     1.6080     Total:     8.8797

*** Psi4 exiting successfully. Buy a developer a beer!
