                               Psi4 1.3.2 release

  ==> Input File <==

--------------------------------------------------------------------------
#psi4
#
memory 32 gb

molecule  {
-1 1
  O       -1.6024110     1.2883820    -0.5634480
  O        1.9855077    -1.7848320     0.2123592
  O        3.3803020    -0.0587520    -0.5397320
  N       -0.1147610    -0.2476350     0.2334190
  C        1.0875530     0.4615680    -0.1724770
  C        1.3782960     1.6508690     0.7367710
  C       -2.4547930    -0.8222216     0.3159963
  C       -1.3649450     0.1785500    -0.0525630
  C        2.2731730    -0.5407160    -0.1753640
  C       -3.8468580    -0.3344400    -0.1480570
  H        0.9550610     0.8289670    -1.1997950
  H        0.0672430    -1.2232590     0.4643770
  H        1.5293690     1.3045580     1.7644240
  H        2.2851470     2.1591780     0.4026320
  H        0.5420990     2.3541860     0.7225810
  H       -2.2325720    -1.7800520    -0.1237300
  H       -2.4588320    -0.9441430     1.3993390
  H       -4.0995650     0.6270340     0.3028840
  H       -3.8738130    -0.2132220    -1.2332140
  H       -4.6116960    -1.0622230     0.1365660
units angstrom
no_reorient  #important for SAPT in psi4, default
symmetry c1  #important for SAPT in psi4, default
}

set PROPERTIES_ORIGIN ["COM"]
properties('MP2/aug-cc-pvtz', properties = ['dipole'])
--------------------------------------------------------------------------

    Molecular point group: c1
  Charge       = -1
  Multiplicity = 1
  Basis Set: AUG-CC-PVTZ
    Blend: AUG-CC-PVTZ
  Basis Set: (AUG-CC-PVTZ AUX)
    Blend: AUG-CC-PVTZ-JKFIT

    Orbital Energies [Eh]
    ---------------------

    Doubly Occupied:

       1A    -20.392185     2A    -20.327869     3A    -20.322195
       4A    -15.436821     5A    -11.223353     6A    -11.174070
       7A    -11.133741     8A    -11.124645     9A    -11.118890
      10A    -11.078022    11A     -1.241490    12A     -1.178566
      13A     -1.095928    14A     -1.068724    15A     -0.946088
      16A     -0.879859    17A     -0.784550    18A     -0.723362
      19A     -0.639831    20A     -0.590135    21A     -0.543373
      22A     -0.534228    23A     -0.512390    24A     -0.481325
      25A     -0.464101    26A     -0.437845    27A     -0.422670
      28A     -0.417748    29A     -0.412664    30A     -0.401181
      31A     -0.396766    32A     -0.376694    33A     -0.368244
      34A     -0.337240    35A     -0.300224    36A     -0.257421
      37A     -0.237316    38A     -0.226493    39A     -0.216483

  @DF-RHF Final Energy:  -512.32572595256238

   => Energetics <=

    Nuclear Repulsion Energy =            531.6504822275248898
    One-Electron Energy =               -1768.3029532168252445
    Two-Electron Energy =                 724.3267450367379752
    Total Energy =                       -512.3257259525623795
  Basis Set: (AUG-CC-PVTZ AUX)
    Blend: AUG-CC-PVTZ-RI
    Molecular point group: c1

    Geometry (in Angstrom), charge = -1, multiplicity = 1:

       Center              X                  Y                   Z               Mass
    ------------   -----------------  -----------------  -----------------  -----------------
         O           -1.682004262118     1.310300233270    -0.547679871882    15.994914619570
         O            1.905914437882    -1.762913766730     0.228127328118    15.994914619570
         O            3.300708737882    -0.036833766730    -0.523963871882    15.994914619570
         N           -0.194354262118    -0.225716766730     0.249187128118    14.003074004430
         C            1.007959737882     0.483486233270    -0.156708871882    12.000000000000
         C            1.298702737882     1.672787233270     0.752539128118    12.000000000000
         C           -2.534386262118    -0.800303366730     0.331764428118    12.000000000000
         C           -1.444538262118     0.200468233270    -0.036794871882    12.000000000000
         C            2.193579737882    -0.518797766730    -0.159595871882    12.000000000000
         C           -3.926451262118    -0.312521766730    -0.132288871882    12.000000000000
         H            0.875467737882     0.850885233270    -1.184026871882     1.007825032230
         H           -0.012350262118    -1.201340766730     0.480145128118     1.007825032230
         H            1.449775737882     1.326476233270     1.780192128118     1.007825032230
         H            2.205553737882     2.181096233270     0.418400128118     1.007825032230
         H            0.462505737882     2.376104233270     0.738349128118     1.007825032230
         H           -2.312165262118    -1.758133766730    -0.107961871882     1.007825032230
         H           -2.538425262118    -0.922224766730     1.415107128118     1.007825032230
         H           -4.179158262118     0.648952233270     0.318652128118     1.007825032230
         H           -3.953406262118    -0.191303766730    -1.217445871882     1.007825032230
         H           -4.691289262118    -1.040304766730     0.152334128118     1.007825032230

  Basis Set: AUG-CC-PVTZ
    Blend: AUG-CC-PVTZ
  Basis Set: (AUG-CC-PVTZ AUX)
    Blend: AUG-CC-PVTZ-JKFIT
	 Reference Energy          =    -512.3257259525623795 [Eh]
	 Singles Energy            =      -0.0000000000000000 [Eh]
	 Same-Spin Energy          =      -0.5213285398744636 [Eh]
	 Opposite-Spin Energy      =      -1.6247874594300500 [Eh]
	 Correlation Energy        =      -2.1461159993045138 [Eh]
	 Total Energy              =    -514.4718419518668497 [Eh]

	 ================> DF-SCS-MP2 Energies <==================
	-----------------------------------------------------------
	 SCS Same-Spin Scale       =       0.3333333333333333 [-]
	 SCS Opposite-Spin Scale   =       1.2000000000000000 [-]
	 SCS Same-Spin Energy      =      -0.1737761799581545 [Eh]
	 SCS Opposite-Spin Energy  =      -1.9497449513160598 [Eh]
	 SCS Correlation Energy    =      -2.1235211312742144 [Eh]
	 SCS Total Energy          =    -514.4492470838365534 [Eh]
	-----------------------------------------------------------

  Dipole Moment: [D]
     X:    -8.4305      Y:     0.9951      Z:     1.4768     Total:     8.6165

*** Psi4 exiting successfully. Buy a developer a beer!
