                               Psi4 1.3.2 release

  ==> Input File <==

--------------------------------------------------------------------------
#psi4
#
memory 32 gb

molecule  {
-1 1
  O       -1.6024110     1.2883820    -0.5634480
  O        2.0191420    -1.7287390     0.1939930
  O        3.3803020    -0.0587520    -0.5397320
  N       -0.0818399    -0.2608221     0.3007589
  C        1.0875530     0.4615680    -0.1724770
  C        1.3782960     1.6508690     0.7367710
  C       -2.4731170    -0.8032840     0.3122730
  C       -1.3649450     0.1785500    -0.0525630
  C        2.2731730    -0.5407160    -0.1753640
  C       -3.8468580    -0.3344400    -0.1480570
  H        1.0079124     0.8515355    -1.1969286
  H        0.0672430    -1.2232590     0.4643770
  H        1.5293690     1.3045580     1.7644240
  H        2.2851470     2.1591780     0.4026320
  H        0.5420990     2.3541860     0.7225810
  H       -2.2325720    -1.7800520    -0.1237300
  H       -2.4588320    -0.9441430     1.3993390
  H       -4.0995650     0.6270340     0.3028840
  H       -3.8738130    -0.2132220    -1.2332140
  H       -4.6116960    -1.0622230     0.1365660
units angstrom
no_reorient  #important for SAPT in psi4, default
symmetry c1  #important for SAPT in psi4, default
}

set PROPERTIES_ORIGIN ["COM"]
properties('MP2/aug-cc-pvtz', properties = ['dipole'])
--------------------------------------------------------------------------

    Molecular point group: c1
  Charge       = -1
  Multiplicity = 1
  Basis Set: AUG-CC-PVTZ
    Blend: AUG-CC-PVTZ
  Basis Set: (AUG-CC-PVTZ AUX)
    Blend: AUG-CC-PVTZ-JKFIT

    Orbital Energies [Eh]
    ---------------------

    Doubly Occupied:

       1A    -20.403243     2A    -20.318941     3A    -20.310791
       4A    -15.435389     5A    -11.232535     6A    -11.158276
       7A    -11.137787     8A    -11.126426     9A    -11.111877
      10A    -11.072512    11A     -1.244798    12A     -1.188062
      13A     -1.093253    14A     -1.075774    15A     -0.951277
      16A     -0.874001    17A     -0.785116    18A     -0.715272
      19A     -0.641253    20A     -0.587624    21A     -0.538426
      22A     -0.533322    23A     -0.515320    24A     -0.488674
      25A     -0.461310    26A     -0.435919    27A     -0.427331
      28A     -0.419763    29A     -0.414983    30A     -0.401674
      31A     -0.395064    32A     -0.376720    33A     -0.370417
      34A     -0.339287    35A     -0.304417    36A     -0.258311
      37A     -0.233870    38A     -0.219321    39A     -0.212972

  @DF-RHF Final Energy:  -512.32991683283001

   => Energetics <=

    Nuclear Repulsion Energy =            532.7421528354520888
    One-Electron Energy =               -1770.5215250922071846
    Two-Electron Energy =                 725.4494554239250874
    Total Energy =                       -512.3299168328300084
  Basis Set: (AUG-CC-PVTZ AUX)
    Blend: AUG-CC-PVTZ-RI
    Molecular point group: c1

    Geometry (in Angstrom), charge = -1, multiplicity = 1:

       Center              X                  Y                   Z               Mass
    ------------   -----------------  -----------------  -----------------  -----------------
         O           -1.687781828833     1.303618999306    -0.551896055746    15.994914619570
         O            1.933771171167    -1.713502000694     0.205544944254    15.994914619570
         O            3.294931171167    -0.043515000694    -0.528180055746    15.994914619570
         N           -0.167210728833    -0.245585100694     0.312310844254    14.003074004430
         C            1.002182171167     0.476804999306    -0.160925055746    12.000000000000
         C            1.292925171167     1.666105999306     0.748322944254    12.000000000000
         C           -2.558487828833    -0.788047000694     0.323824944254    12.000000000000
         C           -1.450315828833     0.193786999306    -0.041011055746    12.000000000000
         C            2.187802171167    -0.525479000694    -0.163812055746    12.000000000000
         C           -3.932228828833    -0.319203000694    -0.136505055746    12.000000000000
         H            0.922541571167     0.866772499306    -1.185376655746     1.007825032230
         H           -0.018127828833    -1.208022000694     0.475928944254     1.007825032230
         H            1.443998171167     1.319794999306     1.775975944254     1.007825032230
         H            2.199776171167     2.174414999306     0.414183944254     1.007825032230
         H            0.456728171167     2.369422999306     0.734132944254     1.007825032230
         H           -2.317942828833    -1.764815000694    -0.112178055746     1.007825032230
         H           -2.544202828833    -0.928906000694     1.410890944254     1.007825032230
         H           -4.184935828833     0.642270999306     0.314435944254     1.007825032230
         H           -3.959183828833    -0.197985000694    -1.221662055746     1.007825032230
         H           -4.697066828833    -1.046986000694     0.148117944254     1.007825032230

  Basis Set: AUG-CC-PVTZ
    Blend: AUG-CC-PVTZ
  Basis Set: (AUG-CC-PVTZ AUX)
    Blend: AUG-CC-PVTZ-JKFIT
	 Reference Energy          =    -512.3299168328300084 [Eh]
	 Singles Energy            =      -0.0000000000000000 [Eh]
	 Same-Spin Energy          =      -0.5201294790929953 [Eh]
	 Opposite-Spin Energy      =      -1.6218034688124052 [Eh]
	 Correlation Energy        =      -2.1419329479054006 [Eh]
	 Total Energy              =    -514.4718497807353970 [Eh]

	 ================> DF-SCS-MP2 Energies <==================
	-----------------------------------------------------------
	 SCS Same-Spin Scale       =       0.3333333333333333 [-]
	 SCS Opposite-Spin Scale   =       1.2000000000000000 [-]
	 SCS Same-Spin Energy      =      -0.1733764930309984 [Eh]
	 SCS Opposite-Spin Energy  =      -1.9461641625748862 [Eh]
	 SCS Correlation Energy    =      -2.1195406556058849 [Eh]
	 SCS Total Energy          =    -514.4494574884358826 [Eh]
	-----------------------------------------------------------

  Dipole Moment: [D]
     X:    -9.0517      Y:     0.7168      Z:     1.4537     Total:     9.1957

*** Psi4 exiting successfully. Buy a developer a beer!
