                               Psi4 1.3.2 release

  ==> Input File <==

--------------------------------------------------------------------------
#psi4
#
memory 32 gb

molecule  {
-1 1
  O       -1.6024110     1.2883820    -0.5634480
  O        2.0191420    -1.7287390     0.1939930
  O        3.3803020    -0.0587520    -0.5397320
  N       -0.1147610    -0.2476350     0.2334190
  C        1.0875530     0.4615680    -0.1724770
  C        1.3782960     1.6508690     0.7367710
  C       -2.4731170    -0.8032840     0.3122730
  C       -1.3649450     0.1785500    -0.0525630
  C        2.2731730    -0.5407160    -0.1753640
  C       -3.8438618    -0.3122926    -0.1336740
  H        0.9550610     0.8289670    -1.1997950
  H        0.0672430    -1.2232590     0.4643770
  H        1.5293690     1.3045580     1.7644240
  H        2.2851470     2.1591780     0.4026320
  H        0.5420990     2.3541860     0.7225810
  H       -2.2157456    -1.7797863    -0.1146222
  H       -2.4588320    -0.9441430     1.3993390
  H       -4.0995650     0.6270340     0.3028840
  H       -3.8738130    -0.2132220    -1.2332140
  H       -4.6116960    -1.0622230     0.1365660
units angstrom
no_reorient  #important for SAPT in psi4, default
symmetry c1  #important for SAPT in psi4, default
}

set PROPERTIES_ORIGIN ["COM"]
properties('MP2/aug-cc-pvtz', properties = ['dipole'])
--------------------------------------------------------------------------

    Molecular point group: c1
  Charge       = -1
  Multiplicity = 1
  Basis Set: AUG-CC-PVTZ
    Blend: AUG-CC-PVTZ
  Basis Set: (AUG-CC-PVTZ AUX)
    Blend: AUG-CC-PVTZ-JKFIT

    Orbital Energies [Eh]
    ---------------------

    Doubly Occupied:

       1A    -20.391647     2A    -20.322269     3A    -20.313716
       4A    -15.437759     5A    -11.223184     6A    -11.161891
       7A    -11.135482     8A    -11.124832     9A    -11.114625
      10A    -11.075544    11A     -1.241555    12A     -1.190536
      13A     -1.096561    14A     -1.081131    15A     -0.949334
      16A     -0.878362    17A     -0.784300    18A     -0.721033
      19A     -0.639444    20A     -0.588336    21A     -0.542008
      22A     -0.533181    23A     -0.512120    24A     -0.481501
      25A     -0.465548    26A     -0.438877    27A     -0.426899
      28A     -0.418984    29A     -0.413797    30A     -0.404009
      31A     -0.396119    32A     -0.375896    33A     -0.369671
      34A     -0.341414    35A     -0.299385    36A     -0.257087
      37A     -0.236873    38A     -0.222981    39A     -0.215555

  @DF-RHF Final Energy:  -512.33516848402382

   => Energetics <=

    Nuclear Repulsion Energy =            533.5262002681746480
    One-Electron Energy =               -1772.0758464323823773
    Two-Electron Energy =                 726.2144776801840180
    Total Energy =                       -512.3351684840238249
  Basis Set: (AUG-CC-PVTZ AUX)
    Blend: AUG-CC-PVTZ-RI
    Molecular point group: c1

    Geometry (in Angstrom), charge = -1, multiplicity = 1:

       Center              X                  Y                   Z               Mass
    ------------   -----------------  -----------------  -----------------  -----------------
         O           -1.684579484921     1.300648477361    -0.546592382413    15.994914619570
         O            1.936973515079    -1.716472522639     0.210848617587    15.994914619570
         O            3.298133515079    -0.046485522639    -0.522876382413    15.994914619570
         N           -0.196929484921    -0.235368522639     0.250274617587    14.003074004430
         C            1.005384515079     0.473834477361    -0.155621382413    12.000000000000
         C            1.296127515079     1.663135477361     0.753626617587    12.000000000000
         C           -2.555285484921    -0.791017522639     0.329128617587    12.000000000000
         C           -1.447113484921     0.190816477361    -0.035707382413    12.000000000000
         C            2.191004515079    -0.528449522639    -0.158508382413    12.000000000000
         C           -3.926030284921    -0.300026122639    -0.116818382413    12.000000000000
         H            0.872892515079     0.841233477361    -1.182939382413     1.007825032230
         H           -0.014925484921    -1.210992522639     0.481232617587     1.007825032230
         H            1.447200515079     1.316824477361     1.781279617587     1.007825032230
         H            2.202978515079     2.171444477361     0.419487617587     1.007825032230
         H            0.459930515079     2.366452477361     0.739436617587     1.007825032230
         H           -2.297914084921    -1.767519822639    -0.097766582413     1.007825032230
         H           -2.541000484921    -0.931876522639     1.416194617587     1.007825032230
         H           -4.181733484921     0.639300477361     0.319739617587     1.007825032230
         H           -3.955981484921    -0.200955522639    -1.216358382413     1.007825032230
         H           -4.693864484921    -1.049956522639     0.153421617587     1.007825032230

  Basis Set: AUG-CC-PVTZ
    Blend: AUG-CC-PVTZ
  Basis Set: (AUG-CC-PVTZ AUX)
    Blend: AUG-CC-PVTZ-JKFIT
	 Reference Energy          =    -512.3351684840238249 [Eh]
	 Singles Energy            =      -0.0000000000000000 [Eh]
	 Same-Spin Energy          =      -0.5201760191822309 [Eh]
	 Opposite-Spin Energy      =      -1.6213567417319992 [Eh]
	 Correlation Energy        =      -2.1415327609142301 [Eh]
	 Total Energy              =    -514.4767012449379990 [Eh]

	 ================> DF-SCS-MP2 Energies <==================
	-----------------------------------------------------------
	 SCS Same-Spin Scale       =       0.3333333333333333 [-]
	 SCS Opposite-Spin Scale   =       1.2000000000000000 [-]
	 SCS Same-Spin Energy      =      -0.1733920063940770 [Eh]
	 SCS Opposite-Spin Energy  =      -1.9456280900783989 [Eh]
	 SCS Correlation Energy    =      -2.1190200964724757 [Eh]
	 SCS Total Energy          =    -514.4541885804962931 [Eh]
	-----------------------------------------------------------

  Dipole Moment: [D]
     X:    -8.6821      Y:     0.6437      Z:     1.6130     Total:     8.8541

*** Psi4 exiting successfully. Buy a developer a beer!
