                               Psi4 1.3.2 release

  ==> Input File <==

--------------------------------------------------------------------------
#psi4
#
memory 32 gb

molecule  {
-1 1
  O       -1.6819701     1.0905248    -0.6360769
  O        2.0191420    -1.7287390     0.1939930
  O        3.3803020    -0.0587520    -0.5397320
  N       -0.1147610    -0.2476350     0.2334190
  C        1.1386012     0.5185793    -0.1450873
  C        1.3782960     1.6508690     0.7367710
  C       -2.4731170    -0.8032840     0.3122730
  C       -1.3649450     0.1785500    -0.0525630
  C        2.2731730    -0.5407160    -0.1753640
  C       -3.8468580    -0.3344400    -0.1480570
  H        0.9550610     0.8289670    -1.1997950
  H        0.0672430    -1.2232590     0.4643770
  H        1.5293690     1.3045580     1.7644240
  H        2.2851470     2.1591780     0.4026320
  H        0.5420990     2.3541860     0.7225810
  H       -2.2325720    -1.7800520    -0.1237300
  H       -2.4588320    -0.9441430     1.3993390
  H       -4.0995650     0.6270340     0.3028840
  H       -3.8738130    -0.2132220    -1.2332140
  H       -4.6116960    -1.0622230     0.1365660
units angstrom
no_reorient  #important for SAPT in psi4, default
symmetry c1  #important for SAPT in psi4, default
}

set PROPERTIES_ORIGIN ["COM"]
properties('MP2/aug-cc-pvtz', properties = ['dipole'])
--------------------------------------------------------------------------

    Molecular point group: c1
  Charge       = -1
  Multiplicity = 1
  Basis Set: AUG-CC-PVTZ
    Blend: AUG-CC-PVTZ
  Basis Set: (AUG-CC-PVTZ AUX)
    Blend: AUG-CC-PVTZ-JKFIT

    Orbital Energies [Eh]
    ---------------------

    Doubly Occupied:

       1A    -20.391929     2A    -20.322242     3A    -20.312928
       4A    -15.420093     5A    -11.199280     6A    -11.161913
       7A    -11.117189     8A    -11.117183     9A    -11.116205
      10A    -11.078185    11A     -1.317355    12A     -1.190200
      13A     -1.091908    14A     -1.071657    15A     -0.937937
      16A     -0.891746    17A     -0.774529    18A     -0.716632
      19A     -0.628239    20A     -0.587515    21A     -0.544086
      22A     -0.532815    23A     -0.523130    24A     -0.492395
      25A     -0.471792    26A     -0.448329    27A     -0.431055
      28A     -0.422503    29A     -0.411823    30A     -0.410947
      31A     -0.391578    32A     -0.383856    33A     -0.367611
      34A     -0.345343    35A     -0.288421    36A     -0.257752
      37A     -0.236158    38A     -0.221566    39A     -0.214669

  @DF-RHF Final Energy:  -512.31569495486610

   => Energetics <=

    Nuclear Repulsion Energy =            536.5136804235648924
    One-Electron Energy =               -1777.9773659242669055
    Two-Electron Energy =                 729.1479905458359099
    Total Energy =                       -512.3156949548661032
  Basis Set: (AUG-CC-PVTZ AUX)
    Blend: AUG-CC-PVTZ-RI
    Molecular point group: c1

    Geometry (in Angstrom), charge = -1, multiplicity = 1:

       Center              X                  Y                   Z               Mass
    ------------   -----------------  -----------------  -----------------  -----------------
         O           -1.759190333832     1.121856210795    -0.612177349473    15.994914619570
         O            1.941921766168    -1.697407589205     0.217892550527    15.994914619570
         O            3.303081766168    -0.027420589205    -0.515832449473    15.994914619570
         N           -0.191981233832    -0.216303589205     0.257318550527    14.003074004430
         C            1.061380966168     0.549910710795    -0.121187749473    12.000000000000
         C            1.301075766168     1.682200410795     0.760670550527    12.000000000000
         C           -2.550337233832    -0.771952589205     0.336172550527    12.000000000000
         C           -1.442165233832     0.209881410795    -0.028663449473    12.000000000000
         C            2.195952766168    -0.509384589205    -0.151464449473    12.000000000000
         C           -3.924078233832    -0.303108589205    -0.124157449473    12.000000000000
         H            0.877840766168     0.860298410795    -1.175895449473     1.007825032230
         H           -0.009977233832    -1.191927589205     0.488276550527     1.007825032230
         H            1.452148766168     1.335889410795     1.788323550527     1.007825032230
         H            2.207926766168     2.190509410795     0.426531550527     1.007825032230
         H            0.464878766168     2.385517410795     0.746480550527     1.007825032230
         H           -2.309792233832    -1.748720589205    -0.099830449473     1.007825032230
         H           -2.536052233832    -0.912811589205     1.423238550527     1.007825032230
         H           -4.176785233832     0.658365410795     0.326783550527     1.007825032230
         H           -3.951033233832    -0.181890589205    -1.209314449473     1.007825032230
         H           -4.688916233832    -1.030891589205     0.160465550527     1.007825032230

  Basis Set: AUG-CC-PVTZ
    Blend: AUG-CC-PVTZ
  Basis Set: (AUG-CC-PVTZ AUX)
    Blend: AUG-CC-PVTZ-JKFIT
	 Reference Energy          =    -512.3156949548661032 [Eh]
	 Singles Energy            =      -0.0000000000000000 [Eh]
	 Same-Spin Energy          =      -0.5181461976676502 [Eh]
	 Opposite-Spin Energy      =      -1.6160387108579342 [Eh]
	 Correlation Energy        =      -2.1341849085255844 [Eh]
	 Total Energy              =    -514.4498798633917431 [Eh]

	 ================> DF-SCS-MP2 Energies <==================
	-----------------------------------------------------------
	 SCS Same-Spin Scale       =       0.3333333333333333 [-]
	 SCS Opposite-Spin Scale   =       1.2000000000000000 [-]
	 SCS Same-Spin Energy      =      -0.1727153992225501 [Eh]
	 SCS Opposite-Spin Energy  =      -1.9392464530295208 [Eh]
	 SCS Correlation Energy    =      -2.1119618522520707 [Eh]
	 SCS Total Energy          =    -514.4276568071181828 [Eh]
	-----------------------------------------------------------

  Dipole Moment: [D]
     X:    -8.4710      Y:     1.4512      Z:     1.5093     Total:     8.7259

*** Psi4 exiting successfully. Buy a developer a beer!
