                               Psi4 1.3.2 release

  ==> Input File <==

--------------------------------------------------------------------------
#psi4
#
memory 32 gb

molecule  {
-1 1
  O       -1.6024110     1.2883820    -0.5634480
  O        2.0191420    -1.7287390     0.1939930
  O        3.3803020    -0.0587520    -0.5397320
  N       -0.1147610    -0.2476350     0.2334190
  C        1.0875530     0.4615680    -0.1724770
  C        1.3782960     1.6508690     0.7367710
  C       -2.4731170    -0.8032840     0.3122730
  C       -1.3607981     0.1894726    -0.0541709
  C        2.2731730    -0.5407160    -0.1753640
  C       -3.8468580    -0.3344400    -0.1480570
  H        0.9550610     0.8289670    -1.1997950
  H        0.0758788    -1.2213766     0.4653523
  H        1.5293690     1.3045580     1.7644240
  H        2.2851470     2.1591780     0.4026320
  H        0.5420990     2.3541860     0.7225810
  H       -2.2325720    -1.7800520    -0.1237300
  H       -2.4588320    -0.9441430     1.3993390
  H       -4.0995650     0.6270340     0.3028840
  H       -3.8738130    -0.2132220    -1.2332140
  H       -4.6116960    -1.0622230     0.1365660
units angstrom
no_reorient  #important for SAPT in psi4, default
symmetry c1  #important for SAPT in psi4, default
}

set PROPERTIES_ORIGIN ["COM"]
properties('MP2/aug-cc-pvtz', properties = ['dipole'])
--------------------------------------------------------------------------

    Molecular point group: c1
  Charge       = -1
  Multiplicity = 1
  Basis Set: AUG-CC-PVTZ
    Blend: AUG-CC-PVTZ
  Basis Set: (AUG-CC-PVTZ AUX)
    Blend: AUG-CC-PVTZ-JKFIT

    Orbital Energies [Eh]
    ---------------------

    Doubly Occupied:

       1A    -20.393222     2A    -20.322515     3A    -20.313775
       4A    -15.436948     5A    -11.223178     6A    -11.161939
       7A    -11.134526     8A    -11.123761     9A    -11.114261
      10A    -11.075630    11A     -1.247372    12A     -1.190796
      13A     -1.097003    14A     -1.081506    15A     -0.947391
      16A     -0.877969    17A     -0.782246    18A     -0.720550
      19A     -0.640293    20A     -0.588143    21A     -0.541644
      22A     -0.532154    23A     -0.511845    24A     -0.484697
      25A     -0.465797    26A     -0.438890    27A     -0.425127
      28A     -0.419600    29A     -0.413792    30A     -0.403907
      31A     -0.396736    32A     -0.376847    33A     -0.370000
      34A     -0.342236    35A     -0.299287    36A     -0.257409
      37A     -0.237106    38A     -0.223018    39A     -0.215702

  @DF-RHF Final Energy:  -512.33679326631386

   => Energetics <=

    Nuclear Repulsion Energy =            533.5062645933646763
    One-Electron Energy =               -1772.0284752488498725
    Two-Electron Energy =                 726.1854173891713344
    Total Energy =                       -512.3367932663138617
  Basis Set: (AUG-CC-PVTZ AUX)
    Blend: AUG-CC-PVTZ-RI
    Molecular point group: c1

    Geometry (in Angstrom), charge = -1, multiplicity = 1:

       Center              X                  Y                   Z               Mass
    ------------   -----------------  -----------------  -----------------  -----------------
         O           -1.684618034653     1.301572138644    -0.545203527011    15.994914619570
         O            1.936934965347    -1.715548861356     0.212237472989    15.994914619570
         O            3.298094965347    -0.045561861356    -0.521487527011    15.994914619570
         N           -0.196968034653    -0.234444861356     0.251663472989    14.003074004430
         C            1.005345965347     0.474758138644    -0.154232527011    12.000000000000
         C            1.296088965347     1.664059138644     0.755015472989    12.000000000000
         C           -2.555324034653    -0.790093861356     0.330517472989    12.000000000000
         C           -1.443005134653     0.202662738644    -0.035926427011    12.000000000000
         C            2.190965965347    -0.527525861356    -0.157119527011    12.000000000000
         C           -3.929065034653    -0.321249861356    -0.129812527011    12.000000000000
         H            0.872853965347     0.842157138644    -1.181550527011     1.007825032230
         H           -0.006328234653    -1.208186461356     0.483596772989     1.007825032230
         H            1.447161965347     1.317748138644     1.782668472989     1.007825032230
         H            2.202939965347     2.172368138644     0.420876472989     1.007825032230
         H            0.459891965347     2.367376138644     0.740825472989     1.007825032230
         H           -2.314779034653    -1.766861861356    -0.105485527011     1.007825032230
         H           -2.541039034653    -0.930952861356     1.417583472989     1.007825032230
         H           -4.181772034653     0.640224138644     0.321128472989     1.007825032230
         H           -3.956020034653    -0.200031861356    -1.214969527011     1.007825032230
         H           -4.693903034653    -1.049032861356     0.154810472989     1.007825032230

  Basis Set: AUG-CC-PVTZ
    Blend: AUG-CC-PVTZ
  Basis Set: (AUG-CC-PVTZ AUX)
    Blend: AUG-CC-PVTZ-JKFIT
	 Reference Energy          =    -512.3367932663138617 [Eh]
	 Singles Energy            =      -0.0000000000000000 [Eh]
	 Same-Spin Energy          =      -0.5199709853857629 [Eh]
	 Opposite-Spin Energy      =      -1.6209325099897784 [Eh]
	 Correlation Energy        =      -2.1409034953755413 [Eh]
	 Total Energy              =    -514.4776967616894581 [Eh]

	 ================> DF-SCS-MP2 Energies <==================
	-----------------------------------------------------------
	 SCS Same-Spin Scale       =       0.3333333333333333 [-]
	 SCS Opposite-Spin Scale   =       1.2000000000000000 [-]
	 SCS Same-Spin Energy      =      -0.1733236617952543 [Eh]
	 SCS Opposite-Spin Energy  =      -1.9451190119877340 [Eh]
	 SCS Correlation Energy    =      -2.1184426737829885 [Eh]
	 SCS Total Energy          =    -514.4552359400968271 [Eh]
	-----------------------------------------------------------

  Dipole Moment: [D]
     X:    -8.6602      Y:     0.6790      Z:     1.5777     Total:     8.8289

*** Psi4 exiting successfully. Buy a developer a beer!
