                               Psi4 1.3.2 release

  ==> Input File <==

--------------------------------------------------------------------------
#psi4
#
memory 32 gb

molecule  {
-1 1
  O       -1.6024110     1.2883820    -0.5634480
  O        2.0191420    -1.7287390     0.1939930
  O        3.3803020    -0.0587520    -0.5397320
  N       -0.1147610    -0.2476350     0.2334190
  C        1.0875530     0.4615680    -0.1724770
  C        1.3973608     1.7288547     0.7963929
  C       -2.4731170    -0.8032840     0.3122730
  C       -1.3649450     0.1785500    -0.0525630
  C        2.2731730    -0.5407160    -0.1753640
  C       -3.8468580    -0.3344400    -0.1480570
  H        0.9550610     0.8289670    -1.1997950
  H        0.0672430    -1.2232590     0.4643770
  H        1.5293690     1.3045580     1.7644240
  H        2.2851470     2.1591780     0.4026320
  H        0.5420990     2.3541860     0.7225810
  H       -2.2325720    -1.7800520    -0.1237300
  H       -2.4588320    -0.9441430     1.3993390
  H       -4.0995650     0.6270340     0.3028840
  H       -3.8738130    -0.2132220    -1.2332140
  H       -4.6116960    -1.0622230     0.1365660
units angstrom
no_reorient  #important for SAPT in psi4, default
symmetry c1  #important for SAPT in psi4, default
}

set PROPERTIES_ORIGIN ["COM"]
properties('MP2/aug-cc-pvtz', properties = ['dipole'])
--------------------------------------------------------------------------

    Molecular point group: c1
  Charge       = -1
  Multiplicity = 1
  Basis Set: AUG-CC-PVTZ
    Blend: AUG-CC-PVTZ
  Basis Set: (AUG-CC-PVTZ AUX)
    Blend: AUG-CC-PVTZ-JKFIT

    Orbital Energies [Eh]
    ---------------------

    Doubly Occupied:

       1A    -20.392025     2A    -20.321950     3A    -20.313422
       4A    -15.438582     5A    -11.223590     6A    -11.161698
       7A    -11.135503     8A    -11.124456     9A    -11.118791
      10A    -11.073541    11A     -1.241679    12A     -1.189950
      13A     -1.095992    14A     -1.080099    15A     -0.948605
      16A     -0.867414    17A     -0.785587    18A     -0.725804
      19A     -0.639414    20A     -0.587291    21A     -0.540853
      22A     -0.532801    23A     -0.509618    24A     -0.482767
      25A     -0.461545    26A     -0.440495    27A     -0.427800
      28A     -0.418716    29A     -0.414578    30A     -0.410349
      31A     -0.400533    32A     -0.376861    33A     -0.373859
      34A     -0.334253    35A     -0.300445    36A     -0.251440
      37A     -0.236989    38A     -0.222601    39A     -0.214771

  @DF-RHF Final Energy:  -512.32914391417262

   => Energetics <=

    Nuclear Repulsion Energy =            531.5762846239772443
    One-Electron Energy =               -1768.1775284300565545
    Two-Electron Energy =                 724.2720998919066915
    Total Energy =                       -512.3291439141726187
  Basis Set: (AUG-CC-PVTZ AUX)
    Blend: AUG-CC-PVTZ-RI
    Molecular point group: c1

    Geometry (in Angstrom), charge = -1, multiplicity = 1:

       Center              X                  Y                   Z               Mass
    ------------   -----------------  -----------------  -----------------  -----------------
         O           -1.685800210489     1.295999278356    -0.550296847579    15.994914619570
         O            1.935752789511    -1.721121721644     0.207144152421    15.994914619570
         O            3.296912789511    -0.051134721644    -0.526580847579    15.994914619570
         N           -0.198150210489    -0.240017721644     0.246570152421    14.003074004430
         C            1.004163789511     0.469185278356    -0.159325847579    12.000000000000
         C            1.313971589511     1.736471978356     0.809544052421    12.000000000000
         C           -2.556506210489    -0.795666721644     0.325424152421    12.000000000000
         C           -1.448334210489     0.186167278356    -0.039411847579    12.000000000000
         C            2.189783789511    -0.533098721644    -0.162212847579    12.000000000000
         C           -3.930247210489    -0.326822721644    -0.134905847579    12.000000000000
         H            0.871671789511     0.836584278356    -1.186643847579     1.007825032230
         H           -0.016146210489    -1.215641721644     0.477528152421     1.007825032230
         H            1.445979789511     1.312175278356     1.777575152421     1.007825032230
         H            2.201757789511     2.166795278356     0.415783152421     1.007825032230
         H            0.458709789511     2.361803278356     0.735732152421     1.007825032230
         H           -2.315961210489    -1.772434721644    -0.110578847579     1.007825032230
         H           -2.542221210489    -0.936525721644     1.412490152421     1.007825032230
         H           -4.182954210489     0.634651278356     0.316035152421     1.007825032230
         H           -3.957202210489    -0.205604721644    -1.220062847579     1.007825032230
         H           -4.695085210489    -1.054605721644     0.149717152421     1.007825032230

  Basis Set: AUG-CC-PVTZ
    Blend: AUG-CC-PVTZ
  Basis Set: (AUG-CC-PVTZ AUX)
    Blend: AUG-CC-PVTZ-JKFIT
	 Reference Energy          =    -512.3291439141726187 [Eh]
	 Singles Energy            =      -0.0000000000000000 [Eh]
	 Same-Spin Energy          =      -0.5199297803696221 [Eh]
	 Opposite-Spin Energy      =      -1.6213941056754551 [Eh]
	 Correlation Energy        =      -2.1413238860450772 [Eh]
	 Total Energy              =    -514.4704678002176479 [Eh]

	 ================> DF-SCS-MP2 Energies <==================
	-----------------------------------------------------------
	 SCS Same-Spin Scale       =       0.3333333333333333 [-]
	 SCS Opposite-Spin Scale   =       1.2000000000000000 [-]
	 SCS Same-Spin Energy      =      -0.1733099267898740 [Eh]
	 SCS Opposite-Spin Energy  =      -1.9456729268105459 [Eh]
	 SCS Correlation Energy    =      -2.1189828536004200 [Eh]
	 SCS Total Energy          =    -514.4481267677730330 [Eh]
	-----------------------------------------------------------

  Dipole Moment: [D]
     X:    -8.7190      Y:     0.6086      Z:     1.6065     Total:     8.8866

*** Psi4 exiting successfully. Buy a developer a beer!
