                               Psi4 1.4a3.dev225

  ==> Input File <==

--------------------------------------------------------------------------
#psi4
#
memory 32 gb

molecule  {
-1 1
  O       -1.5868420     1.2523650    -0.8113290
  O        2.0299390    -1.6922460     0.2543140
  O        3.4074630     0.0142020    -0.3584910
  N       -0.1383540    -0.2870410     0.0455440
  C        1.0782140     0.4735880    -0.1782270
  C        1.2275190     1.6106150     0.8299030
  C       -2.4816390    -0.8906360    -0.1487800
  C       -1.3641120     0.1217370    -0.3343690
  C        2.2855270    -0.4976230    -0.0923730
  C       -3.7126180    -0.2515540     0.4884160
  H        1.0494870     0.8996880    -1.1894520
  H        0.0422763    -1.2040182     0.3013597
  H        1.2660770     1.2028380     1.8451460
  H        2.1536960     2.1558630     0.6353850
  H        0.3800930     2.2967220     0.7589720
  H       -2.7387560    -1.2794370    -1.1416750
  H       -2.1327770    -1.7398080     0.4477120
  H       -3.4838230     0.1112750     1.4946450
  H       -4.0489630     0.5957980    -0.1116680
  H       -4.5299760    -0.9736440     0.5641870
units angstrom
no_reorient  #important for SAPT in psi4, default
symmetry c1  #important for SAPT in psi4, default
}

set PROPERTIES_ORIGIN ["COM"]
properties('MP2/aug-cc-pvtz', properties = ['dipole'])
--------------------------------------------------------------------------

    Molecular point group: c1
  Charge       = -1
  Multiplicity = 1
  Basis Set: AUG-CC-PVTZ
    Blend: AUG-CC-PVTZ
  Basis Set: (AUG-CC-PVTZ AUX)
    Blend: AUG-CC-PVTZ-JKFIT

    Orbital Energies [Eh]
    ---------------------

    Doubly Occupied:

       1A    -20.388374     2A    -20.322345     3A    -20.314400
       4A    -15.439078     5A    -11.223544     6A    -11.162521
       7A    -11.135238     8A    -11.127861     9A    -11.115602
      10A    -11.077536    11A     -1.239910    12A     -1.190972
      13A     -1.102060    14A     -1.084404    15A     -0.951136
      16A     -0.880569    17A     -0.785311    18A     -0.725465
      19A     -0.654698    20A     -0.591058    21A     -0.547425
      22A     -0.523519    23A     -0.515082    24A     -0.484113
      25A     -0.464032    26A     -0.444623    27A     -0.435524
      28A     -0.419309    29A     -0.412073    30A     -0.406097
      31A     -0.395929    32A     -0.377193    33A     -0.370120
      34A     -0.341158    35A     -0.297760    36A     -0.259820
      37A     -0.237649    38A     -0.223261    39A     -0.215808

  @DF-RHF Final Energy:  -512.33630325018680

   => Energetics <=

    Nuclear Repulsion Energy =            534.6174495671872364
    One-Electron Energy =               -1774.1423474312284725
    Two-Electron Energy =                 727.1885946138543204
    Total Energy =                       -512.3363032501868020
  Basis Set: (AUG-CC-PVTZ AUX)
    Blend: AUG-CC-PVTZ-RI
    Molecular point group: c1

    Geometry (in Angstrom), charge = -1, multiplicity = 1:

       Center              X                  Y                   Z               Mass
    ------------   -----------------  -----------------  -----------------  -----------------
         O           -1.669510940296     1.265922626669    -0.786354164191    15.994914619570
         O            1.947270059704    -1.678688373331     0.279288835809    15.994914619570
         O            3.324794059704     0.027759626669    -0.333516164191    15.994914619570
         N           -0.221022940296    -0.273483373331     0.070518835809    14.003074004430
         C            0.995545059704     0.487145626669    -0.153252164191    12.000000000000
         C            1.144850059704     1.624172626669     0.854877835809    12.000000000000
         C           -2.564307940296    -0.877078373331    -0.123805164191    12.000000000000
         C           -1.446780940296     0.135294626669    -0.309394164191    12.000000000000
         C            2.202858059704    -0.484065373331    -0.067398164191    12.000000000000
         C           -3.795286940296    -0.237996373331     0.513390835809    12.000000000000
         H            0.966818059704     0.913245626669    -1.164477164191     1.007825032230
         H           -0.040392640296    -1.190460573331     0.326334535809     1.007825032230
         H            1.183408059704     1.216395626669     1.870120835809     1.007825032230
         H            2.071027059704     2.169420626669     0.660359835809     1.007825032230
         H            0.297424059704     2.310279626669     0.783946835809     1.007825032230
         H           -2.821424940296    -1.265879373331    -1.116700164191     1.007825032230
         H           -2.215445940296    -1.726250373331     0.472686835809     1.007825032230
         H           -3.566491940296     0.124832626669     1.519619835809     1.007825032230
         H           -4.131631940296     0.609355626669    -0.086693164191     1.007825032230
         H           -4.612644940296    -0.960086373331     0.589161835809     1.007825032230

  Basis Set: AUG-CC-PVTZ
    Blend: AUG-CC-PVTZ
  Basis Set: (AUG-CC-PVTZ AUX)
    Blend: AUG-CC-PVTZ-JKFIT
	 Reference Energy          =    -512.3363032501868020 [Eh]
	 Singles Energy            =      -0.0000000000000000 [Eh]
	 Same-Spin Energy          =      -0.5198572678522602 [Eh]
	 Opposite-Spin Energy      =      -1.6207733116480196 [Eh]
	 Correlation Energy        =      -2.1406305795002796 [Eh]
	 Total Energy              =    -514.4769338296870274 [Eh]

	 ================> DF-SCS-MP2 Energies <==================
	-----------------------------------------------------------
	 SCS Same-Spin Scale       =       0.3333333333333333 [-]
	 SCS Opposite-Spin Scale   =       1.2000000000000000 [-]
	 SCS Same-Spin Energy      =      -0.1732857559507534 [Eh]
	 SCS Opposite-Spin Energy  =      -1.9449279739776235 [Eh]
	 SCS Correlation Energy    =      -2.1182137299283768 [Eh]
	 SCS Total Energy          =    -514.4545169801151587 [Eh]
	-----------------------------------------------------------

  Dipole Moment: [D]
     X:    -8.7361      Y:     0.4366      Z:     1.2102     Total:     8.8303

*** Psi4 exiting successfully. Buy a developer a beer!
