                               Psi4 1.3.2 release

  ==> Input File <==

--------------------------------------------------------------------------
#psi4
#
memory 32 gb

molecule  {
-1 1
  O       -1.5122292     1.4812257    -0.4897554
  O        2.0191420    -1.7287390     0.1939930
  O        3.3803020    -0.0587520    -0.5397320
  N       -0.1147610    -0.2476350     0.2334190
  C        1.0397545     0.4018095    -0.1998746
  C        1.3782960     1.6508690     0.7367710
  C       -2.4731170    -0.8032840     0.3122730
  C       -1.3649450     0.1785500    -0.0525630
  C        2.2731730    -0.5407160    -0.1753640
  C       -3.8468580    -0.3344400    -0.1480570
  H        0.9550610     0.8289670    -1.1997950
  H        0.0672430    -1.2232590     0.4643770
  H        1.5293690     1.3045580     1.7644240
  H        2.2851470     2.1591780     0.4026320
  H        0.5420990     2.3541860     0.7225810
  H       -2.2325720    -1.7800520    -0.1237300
  H       -2.4588320    -0.9441430     1.3993390
  H       -4.0995650     0.6270340     0.3028840
  H       -3.8738130    -0.2132220    -1.2332140
  H       -4.6116960    -1.0622230     0.1365660
units angstrom
no_reorient  #important for SAPT in psi4, default
symmetry c1  #important for SAPT in psi4, default
}

set PROPERTIES_ORIGIN ["COM"]
properties('MP2/aug-cc-pvtz', properties = ['dipole'])
--------------------------------------------------------------------------

    Molecular point group: c1
  Charge       = -1
  Multiplicity = 1
  Basis Set: AUG-CC-PVTZ
    Blend: AUG-CC-PVTZ
  Basis Set: (AUG-CC-PVTZ AUX)
    Blend: AUG-CC-PVTZ-JKFIT

    Orbital Energies [Eh]
    ---------------------

    Doubly Occupied:

       1A    -20.388988     2A    -20.322962     3A    -20.315203
       4A    -15.457929     5A    -11.246458     6A    -11.163195
       7A    -11.152165     8A    -11.131662     9A    -11.113849
      10A    -11.072556    11A     -1.199270    12A     -1.179579
      13A     -1.097071    14A     -1.082386    15A     -0.961580
      16A     -0.870200    17A     -0.791218    18A     -0.726371
      19A     -0.653303    20A     -0.596325    21A     -0.546172
      22A     -0.538826    23A     -0.512571    24A     -0.467380
      25A     -0.458919    26A     -0.433153    27A     -0.431020
      28A     -0.419152    29A     -0.410711    30A     -0.398734
      31A     -0.396527    32A     -0.373779    33A     -0.364071
      34A     -0.322103    35A     -0.295471    36A     -0.252205
      37A     -0.237951    38A     -0.223560    39A     -0.216480

  @DF-RHF Final Energy:  -512.29423465253831

   => Energetics <=

    Nuclear Repulsion Energy =            530.4914907653233058
    One-Electron Energy =               -1765.9293463162780427
    Two-Electron Energy =                 723.1436208984164296
    Total Energy =                       -512.2942346525383073
  Basis Set: (AUG-CC-PVTZ AUX)
    Blend: AUG-CC-PVTZ-RI
    Molecular point group: c1

    Geometry (in Angstrom), charge = -1, multiplicity = 1:

       Center              X                  Y                   Z               Mass
    ------------   -----------------  -----------------  -----------------  -----------------
         O           -1.600061445544     1.478905953389    -0.477537658526    15.994914619570
         O            1.931309754456    -1.731058746611     0.206210741474    15.994914619570
         O            3.292469754456    -0.061071746611    -0.527514258526    15.994914619570
         N           -0.202593245544    -0.249954746611     0.245636741474    14.003074004430
         C            0.951922254456     0.399489753389    -0.187656858526    12.000000000000
         C            1.290463754456     1.648549253389     0.748988741474    12.000000000000
         C           -2.560949245544    -0.805603746611     0.324490741474    12.000000000000
         C           -1.452777245544     0.176230253389    -0.040345258526    12.000000000000
         C            2.185340754456    -0.543035746611    -0.163146258526    12.000000000000
         C           -3.934690245544    -0.336759746611    -0.135839258526    12.000000000000
         H            0.867228754456     0.826647253389    -1.187577258526     1.007825032230
         H           -0.020589245544    -1.225578746611     0.476594741474     1.007825032230
         H            1.441536754456     1.302238253389     1.776641741474     1.007825032230
         H            2.197314754456     2.156858253389     0.414849741474     1.007825032230
         H            0.454266754456     2.351866253389     0.734798741474     1.007825032230
         H           -2.320404245544    -1.782371746611    -0.111512258526     1.007825032230
         H           -2.546664245544    -0.946462746611     1.411556741474     1.007825032230
         H           -4.187397245544     0.624714253389     0.315101741474     1.007825032230
         H           -3.961645245544    -0.215541746611    -1.220996258526     1.007825032230
         H           -4.699528245544    -1.064542746611     0.148783741474     1.007825032230

  Basis Set: AUG-CC-PVTZ
    Blend: AUG-CC-PVTZ
  Basis Set: (AUG-CC-PVTZ AUX)
    Blend: AUG-CC-PVTZ-JKFIT
	 Reference Energy          =    -512.2942346525383073 [Eh]
	 Singles Energy            =      -0.0000000000000000 [Eh]
	 Same-Spin Energy          =      -0.5235964189189763 [Eh]
	 Opposite-Spin Energy      =      -1.6295576212947420 [Eh]
	 Correlation Energy        =      -2.1531540402137184 [Eh]
	 Total Energy              =    -514.4473886927520425 [Eh]

	 ================> DF-SCS-MP2 Energies <==================
	-----------------------------------------------------------
	 SCS Same-Spin Scale       =       0.3333333333333333 [-]
	 SCS Opposite-Spin Scale   =       1.2000000000000000 [-]
	 SCS Same-Spin Energy      =      -0.1745321396396588 [Eh]
	 SCS Opposite-Spin Energy  =      -1.9554691455536903 [Eh]
	 SCS Correlation Energy    =      -2.1300012851933490 [Eh]
	 SCS Total Energy          =    -514.4242359377316234 [Eh]
	-----------------------------------------------------------

  Dipole Moment: [D]
     X:    -8.8405      Y:    -0.1764      Z:     1.6405     Total:     8.9932

*** Psi4 exiting successfully. Buy a developer a beer!
