                               Psi4 1.3.2 release

  ==> Input File <==

--------------------------------------------------------------------------
#psi4
#
memory 32 gb

molecule  {
-1 1
  O       -1.6024110     1.2883820    -0.5634480
  O        2.0839627    -1.5860102     0.3241985
  O        3.3803020    -0.0587520    -0.5397320
  N       -0.1255234    -0.3024609     0.1900109
  C        1.0875530     0.4615680    -0.1724770
  C        1.3782960     1.6508690     0.7367710
  C       -2.4731170    -0.8032840     0.3122730
  C       -1.3649450     0.1785500    -0.0525630
  C        2.2731730    -0.5407160    -0.1753640
  C       -3.8468580    -0.3344400    -0.1480570
  H        0.9550610     0.8289670    -1.1997950
  H        0.0672430    -1.2232590     0.4643770
  H        1.5293690     1.3045580     1.7644240
  H        2.2851470     2.1591780     0.4026320
  H        0.5420990     2.3541860     0.7225810
  H       -2.2325720    -1.7800520    -0.1237300
  H       -2.4588320    -0.9441430     1.3993390
  H       -4.0995650     0.6270340     0.3028840
  H       -3.8738130    -0.2132220    -1.2332140
  H       -4.6116960    -1.0622230     0.1365660
units angstrom
no_reorient  #important for SAPT in psi4, default
symmetry c1  #important for SAPT in psi4, default
}

set PROPERTIES_ORIGIN ["COM"]
properties('MP2/aug-cc-pvtz', properties = ['dipole'])
--------------------------------------------------------------------------

    Molecular point group: c1
  Charge       = -1
  Multiplicity = 1
  Basis Set: AUG-CC-PVTZ
    Blend: AUG-CC-PVTZ
  Basis Set: (AUG-CC-PVTZ AUX)
    Blend: AUG-CC-PVTZ-JKFIT

    Orbital Energies [Eh]
    ---------------------

    Doubly Occupied:

       1A    -20.392342     2A    -20.321204     3A    -20.292364
       4A    -15.436969     5A    -11.224002     6A    -11.141201
       7A    -11.134042     8A    -11.123708     9A    -11.108389
      10A    -11.073887    11A     -1.242023    12A     -1.231009
      13A     -1.094430    14A     -1.087753    15A     -0.947920
      16A     -0.875098    17A     -0.783715    18A     -0.716911
      19A     -0.651371    20A     -0.585490    21A     -0.536709
      22A     -0.531686    23A     -0.508650    24A     -0.486015
      25A     -0.469661    26A     -0.442057    27A     -0.427188
      28A     -0.421511    29A     -0.414218    30A     -0.411135
      31A     -0.397651    32A     -0.379168    33A     -0.373863
      34A     -0.347214    35A     -0.298474    36A     -0.257457
      37A     -0.232402    38A     -0.214758    39A     -0.209868

  @DF-RHF Final Energy:  -512.32941912247975

   => Energetics <=

    Nuclear Repulsion Energy =            536.2344926449774221
    One-Electron Energy =               -1777.4807948672587372
    Two-Electron Energy =                 728.9168830998016801
    Total Energy =                       -512.3294191224797487
  Basis Set: (AUG-CC-PVTZ AUX)
    Blend: AUG-CC-PVTZ-RI
    Molecular point group: c1

    Geometry (in Angstrom), charge = -1, multiplicity = 1:

       Center              X                  Y                   Z               Mass
    ------------   -----------------  -----------------  -----------------  -----------------
         O           -1.690362820455     1.291977682973    -0.555567458684    15.994914619570
         O            1.996010879545    -1.582414517027     0.332079041316    15.994914619570
         O            3.292350179545    -0.055156317027    -0.531851458684    15.994914619570
         N           -0.213475220455    -0.298865217027     0.197891441316    14.003074004430
         C            0.999601179545     0.465163682973    -0.164596458684    12.000000000000
         C            1.290344179545     1.654464682973     0.744651541316    12.000000000000
         C           -2.561068820455    -0.799688317027     0.320153541316    12.000000000000
         C           -1.452896820455     0.182145682973    -0.044682458684    12.000000000000
         C            2.185221179545    -0.537120317027    -0.167483458684    12.000000000000
         C           -3.934809820455    -0.330844317027    -0.140176458684    12.000000000000
         H            0.867109179545     0.832562682973    -1.191914458684     1.007825032230
         H           -0.020708820455    -1.219663317027     0.472257541316     1.007825032230
         H            1.441417179545     1.308153682973     1.772304541316     1.007825032230
         H            2.197195179545     2.162773682973     0.410512541316     1.007825032230
         H            0.454147179545     2.357781682973     0.730461541316     1.007825032230
         H           -2.320523820455    -1.776456317027    -0.115849458684     1.007825032230
         H           -2.546783820455    -0.940547317027     1.407219541316     1.007825032230
         H           -4.187516820455     0.630629682973     0.310764541316     1.007825032230
         H           -3.961764820455    -0.209626317027    -1.225333458684     1.007825032230
         H           -4.699647820455    -1.058627317027     0.144446541316     1.007825032230

  Basis Set: AUG-CC-PVTZ
    Blend: AUG-CC-PVTZ
  Basis Set: (AUG-CC-PVTZ AUX)
    Blend: AUG-CC-PVTZ-JKFIT
	 Reference Energy          =    -512.3294191224797487 [Eh]
	 Singles Energy            =      -0.0000000000000000 [Eh]
	 Same-Spin Energy          =      -0.5180633308267224 [Eh]
	 Opposite-Spin Energy      =      -1.6161860753864288 [Eh]
	 Correlation Energy        =      -2.1342494062131512 [Eh]
	 Total Energy              =    -514.4636685286928923 [Eh]

	 ================> DF-SCS-MP2 Energies <==================
	-----------------------------------------------------------
	 SCS Same-Spin Scale       =       0.3333333333333333 [-]
	 SCS Opposite-Spin Scale   =       1.2000000000000000 [-]
	 SCS Same-Spin Energy      =      -0.1726877769422408 [Eh]
	 SCS Opposite-Spin Energy  =      -1.9394232904637145 [Eh]
	 SCS Correlation Energy    =      -2.1121110674059551 [Eh]
	 SCS Total Energy          =    -514.4415301898857251 [Eh]
	-----------------------------------------------------------

  Dipole Moment: [D]
     X:    -8.9819      Y:     0.0312      Z:     1.6430     Total:     9.1310

*** Psi4 exiting successfully. Buy a developer a beer!
