                               Psi4 1.3.2 release

  ==> Input File <==

--------------------------------------------------------------------------
#psi4
#
memory 32 gb

molecule  {
-1 1
  O       -1.6024110     1.2883820    -0.5634480
  O        2.0191420    -1.7287390     0.1939930
  O        3.4073096    -0.1182869    -0.5304355
  N       -0.1147610    -0.2476350     0.2334190
  C        1.0394845     0.4013367    -0.1466311
  C        1.3782960     1.6508690     0.7367710
  C       -2.4731170    -0.8032840     0.3122730
  C       -1.3649450     0.1785500    -0.0525630
  C        2.2731730    -0.5407160    -0.1753640
  C       -3.8468580    -0.3344400    -0.1480570
  H        0.9550610     0.8289670    -1.1997950
  H        0.0672430    -1.2232590     0.4643770
  H        1.5293690     1.3045580     1.7644240
  H        2.2851470     2.1591780     0.4026320
  H        0.5420990     2.3541860     0.7225810
  H       -2.2325720    -1.7800520    -0.1237300
  H       -2.4588320    -0.9441430     1.3993390
  H       -4.0995650     0.6270340     0.3028840
  H       -3.8738130    -0.2132220    -1.2332140
  H       -4.6116960    -1.0622230     0.1365660
units angstrom
no_reorient  #important for SAPT in psi4, default
symmetry c1  #important for SAPT in psi4, default
}

set PROPERTIES_ORIGIN ["COM"]
properties('MP2/aug-cc-pvtz', properties = ['dipole'])
--------------------------------------------------------------------------

    Molecular point group: c1
  Charge       = -1
  Multiplicity = 1
  Basis Set: AUG-CC-PVTZ
    Blend: AUG-CC-PVTZ
  Basis Set: (AUG-CC-PVTZ AUX)
    Blend: AUG-CC-PVTZ-JKFIT

    Orbital Energies [Eh]
    ---------------------

    Doubly Occupied:

       1A    -20.397081     2A    -20.316400     3A    -20.312238
       4A    -15.442837     5A    -11.229112     6A    -11.160056
       7A    -11.138803     8A    -11.126791     9A    -11.117035
      10A    -11.076646    11A     -1.248006    12A     -1.190230
      13A     -1.111201    14A     -1.079810    15A     -0.953353
      16A     -0.872724    17A     -0.788897    18A     -0.724980
      19A     -0.644738    20A     -0.597678    21A     -0.552753
      22A     -0.535679    23A     -0.508412    24A     -0.486484
      25A     -0.467008    26A     -0.437083    27A     -0.427953
      28A     -0.419993    29A     -0.414894    30A     -0.402080
      31A     -0.397154    32A     -0.380403    33A     -0.368727
      34A     -0.336254    35A     -0.304738    36A     -0.251752
      37A     -0.231019    38A     -0.223408    39A     -0.212064

  @DF-RHF Final Energy:  -512.32674833899409

   => Energetics <=

    Nuclear Repulsion Energy =            533.8844420193922815
    One-Electron Energy =               -1772.6494277251215408
    Two-Electron Energy =                 726.4382373667351658
    Total Energy =                       -512.3267483389940935
  Basis Set: (AUG-CC-PVTZ AUX)
    Blend: AUG-CC-PVTZ-RI
    Molecular point group: c1

    Geometry (in Angstrom), charge = -1, multiplicity = 1:

       Center              X                  Y                   Z               Mass
    ------------   -----------------  -----------------  -----------------  -----------------
         O           -1.683206849341     1.314121933297    -0.548515614291    15.994914619570
         O            1.938346150659    -1.702999066703     0.208925385709    15.994914619570
         O            3.326513750659    -0.092546966703    -0.515503114291    15.994914619570
         N           -0.195556849341    -0.221895066703     0.248351385709    14.003074004430
         C            0.958688650659     0.427076633297    -0.131698714291    12.000000000000
         C            1.297500150659     1.676608933297     0.751703385709    12.000000000000
         C           -2.553912849341    -0.777544066703     0.327205385709    12.000000000000
         C           -1.445740849341     0.204289933297    -0.037630614291    12.000000000000
         C            2.192377150659    -0.514976066703    -0.160431614291    12.000000000000
         C           -3.927653849341    -0.308700066703    -0.133124614291    12.000000000000
         H            0.874265150659     0.854706933297    -1.184862614291     1.007825032230
         H           -0.013552849341    -1.197519066703     0.479309385709     1.007825032230
         H            1.448573150659     1.330297933297     1.779356385709     1.007825032230
         H            2.204351150659     2.184917933297     0.417564385709     1.007825032230
         H            0.461303150659     2.379925933297     0.737513385709     1.007825032230
         H           -2.313367849341    -1.754312066703    -0.108797614291     1.007825032230
         H           -2.539627849341    -0.918403066703     1.414271385709     1.007825032230
         H           -4.180360849341     0.652773933297     0.317816385709     1.007825032230
         H           -3.954608849341    -0.187482066703    -1.218281614291     1.007825032230
         H           -4.692491849341    -1.036483066703     0.151498385709     1.007825032230

  Basis Set: AUG-CC-PVTZ
    Blend: AUG-CC-PVTZ
  Basis Set: (AUG-CC-PVTZ AUX)
    Blend: AUG-CC-PVTZ-JKFIT
	 Reference Energy          =    -512.3267483389940935 [Eh]
	 Singles Energy            =      -0.0000000000000000 [Eh]
	 Same-Spin Energy          =      -0.5207511991026423 [Eh]
	 Opposite-Spin Energy      =      -1.6218025328084531 [Eh]
	 Correlation Energy        =      -2.1425537319110957 [Eh]
	 Total Energy              =    -514.4693020709052007 [Eh]

	 ================> DF-SCS-MP2 Energies <==================
	-----------------------------------------------------------
	 SCS Same-Spin Scale       =       0.3333333333333333 [-]
	 SCS Opposite-Spin Scale   =       1.2000000000000000 [-]
	 SCS Same-Spin Energy      =      -0.1735837330342141 [Eh]
	 SCS Opposite-Spin Energy  =      -1.9461630393701437 [Eh]
	 SCS Correlation Energy    =      -2.1197467724043579 [Eh]
	 SCS Total Energy          =    -514.4464951113984625 [Eh]
	-----------------------------------------------------------

  Dipole Moment: [D]
     X:    -9.0545      Y:     0.6597      Z:     1.6129     Total:     9.2206

*** Psi4 exiting successfully. Buy a developer a beer!
