                               Psi4 1.3.2 release

  ==> Input File <==

--------------------------------------------------------------------------
#psi4
#
memory 32 gb

molecule  {
-1 1
  O       -1.6024110     1.2883820    -0.5634480
  O        2.0191420    -1.7287390     0.1939930
  O        3.3803020    -0.0587520    -0.5397320
  N       -0.1147610    -0.2476350     0.2334190
  C        1.0875530     0.4615680    -0.1724770
  C        1.4490552     1.6179723     0.7536686
  C       -2.4731170    -0.8032840     0.3122730
  C       -1.3649450     0.1785500    -0.0525630
  C        2.3120108    -0.4916277    -0.1235146
  C       -3.8468580    -0.3344400    -0.1480570
  H        0.9550610     0.8289670    -1.1997950
  H        0.0672430    -1.2232590     0.4643770
  H        1.5293690     1.3045580     1.7644240
  H        2.2851470     2.1591780     0.4026320
  H        0.5420990     2.3541860     0.7225810
  H       -2.2325720    -1.7800520    -0.1237300
  H       -2.4588320    -0.9441430     1.3993390
  H       -4.0995650     0.6270340     0.3028840
  H       -3.8738130    -0.2132220    -1.2332140
  H       -4.6116960    -1.0622230     0.1365660
units angstrom
no_reorient  #important for SAPT in psi4, default
symmetry c1  #important for SAPT in psi4, default
}

set PROPERTIES_ORIGIN ["COM"]
properties('MP2/aug-cc-pvtz', properties = ['dipole'])
--------------------------------------------------------------------------

    Molecular point group: c1
  Charge       = -1
  Multiplicity = 1
  Basis Set: AUG-CC-PVTZ
    Blend: AUG-CC-PVTZ
  Basis Set: (AUG-CC-PVTZ AUX)
    Blend: AUG-CC-PVTZ-JKFIT

    Orbital Energies [Eh]
    ---------------------

    Doubly Occupied:

       1A    -20.391118     2A    -20.323635     3A    -20.311821
       4A    -15.438050     5A    -11.223236     6A    -11.161089
       7A    -11.134849     8A    -11.123873     9A    -11.115444
      10A    -11.076892    11A     -1.240930    12A     -1.196339
      13A     -1.098257    14A     -1.071684    15A     -0.948756
      16A     -0.881266    17A     -0.783944    18A     -0.718878
      19A     -0.638948    20A     -0.588912    21A     -0.543337
      22A     -0.533067    23A     -0.513364    24A     -0.482792
      25A     -0.465143    26A     -0.439128    27A     -0.429211
      28A     -0.419961    29A     -0.413619    30A     -0.407675
      31A     -0.392904    32A     -0.380243    33A     -0.358962
      34A     -0.343483    35A     -0.298800    36A     -0.258535
      37A     -0.232825    38A     -0.220067    39A     -0.214316

  @DF-RHF Final Energy:  -512.32354583520817

   => Energetics <=

    Nuclear Repulsion Energy =            533.3128134418461741
    One-Electron Energy =               -1771.6420131084707918
    Two-Electron Energy =                 726.0056538314164527
    Total Energy =                       -512.3235458352081650
  Basis Set: (AUG-CC-PVTZ AUX)
    Blend: AUG-CC-PVTZ-RI
    Molecular point group: c1

    Geometry (in Angstrom), charge = -1, multiplicity = 1:

       Center              X                  Y                   Z               Mass
    ------------   -----------------  -----------------  -----------------  -----------------
         O           -1.693341100677     1.301146425143    -0.551056923851    15.994914619570
         O            1.928211899323    -1.715974574857     0.206384076149    15.994914619570
         O            3.289371899323    -0.045987574857    -0.527340923851    15.994914619570
         N           -0.205691100677    -0.234870574857     0.245810076149    14.003074004430
         C            0.996622899323     0.474332425143    -0.160085923851    12.000000000000
         C            1.358125099323     1.630736725143     0.766059676149    12.000000000000
         C           -2.564047100677    -0.790519574857     0.324664076149    12.000000000000
         C           -1.455875100677     0.191314425143    -0.040171923851    12.000000000000
         C            2.221080699323    -0.478863274857    -0.111123523851    12.000000000000
         C           -3.937788100677    -0.321675574857    -0.135665923851    12.000000000000
         H            0.864130899323     0.841731425143    -1.187403923851     1.007825032230
         H           -0.023687100677    -1.210494574857     0.476768076149     1.007825032230
         H            1.438438899323     1.317322425143     1.776815076149     1.007825032230
         H            2.194216899323     2.171942425143     0.415023076149     1.007825032230
         H            0.451168899323     2.366950425143     0.734972076149     1.007825032230
         H           -2.323502100677    -1.767287574857    -0.111338923851     1.007825032230
         H           -2.549762100677    -0.931378574857     1.411730076149     1.007825032230
         H           -4.190495100677     0.639798425143     0.315275076149     1.007825032230
         H           -3.964743100677    -0.200457574857    -1.220822923851     1.007825032230
         H           -4.702626100677    -1.049458574857     0.148957076149     1.007825032230

  Basis Set: AUG-CC-PVTZ
    Blend: AUG-CC-PVTZ
  Basis Set: (AUG-CC-PVTZ AUX)
    Blend: AUG-CC-PVTZ-JKFIT
	 Reference Energy          =    -512.3235458352081650 [Eh]
	 Singles Energy            =      -0.0000000000000000 [Eh]
	 Same-Spin Energy          =      -0.5204885813705605 [Eh]
	 Opposite-Spin Energy      =      -1.6221548516216076 [Eh]
	 Correlation Energy        =      -2.1426434329921680 [Eh]
	 Total Energy              =    -514.4661892682003099 [Eh]

	 ================> DF-SCS-MP2 Energies <==================
	-----------------------------------------------------------
	 SCS Same-Spin Scale       =       0.3333333333333333 [-]
	 SCS Opposite-Spin Scale   =       1.2000000000000000 [-]
	 SCS Same-Spin Energy      =      -0.1734961937901868 [Eh]
	 SCS Opposite-Spin Energy  =      -1.9465858219459289 [Eh]
	 SCS Correlation Energy    =      -2.1200820157361155 [Eh]
	 SCS Total Energy          =    -514.4436278509442673 [Eh]
	-----------------------------------------------------------

  Dipole Moment: [D]
     X:    -8.3653      Y:     0.8975      Z:     1.4957     Total:     8.5452

*** Psi4 exiting successfully. Buy a developer a beer!
