                               Psi4 1.3.2 release

  ==> Input File <==

--------------------------------------------------------------------------
#psi4
#
memory 32 gb

molecule  {
-1 1
  O       -1.6024110     1.2883820    -0.5634480
  O        2.0191420    -1.7287390     0.1939930
  O        3.3803020    -0.0587520    -0.5397320
  N       -0.1147610    -0.2476350     0.2334190
  C        1.0875530     0.4615680    -0.1724770
  C        1.3782960     1.6508690     0.7367710
  C       -2.4731170    -0.8032840     0.3122730
  C       -1.3649450     0.1785500    -0.0525630
  C        2.2731730    -0.5407160    -0.1753640
  C       -3.8515942    -0.3791565    -0.1763979
  H        0.9550610     0.8289670    -1.1997950
  H        0.0672430    -1.2232590     0.4643770
  H        1.5293690     1.3045580     1.7644240
  H        2.2851470     2.1591780     0.4026320
  H        0.5420990     2.3541860     0.7225810
  H       -2.2664395    -1.7796909    -0.1415445
  H       -2.4588320    -0.9441430     1.3993390
  H       -4.0995650     0.6270340     0.3028840
  H       -3.8738130    -0.2132220    -1.2332140
  H       -4.6116960    -1.0622230     0.1365660
units angstrom
no_reorient  #important for SAPT in psi4, default
symmetry c1  #important for SAPT in psi4, default
}

set PROPERTIES_ORIGIN ["COM"]
properties('MP2/aug-cc-pvtz', properties = ['dipole'])
--------------------------------------------------------------------------

    Molecular point group: c1
  Charge       = -1
  Multiplicity = 1
  Basis Set: AUG-CC-PVTZ
    Blend: AUG-CC-PVTZ
  Basis Set: (AUG-CC-PVTZ AUX)
    Blend: AUG-CC-PVTZ-JKFIT

    Orbital Energies [Eh]
    ---------------------

    Doubly Occupied:

       1A    -20.392078     2A    -20.322310     3A    -20.313809
       4A    -15.438291     5A    -11.224416     6A    -11.162004
       7A    -11.135530     8A    -11.124240     9A    -11.114886
      10A    -11.075679    11A     -1.241795    12A     -1.190614
      13A     -1.096729    14A     -1.081303    15A     -0.949688
      16A     -0.878695    17A     -0.783905    18A     -0.721074
      19A     -0.639673    20A     -0.589234    21A     -0.542658
      22A     -0.533127    23A     -0.510812    24A     -0.486325
      25A     -0.465552    26A     -0.439371    27A     -0.428547
      28A     -0.423737    29A     -0.408621    30A     -0.402611
      31A     -0.392134    32A     -0.373983    33A     -0.370235
      34A     -0.341571    35A     -0.300078    36A     -0.257219
      37A     -0.236939    38A     -0.223129    39A     -0.215638

  @DF-RHF Final Energy:  -512.33267933753302

   => Energetics <=

    Nuclear Repulsion Energy =            533.2176112147312779
    One-Electron Energy =               -1771.4440974224794445
    Two-Electron Energy =                 725.8938068702151440
    Total Energy =                       -512.3326793375330226
  Basis Set: (AUG-CC-PVTZ AUX)
    Blend: AUG-CC-PVTZ-RI
    Molecular point group: c1

    Geometry (in Angstrom), charge = -1, multiplicity = 1:

       Center              X                  Y                   Z               Mass
    ------------   -----------------  -----------------  -----------------  -----------------
         O           -1.683580780763     1.306217246355    -0.542845353188    15.994914619570
         O            1.937972219237    -1.710903753645     0.214595646812    15.994914619570
         O            3.299132219237    -0.040916753645    -0.519129353188    15.994914619570
         N           -0.195930780763    -0.229799753645     0.254021646812    14.003074004430
         C            1.006383219237     0.479403246355    -0.151874353188    12.000000000000
         C            1.297126219237     1.668704246355     0.757373646812    12.000000000000
         C           -2.554286780763    -0.785448753645     0.332875646812    12.000000000000
         C           -1.446114780763     0.196385246355    -0.031960353188    12.000000000000
         C            2.192003219237    -0.522880753645    -0.154761353188    12.000000000000
         C           -3.932763980763    -0.361321253645    -0.155795253188    12.000000000000
         H            0.873891219237     0.846802246355    -1.179192353188     1.007825032230
         H           -0.013926780763    -1.205423753645     0.484979646812     1.007825032230
         H            1.448199219237     1.322393246355     1.785026646812     1.007825032230
         H            2.203977219237     2.177013246355     0.423234646812     1.007825032230
         H            0.460929219237     2.372021246355     0.743183646812     1.007825032230
         H           -2.347609280763    -1.761855653645    -0.120941853188     1.007825032230
         H           -2.540001780763    -0.926307753645     1.419941646812     1.007825032230
         H           -4.180734780763     0.644869246355     0.323486646812     1.007825032230
         H           -3.954982780763    -0.195386753645    -1.212611353188     1.007825032230
         H           -4.692865780763    -1.044387753645     0.157168646812     1.007825032230

  Basis Set: AUG-CC-PVTZ
    Blend: AUG-CC-PVTZ
  Basis Set: (AUG-CC-PVTZ AUX)
    Blend: AUG-CC-PVTZ-JKFIT
	 Reference Energy          =    -512.3326793375330226 [Eh]
	 Singles Energy            =      -0.0000000000000000 [Eh]
	 Same-Spin Energy          =      -0.5202237652734593 [Eh]
	 Opposite-Spin Energy      =      -1.6215361953172756 [Eh]
	 Correlation Energy        =      -2.1417599605907349 [Eh]
	 Total Energy              =    -514.4744392981237979 [Eh]

	 ================> DF-SCS-MP2 Energies <==================
	-----------------------------------------------------------
	 SCS Same-Spin Scale       =       0.3333333333333333 [-]
	 SCS Opposite-Spin Scale   =       1.2000000000000000 [-]
	 SCS Same-Spin Energy      =      -0.1734079217578197 [Eh]
	 SCS Opposite-Spin Energy  =      -1.9458434343807305 [Eh]
	 SCS Correlation Energy    =      -2.1192513561385504 [Eh]
	 SCS Total Energy          =    -514.4519306936715566 [Eh]
	-----------------------------------------------------------

  Dipole Moment: [D]
     X:    -8.6782      Y:     0.5849      Z:     1.5742     Total:     8.8392

*** Psi4 exiting successfully. Buy a developer a beer!
