                               Psi4 1.4a3.dev225

  ==> Input File <==

--------------------------------------------------------------------------
#psi4
#
memory 32 gb

molecule  {
-1 1
  O       -1.5868420     1.2523650    -0.8113290
  O        2.0299390    -1.6922460     0.2543140
  O        3.4074630     0.0142020    -0.3584910
  N       -0.1383540    -0.2870410     0.0455440
  C        1.0949697     0.4840641    -0.1813090
  C        1.2275190     1.6106150     0.8299030
  C       -2.4816390    -0.8906360    -0.1487800
  C       -1.3641120     0.1217370    -0.3343690
  C        2.2855270    -0.4976230    -0.0923730
  C       -3.7126180    -0.2515540     0.4884160
  H        1.0494870     0.8996880    -1.1894520
  H        0.0515970    -1.2513350     0.3145600
  H        1.2660770     1.2028380     1.8451460
  H        2.1536960     2.1558630     0.6353850
  H        0.3800930     2.2967220     0.7589720
  H       -2.7387560    -1.2794370    -1.1416750
  H       -2.1327770    -1.7398080     0.4477120
  H       -3.4838230     0.1112750     1.4946450
  H       -4.0489630     0.5957980    -0.1116680
  H       -4.5299760    -0.9736440     0.5641870
units angstrom
no_reorient  #important for SAPT in psi4, default
symmetry c1  #important for SAPT in psi4, default
}

set PROPERTIES_ORIGIN ["COM"]
properties('MP2/aug-cc-pvtz', properties = ['dipole'])
--------------------------------------------------------------------------

    Molecular point group: c1
  Charge       = -1
  Multiplicity = 1
  Basis Set: AUG-CC-PVTZ
    Blend: AUG-CC-PVTZ
  Basis Set: (AUG-CC-PVTZ AUX)
    Blend: AUG-CC-PVTZ-JKFIT

    Orbital Energies [Eh]
    ---------------------

    Doubly Occupied:

       1A    -20.386349     2A    -20.323822     3A    -20.314889
       4A    -15.441257     5A    -11.221444     6A    -11.163060
       7A    -11.133900     8A    -11.126867     9A    -11.116575
      10A    -11.077915    11A     -1.237271    12A     -1.191897
      13A     -1.096466    14A     -1.080597    15A     -0.949659
      16A     -0.881511    17A     -0.783066    18A     -0.725240
      19A     -0.642137    20A     -0.587700    21A     -0.545518
      22A     -0.522995    23A     -0.513537    24A     -0.482726
      25A     -0.464027    26A     -0.442546    27A     -0.434942
      28A     -0.419179    29A     -0.410944    30A     -0.408088
      31A     -0.395013    32A     -0.374234    33A     -0.369248
      34A     -0.342536    35A     -0.295808    36A     -0.258795
      37A     -0.238840    38A     -0.224435    39A     -0.216633

  @DF-RHF Final Energy:  -512.33629200261157

   => Energetics <=

    Nuclear Repulsion Energy =            534.1508615489810836
    One-Electron Energy =               -1773.2909709975153874
    Two-Electron Energy =                 726.8038174459227321
    Total Energy =                       -512.3362920026115717
  Basis Set: (AUG-CC-PVTZ AUX)
    Blend: AUG-CC-PVTZ-RI
    Molecular point group: c1

    Geometry (in Angstrom), charge = -1, multiplicity = 1:

       Center              X                  Y                   Z               Mass
    ------------   -----------------  -----------------  -----------------  -----------------
         O           -1.670971811946     1.265381026933    -0.786189792334    15.994914619570
         O            1.945809188054    -1.679229973067     0.279453207666    15.994914619570
         O            3.323333188054     0.027218026933    -0.333351792334    15.994914619570
         N           -0.222483811946    -0.274024973067     0.070683207666    14.003074004430
         C            1.010839888054     0.497080126933    -0.156169792334    12.000000000000
         C            1.143389188054     1.623631026933     0.855042207666    12.000000000000
         C           -2.565768811946    -0.877619973067    -0.123640792334    12.000000000000
         C           -1.448241811946     0.134753026933    -0.309229792334    12.000000000000
         C            2.201397188054    -0.484606973067    -0.067233792334    12.000000000000
         C           -3.796747811946    -0.238537973067     0.513555207666    12.000000000000
         H            0.965357188054     0.912704026933    -1.164312792334     1.007825032230
         H           -0.032532811946    -1.238318973067     0.339699207666     1.007825032230
         H            1.181947188054     1.215854026933     1.870285207666     1.007825032230
         H            2.069566188054     2.168879026933     0.660524207666     1.007825032230
         H            0.295963188054     2.309738026933     0.784111207666     1.007825032230
         H           -2.822885811946    -1.266420973067    -1.116535792334     1.007825032230
         H           -2.216906811946    -1.726791973067     0.472851207666     1.007825032230
         H           -3.567952811946     0.124291026933     1.519784207666     1.007825032230
         H           -4.133092811946     0.608814026933    -0.086528792334     1.007825032230
         H           -4.614105811946    -0.960627973067     0.589326207666     1.007825032230

  Basis Set: AUG-CC-PVTZ
    Blend: AUG-CC-PVTZ
  Basis Set: (AUG-CC-PVTZ AUX)
    Blend: AUG-CC-PVTZ-JKFIT
	 Reference Energy          =    -512.3362920026115717 [Eh]
	 Singles Energy            =      -0.0000000000000000 [Eh]
	 Same-Spin Energy          =      -0.5203480693031187 [Eh]
	 Opposite-Spin Energy      =      -1.6218221877306327 [Eh]
	 Correlation Energy        =      -2.1421702570337513 [Eh]
	 Total Energy              =    -514.4784622596453119 [Eh]

	 ================> DF-SCS-MP2 Energies <==================
	-----------------------------------------------------------
	 SCS Same-Spin Scale       =       0.3333333333333333 [-]
	 SCS Opposite-Spin Scale   =       1.2000000000000000 [-]
	 SCS Same-Spin Energy      =      -0.1734493564343729 [Eh]
	 SCS Opposite-Spin Energy  =      -1.9461866252767592 [Eh]
	 SCS Correlation Energy    =      -2.1196359817111321 [Eh]
	 SCS Total Energy          =    -514.4559279843226705 [Eh]
	-----------------------------------------------------------

  Dipole Moment: [D]
     X:    -8.5869      Y:     0.4084      Z:     1.2316     Total:     8.6844

*** Psi4 exiting successfully. Buy a developer a beer!
