                               Psi4 1.3.2 release

  ==> Input File <==

--------------------------------------------------------------------------
#psi4
#
memory 32 gb

molecule  {
-1 1
  O       -1.6024110     1.2883820    -0.5634480
  O        2.0191420    -1.7287390     0.1939930
  O        3.3803020    -0.0587520    -0.5397320
  N       -0.1147610    -0.2476350     0.2334190
  C        1.1092630     0.4674409    -0.1867113
  C        1.3782960     1.6508690     0.7367710
  C       -2.4731170    -0.8032840     0.3122730
  C       -1.3649450     0.1785500    -0.0525630
  C        2.2731730    -0.5407160    -0.1753640
  C       -3.8468580    -0.3344400    -0.1480570
  H        0.9550610     0.8289670    -1.1997950
  H        0.0672430    -1.2232590     0.4643770
  H        1.5293690     1.3045580     1.7644240
  H        2.2868482     2.1464992     0.3885050
  H        0.5420990     2.3541860     0.7225810
  H       -2.2325720    -1.7800520    -0.1237300
  H       -2.4588320    -0.9441430     1.3993390
  H       -4.0995650     0.6270340     0.3028840
  H       -3.8738130    -0.2132220    -1.2332140
  H       -4.6116960    -1.0622230     0.1365660
units angstrom
no_reorient  #important for SAPT in psi4, default
symmetry c1  #important for SAPT in psi4, default
}

set PROPERTIES_ORIGIN ["COM"]
properties('MP2/aug-cc-pvtz', properties = ['dipole'])
--------------------------------------------------------------------------

    Molecular point group: c1
  Charge       = -1
  Multiplicity = 1
  Basis Set: AUG-CC-PVTZ
    Blend: AUG-CC-PVTZ
  Basis Set: (AUG-CC-PVTZ AUX)
    Blend: AUG-CC-PVTZ-JKFIT

    Orbital Energies [Eh]
    ---------------------

    Doubly Occupied:

       1A    -20.390467     2A    -20.322800     3A    -20.313830
       4A    -15.436363     5A    -11.222302     6A    -11.161857
       7A    -11.134542     8A    -11.123759     9A    -11.115773
      10A    -11.076443    11A     -1.240009    12A     -1.191302
      13A     -1.094765    14A     -1.078269    15A     -0.948257
      16A     -0.879836    17A     -0.782486    18A     -0.721943
      19A     -0.638286    20A     -0.587199    21A     -0.540670
      22A     -0.532519    23A     -0.511703    24A     -0.481865
      25A     -0.465210    26A     -0.438163    27A     -0.425814
      28A     -0.419285    29A     -0.412970    30A     -0.407019
      31A     -0.395793    32A     -0.373734    33A     -0.369095
      34A     -0.342855    35A     -0.298391    36A     -0.257081
      37A     -0.237843    38A     -0.224467    39A     -0.215958

  @DF-RHF Final Energy:  -512.33554834912184

   => Energetics <=

    Nuclear Repulsion Energy =            533.2299857070186135
    One-Electron Energy =               -1771.5092255438692064
    Two-Electron Energy =                 725.9436914877287563
    Total Energy =                       -512.3355483491218365
  Basis Set: (AUG-CC-PVTZ AUX)
    Blend: AUG-CC-PVTZ-RI
    Molecular point group: c1

    Geometry (in Angstrom), charge = -1, multiplicity = 1:

       Center              X                  Y                   Z               Mass
    ------------   -----------------  -----------------  -----------------  -----------------
         O           -1.686032443605     1.302094617967    -0.544046160269    15.994914619570
         O            1.935520556395    -1.715026382033     0.213394839731    15.994914619570
         O            3.296680556395    -0.045039382033    -0.520330160269    15.994914619570
         N           -0.198382443605    -0.233922382033     0.252820839731    14.003074004430
         C            1.025641556395     0.481153517967    -0.167309460269    12.000000000000
         C            1.294674556395     1.664581617967     0.756172839731    12.000000000000
         C           -2.556738443605    -0.789571382033     0.331674839731    12.000000000000
         C           -1.448566443605     0.192262617967    -0.033161160269    12.000000000000
         C            2.189551556395    -0.527003382033    -0.155962160269    12.000000000000
         C           -3.930479443605    -0.320727382033    -0.128655160269    12.000000000000
         H            0.871439556395     0.842679617967    -1.180393160269     1.007825032230
         H           -0.016378443605    -1.209546382033     0.483778839731     1.007825032230
         H            1.445747556395     1.318270617967     1.783825839731     1.007825032230
         H            2.203226756395     2.160211817967     0.407906839731     1.007825032230
         H            0.458477556395     2.367898617967     0.741982839731     1.007825032230
         H           -2.316193443605    -1.766339382033    -0.104328160269     1.007825032230
         H           -2.542453443605    -0.930430382033     1.418740839731     1.007825032230
         H           -4.183186443605     0.640746617967     0.322285839731     1.007825032230
         H           -3.957434443605    -0.199509382033    -1.213812160269     1.007825032230
         H           -4.695317443605    -1.048510382033     0.155967839731     1.007825032230

  Basis Set: AUG-CC-PVTZ
    Blend: AUG-CC-PVTZ
  Basis Set: (AUG-CC-PVTZ AUX)
    Blend: AUG-CC-PVTZ-JKFIT
	 Reference Energy          =    -512.3355483491218365 [Eh]
	 Singles Energy            =      -0.0000000000000000 [Eh]
	 Same-Spin Energy          =      -0.5200476270682317 [Eh]
	 Opposite-Spin Energy      =      -1.6213924829116544 [Eh]
	 Correlation Energy        =      -2.1414401099798859 [Eh]
	 Total Energy              =    -514.4769884591016762 [Eh]

	 ================> DF-SCS-MP2 Energies <==================
	-----------------------------------------------------------
	 SCS Same-Spin Scale       =       0.3333333333333333 [-]
	 SCS Opposite-Spin Scale   =       1.2000000000000000 [-]
	 SCS Same-Spin Energy      =      -0.1733492090227439 [Eh]
	 SCS Opposite-Spin Energy  =      -1.9456709794939853 [Eh]
	 SCS Correlation Energy    =      -2.1190201885167292 [Eh]
	 SCS Total Energy          =    -514.4545685376385791 [Eh]
	-----------------------------------------------------------

  Dipole Moment: [D]
     X:    -8.6103      Y:     0.6494      Z:     1.5793     Total:     8.7780

*** Psi4 exiting successfully. Buy a developer a beer!
