                               Psi4 1.3.2 release

  ==> Input File <==

--------------------------------------------------------------------------
#psi4
#
memory 32 gb

molecule  {
-1 1
  O       -1.6024110     1.2883820    -0.5634480
  O        2.0191420    -1.7287390     0.1939930
  O        3.3803020    -0.0587520    -0.5397320
  N       -0.1011656    -0.2689374     0.2356766
  C        1.0875530     0.4615680    -0.1724770
  C        1.3782960     1.6508690     0.7367710
  C       -2.4731170    -0.8032840     0.3122730
  C       -1.3649450     0.1785500    -0.0525630
  C        2.2562834    -0.5603517    -0.1674032
  C       -3.8468580    -0.3344400    -0.1480570
  H        0.9550610     0.8289670    -1.1997950
  H        0.0672430    -1.2232590     0.4643770
  H        1.5293690     1.3045580     1.7644240
  H        2.2851470     2.1591780     0.4026320
  H        0.5420990     2.3541860     0.7225810
  H       -2.2325720    -1.7800520    -0.1237300
  H       -2.4588320    -0.9441430     1.3993390
  H       -4.0995650     0.6270340     0.3028840
  H       -3.8738130    -0.2132220    -1.2332140
  H       -4.6116960    -1.0622230     0.1365660
units angstrom
no_reorient  #important for SAPT in psi4, default
symmetry c1  #important for SAPT in psi4, default
}

set PROPERTIES_ORIGIN ["COM"]
properties('MP2/aug-cc-pvtz', properties = ['dipole'])
--------------------------------------------------------------------------

    Molecular point group: c1
  Charge       = -1
  Multiplicity = 1
  Basis Set: AUG-CC-PVTZ
    Blend: AUG-CC-PVTZ
  Basis Set: (AUG-CC-PVTZ AUX)
    Blend: AUG-CC-PVTZ-JKFIT

    Orbital Energies [Eh]
    ---------------------

    Doubly Occupied:

       1A    -20.396577     2A    -20.327022     3A    -20.305909
       4A    -15.436592     5A    -11.227599     6A    -11.160126
       7A    -11.136454     8A    -11.125345     9A    -11.113816
      10A    -11.074951    11A     -1.242950    12A     -1.194008
      13A     -1.090346    14A     -1.080690    15A     -0.950294
      16A     -0.876228    17A     -0.785211    18A     -0.719455
      19A     -0.643993    20A     -0.588812    21A     -0.539693
      22A     -0.533512    23A     -0.512855    24A     -0.485780
      25A     -0.465812    26A     -0.438244    27A     -0.425497
      28A     -0.419367    29A     -0.413482    30A     -0.404314
      31A     -0.396876    32A     -0.377312    33A     -0.370829
      34A     -0.342196    35A     -0.301334    36A     -0.257280
      37A     -0.237118    38A     -0.218859    39A     -0.212150

  @DF-RHF Final Energy:  -512.33331250307333

   => Energetics <=

    Nuclear Repulsion Energy =            533.3020366980007338
    One-Electron Energy =               -1771.6129219403499064
    Two-Electron Energy =                 725.9775727392759563
    Total Energy =                       -512.3333125030733299
  Basis Set: (AUG-CC-PVTZ AUX)
    Blend: AUG-CC-PVTZ-RI
    Molecular point group: c1

    Geometry (in Angstrom), charge = -1, multiplicity = 1:

       Center              X                  Y                   Z               Mass
    ------------   -----------------  -----------------  -----------------  -----------------
         O           -1.684126843466     1.306201235709    -0.546213166615    15.994914619570
         O            1.937426156534    -1.710919764291     0.211227833385    15.994914619570
         O            3.298586156534    -0.040932764291    -0.522497166615    15.994914619570
         N           -0.182881443466    -0.251118164291     0.252911433385    14.003074004430
         C            1.005837156534     0.479387235709    -0.155242166615    12.000000000000
         C            1.296580156534     1.668688235709     0.754005833385    12.000000000000
         C           -2.554832843466    -0.785464764291     0.329507833385    12.000000000000
         C           -1.446660843466     0.196369235709    -0.035328166615    12.000000000000
         C            2.174567556534    -0.542532464291    -0.150168366615    12.000000000000
         C           -3.928573843466    -0.316620764291    -0.130822166615    12.000000000000
         H            0.873345156534     0.846786235709    -1.182560166615     1.007825032230
         H           -0.014472843466    -1.205439764291     0.481611833385     1.007825032230
         H            1.447653156534     1.322377235709     1.781658833385     1.007825032230
         H            2.203431156534     2.176997235709     0.419866833385     1.007825032230
         H            0.460383156534     2.372005235709     0.739815833385     1.007825032230
         H           -2.314287843466    -1.762232764291    -0.106495166615     1.007825032230
         H           -2.540547843466    -0.926323764291     1.416573833385     1.007825032230
         H           -4.181280843466     0.644853235709     0.320118833385     1.007825032230
         H           -3.955528843466    -0.195402764291    -1.215979166615     1.007825032230
         H           -4.693411843466    -1.044403764291     0.153800833385     1.007825032230

  Basis Set: AUG-CC-PVTZ
    Blend: AUG-CC-PVTZ
  Basis Set: (AUG-CC-PVTZ AUX)
    Blend: AUG-CC-PVTZ-JKFIT
	 Reference Energy          =    -512.3333125030733299 [Eh]
	 Singles Energy            =      -0.0000000000000000 [Eh]
	 Same-Spin Energy          =      -0.5200778623149553 [Eh]
	 Opposite-Spin Energy      =      -1.6213544467947298 [Eh]
	 Correlation Energy        =      -2.1414323091096854 [Eh]
	 Total Energy              =    -514.4747448121829621 [Eh]

	 ================> DF-SCS-MP2 Energies <==================
	-----------------------------------------------------------
	 SCS Same-Spin Scale       =       0.3333333333333333 [-]
	 SCS Opposite-Spin Scale   =       1.2000000000000000 [-]
	 SCS Same-Spin Energy      =      -0.1733592874383184 [Eh]
	 SCS Opposite-Spin Energy  =      -1.9456253361536757 [Eh]
	 SCS Correlation Energy    =      -2.1189846235919942 [Eh]
	 SCS Total Energy          =    -514.4522971266653713 [Eh]
	-----------------------------------------------------------

  Dipole Moment: [D]
     X:    -8.9984      Y:     0.4920      Z:     1.6698     Total:     9.1653

*** Psi4 exiting successfully. Buy a developer a beer!
