                               Psi4 1.4a3.dev225

  ==> Input File <==

--------------------------------------------------------------------------
#psi4
#
memory 32 gb

molecule  {
-1 1
  O       -1.5868420     1.2523650    -0.8113290
  O        2.0299390    -1.6922460     0.2543140
  O        3.4074630     0.0142020    -0.3584910
  N       -0.1383540    -0.2870410     0.0455440
  C        1.0782140     0.4735880    -0.1782270
  C        1.2275190     1.6106150     0.8299030
  C       -2.4816390    -0.8906360    -0.1487800
  C       -1.4077020     0.1450341    -0.3419295
  C        2.2855270    -0.4976230    -0.0923730
  C       -3.7126180    -0.2515540     0.4884160
  H        1.0494870     0.8996880    -1.1894520
  H        0.0515970    -1.2513350     0.3145600
  H        1.2660770     1.2028380     1.8451460
  H        2.1536960     2.1558630     0.6353850
  H        0.3800930     2.2967220     0.7589720
  H       -2.7387560    -1.2794370    -1.1416750
  H       -2.1327770    -1.7398080     0.4477120
  H       -3.4838230     0.1112750     1.4946450
  H       -4.0489630     0.5957980    -0.1116680
  H       -4.5299760    -0.9736440     0.5641870
units angstrom
no_reorient  #important for SAPT in psi4, default
symmetry c1  #important for SAPT in psi4, default
}

set PROPERTIES_ORIGIN ["COM"]
properties('MP2/aug-cc-pvtz', properties = ['dipole'])
--------------------------------------------------------------------------

    Molecular point group: c1
  Charge       = -1
  Multiplicity = 1
  Basis Set: AUG-CC-PVTZ
    Blend: AUG-CC-PVTZ
  Basis Set: (AUG-CC-PVTZ AUX)
    Blend: AUG-CC-PVTZ-JKFIT

    Orbital Energies [Eh]
    ---------------------

    Doubly Occupied:

       1A    -20.397708     2A    -20.319742     3A    -20.311823
       4A    -15.433012     5A    -11.225446     6A    -11.159507
       7A    -11.135693     8A    -11.129427     9A    -11.110827
      10A    -11.074533    11A     -1.259961    12A     -1.188268
      13A     -1.091271    14A     -1.071609    15A     -0.955167
      16A     -0.872250    17A     -0.785707    18A     -0.718614
      19A     -0.636319    20A     -0.588647    21A     -0.547901
      22A     -0.524800    23A     -0.512189    24A     -0.491092
      25A     -0.459930    26A     -0.446103    27A     -0.434384
      28A     -0.419799    29A     -0.414344    30A     -0.403349
      31A     -0.395922    32A     -0.378003    33A     -0.367321
      34A     -0.341016    35A     -0.302813    36A     -0.252574
      37A     -0.234597    38A     -0.220129    39A     -0.212627

  @DF-RHF Final Energy:  -512.33366321846165

   => Energetics <=

    Nuclear Repulsion Energy =            534.1123374569017415
    One-Electron Energy =               -1773.2431544366768321
    Two-Electron Energy =                 726.7971537613134387
    Total Energy =                       -512.3336632184616519
  Basis Set: (AUG-CC-PVTZ AUX)
    Blend: AUG-CC-PVTZ-RI
    Molecular point group: c1

    Geometry (in Angstrom), charge = -1, multiplicity = 1:

       Center              X                  Y                   Z               Mass
    ------------   -----------------  -----------------  -----------------  -----------------
         O           -1.665945309806     1.264313100238    -0.785816755153    15.994914619570
         O            1.950835690194    -1.680297899762     0.279826244847    15.994914619570
         O            3.328359690194     0.026150100238    -0.332978755153    15.994914619570
         N           -0.217457309806    -0.275092899762     0.071056244847    14.003074004430
         C            0.999110690194     0.485536100238    -0.152714755153    12.000000000000
         C            1.148415690194     1.622563100238     0.855415244847    12.000000000000
         C           -2.560742309806    -0.878687899762    -0.123267755153    12.000000000000
         C           -1.486805309806     0.156982200238    -0.316417255153    12.000000000000
         C            2.206423690194    -0.485674899762    -0.066860755153    12.000000000000
         C           -3.791721309806    -0.239605899762     0.513928244847    12.000000000000
         H            0.970383690194     0.911636100238    -1.163939755153     1.007825032230
         H           -0.027506309806    -1.239386899762     0.340072244847     1.007825032230
         H            1.186973690194     1.214786100238     1.870658244847     1.007825032230
         H            2.074592690194     2.167811100238     0.660897244847     1.007825032230
         H            0.300989690194     2.308670100238     0.784484244847     1.007825032230
         H           -2.817859309806    -1.267488899762    -1.116162755153     1.007825032230
         H           -2.211880309806    -1.727859899762     0.473224244847     1.007825032230
         H           -3.562926309806     0.123223100238     1.520157244847     1.007825032230
         H           -4.128066309806     0.607746100238    -0.086155755153     1.007825032230
         H           -4.609079309806    -0.961695899762     0.589699244847     1.007825032230

  Basis Set: AUG-CC-PVTZ
    Blend: AUG-CC-PVTZ
  Basis Set: (AUG-CC-PVTZ AUX)
    Blend: AUG-CC-PVTZ-JKFIT
	 Reference Energy          =    -512.3336632184616519 [Eh]
	 Singles Energy            =      -0.0000000000000000 [Eh]
	 Same-Spin Energy          =      -0.5202446789876907 [Eh]
	 Opposite-Spin Energy      =      -1.6213593222632747 [Eh]
	 Correlation Energy        =      -2.1416040012509656 [Eh]
	 Total Energy              =    -514.4752672197125776 [Eh]

	 ================> DF-SCS-MP2 Energies <==================
	-----------------------------------------------------------
	 SCS Same-Spin Scale       =       0.3333333333333333 [-]
	 SCS Opposite-Spin Scale   =       1.2000000000000000 [-]
	 SCS Same-Spin Energy      =      -0.1734148929958969 [Eh]
	 SCS Opposite-Spin Energy  =      -1.9456311867159295 [Eh]
	 SCS Correlation Energy    =      -2.1190460797118265 [Eh]
	 SCS Total Energy          =    -514.4527092981734313 [Eh]
	-----------------------------------------------------------

  Dipole Moment: [D]
     X:    -9.0890      Y:     0.5329      Z:     1.0812     Total:     9.1686

*** Psi4 exiting successfully. Buy a developer a beer!
