                               Psi4 1.3.2 release

  ==> Input File <==

--------------------------------------------------------------------------
#psi4
#
memory 32 gb

molecule  {
-1 1
  O       -1.6024110     1.2883820    -0.5634480
  O        2.0191420    -1.7287390     0.1939930
  O        3.3706212    -0.0391926    -0.5426101
  N       -0.1147610    -0.2476350     0.2334190
  C        1.1043048     0.4810425    -0.1810975
  C        1.3782960     1.6508690     0.7367710
  C       -2.4731170    -0.8032840     0.3122730
  C       -1.3649450     0.1785500    -0.0525630
  C        2.2731730    -0.5407160    -0.1753640
  C       -3.8468580    -0.3344400    -0.1480570
  H        0.9550610     0.8289670    -1.1997950
  H        0.0672430    -1.2232590     0.4643770
  H        1.5293690     1.3045580     1.7644240
  H        2.2851470     2.1591780     0.4026320
  H        0.5420990     2.3541860     0.7225810
  H       -2.2325720    -1.7800520    -0.1237300
  H       -2.4588320    -0.9441430     1.3993390
  H       -4.0995650     0.6270340     0.3028840
  H       -3.8738130    -0.2132220    -1.2332140
  H       -4.6116960    -1.0622230     0.1365660
units angstrom
no_reorient  #important for SAPT in psi4, default
symmetry c1  #important for SAPT in psi4, default
}

set PROPERTIES_ORIGIN ["COM"]
properties('MP2/aug-cc-pvtz', properties = ['dipole'])
--------------------------------------------------------------------------

    Molecular point group: c1
  Charge       = -1
  Multiplicity = 1
  Basis Set: AUG-CC-PVTZ
    Blend: AUG-CC-PVTZ
  Basis Set: (AUG-CC-PVTZ AUX)
    Blend: AUG-CC-PVTZ-JKFIT

    Orbital Energies [Eh]
    ---------------------

    Doubly Occupied:

       1A    -20.389947     2A    -20.324297     3A    -20.314397
       4A    -15.435843     5A    -11.221614     6A    -11.162789
       7A    -11.134158     8A    -11.123476     9A    -11.114436
      10A    -11.075275    11A     -1.239515    12A     -1.190989
      13A     -1.095581    14A     -1.078469    15A     -0.947938
      16A     -0.880522    17A     -0.782288    18A     -0.719916
      19A     -0.637606    20A     -0.586037    21A     -0.539504
      22A     -0.532199    23A     -0.511448    24A     -0.481779
      25A     -0.465752    26A     -0.438336    27A     -0.425495
      28A     -0.419207    29A     -0.412864    30A     -0.406471
      31A     -0.395241    32A     -0.373944    33A     -0.369157
      34A     -0.343827    35A     -0.297812    36A     -0.257620
      37A     -0.238901    38A     -0.222597    39A     -0.216636

  @DF-RHF Final Energy:  -512.33532755292492

   => Energetics <=

    Nuclear Repulsion Energy =            533.2915216357702093
    One-Electron Energy =               -1771.6459359075458906
    Two-Electron Energy =                 726.0190867188506445
    Total Energy =                       -512.3353275529249231
  Basis Set: (AUG-CC-PVTZ AUX)
    Blend: AUG-CC-PVTZ-RI
    Molecular point group: c1

    Geometry (in Angstrom), charge = -1, multiplicity = 1:

       Center              X                  Y                   Z               Mass
    ------------   -----------------  -----------------  -----------------  -----------------
         O           -1.684532739448     1.298701396016    -0.544293048248    15.994914619570
         O            1.937020260552    -1.718419603984     0.213147951752    15.994914619570
         O            3.288499460552    -0.028873203984    -0.523455148248    15.994914619570
         N           -0.196882739448    -0.237315603984     0.252573951752    14.003074004430
         C            1.022183060552     0.491361896016    -0.161942548248    12.000000000000
         C            1.296174260552     1.661188396016     0.755925951752    12.000000000000
         C           -2.555238739448    -0.792964603984     0.331427951752    12.000000000000
         C           -1.447066739448     0.188869396016    -0.033408048248    12.000000000000
         C            2.191051260552    -0.530396603984    -0.156209048248    12.000000000000
         C           -3.928979739448    -0.324120603984    -0.128902048248    12.000000000000
         H            0.872939260552     0.839286396016    -1.180640048248     1.007825032230
         H           -0.014878739448    -1.212939603984     0.483531951752     1.007825032230
         H            1.447247260552     1.314877396016     1.783578951752     1.007825032230
         H            2.203025260552     2.169497396016     0.421786951752     1.007825032230
         H            0.459977260552     2.364505396016     0.741735951752     1.007825032230
         H           -2.314693739448    -1.769732603984    -0.104575048248     1.007825032230
         H           -2.540953739448    -0.933823603984     1.418493951752     1.007825032230
         H           -4.181686739448     0.637353396016     0.322038951752     1.007825032230
         H           -3.955934739448    -0.202902603984    -1.214059048248     1.007825032230
         H           -4.693817739448    -1.051903603984     0.155720951752     1.007825032230

  Basis Set: AUG-CC-PVTZ
    Blend: AUG-CC-PVTZ
  Basis Set: (AUG-CC-PVTZ AUX)
    Blend: AUG-CC-PVTZ-JKFIT
	 Reference Energy          =    -512.3353275529249231 [Eh]
	 Singles Energy            =      -0.0000000000000000 [Eh]
	 Same-Spin Energy          =      -0.5201329390096580 [Eh]
	 Opposite-Spin Energy      =      -1.6214689697921785 [Eh]
	 Correlation Energy        =      -2.1416019088018365 [Eh]
	 Total Energy              =    -514.4769294617267406 [Eh]

	 ================> DF-SCS-MP2 Energies <==================
	-----------------------------------------------------------
	 SCS Same-Spin Scale       =       0.3333333333333333 [-]
	 SCS Opposite-Spin Scale   =       1.2000000000000000 [-]
	 SCS Same-Spin Energy      =      -0.1733776463365526 [Eh]
	 SCS Opposite-Spin Energy  =      -1.9457627637506141 [Eh]
	 SCS Correlation Energy    =      -2.1191404100871667 [Eh]
	 SCS Total Energy          =    -514.4544679630121209 [Eh]
	-----------------------------------------------------------

  Dipole Moment: [D]
     X:    -8.5500      Y:     0.6124      Z:     1.5963     Total:     8.7193

*** Psi4 exiting successfully. Buy a developer a beer!
