                               Psi4 1.3.2 release

  ==> Input File <==

--------------------------------------------------------------------------
#psi4
#
memory 32 gb

molecule  {
-1 1
  O       -1.6024110     1.2883820    -0.5634480
  O        2.0191420    -1.7287390     0.1939930
  O        3.3803020    -0.0587520    -0.5397320
  N       -0.1147610    -0.2476350     0.2334190
  C        1.0229806     0.4461296    -0.1281302
  C        1.3782960     1.6508690     0.7367710
  C       -2.4731170    -0.8032840     0.3122730
  C       -1.3649450     0.1785500    -0.0525630
  C        2.2731730    -0.5407160    -0.1753640
  C       -3.8468580    -0.3344400    -0.1480570
  H        0.9550610     0.8289670    -1.1997950
  H        0.0672430    -1.2232590     0.4643770
  H        1.5293690     1.3045580     1.7644240
  H        2.2783883     2.1962702     0.4456063
  H        0.5420990     2.3541860     0.7225810
  H       -2.2325720    -1.7800520    -0.1237300
  H       -2.4588320    -0.9441430     1.3993390
  H       -4.0995650     0.6270340     0.3028840
  H       -3.8738130    -0.2132220    -1.2332140
  H       -4.6116960    -1.0622230     0.1365660
units angstrom
no_reorient  #important for SAPT in psi4, default
symmetry c1  #important for SAPT in psi4, default
}

set PROPERTIES_ORIGIN ["COM"]
properties('MP2/aug-cc-pvtz', properties = ['dipole'])
--------------------------------------------------------------------------

    Molecular point group: c1
  Charge       = -1
  Multiplicity = 1
  Basis Set: AUG-CC-PVTZ
    Blend: AUG-CC-PVTZ
  Basis Set: (AUG-CC-PVTZ AUX)
    Blend: AUG-CC-PVTZ-JKFIT

    Orbital Energies [Eh]
    ---------------------

    Doubly Occupied:

       1A    -20.395500     2A    -20.321157     3A    -20.314116
       4A    -15.441441     5A    -11.226921     6A    -11.162721
       7A    -11.137618     8A    -11.125928     9A    -11.112733
      10A    -11.073508    11A     -1.246542    12A     -1.188982
      13A     -1.109060    14A     -1.084756    15A     -0.952331
      16A     -0.874811    17A     -0.788711    18A     -0.719507
      19A     -0.642529    20A     -0.593309    21A     -0.548946
      22A     -0.534256    23A     -0.508456    24A     -0.486435
      25A     -0.468841    26A     -0.437469    27A     -0.426774
      28A     -0.419991    29A     -0.414894    30A     -0.403477
      31A     -0.392757    32A     -0.383041    33A     -0.367222
      34A     -0.337177    35A     -0.302903    36A     -0.254722
      37A     -0.234788    38A     -0.218003    39A     -0.213887

  @DF-RHF Final Energy:  -512.32754425700966

   => Energetics <=

    Nuclear Repulsion Energy =            534.0139732162199380
    One-Electron Energy =               -1772.9506002343428008
    Two-Electron Energy =                 726.6090827611131999
    Total Energy =                       -512.3275442570096629
  Basis Set: (AUG-CC-PVTZ AUX)
    Blend: AUG-CC-PVTZ-RI
    Molecular point group: c1

    Geometry (in Angstrom), charge = -1, multiplicity = 1:

       Center              X                  Y                   Z               Mass
    ------------   -----------------  -----------------  -----------------  -----------------
         O           -1.678786359137     1.303521568414    -0.549325136291    15.994914619570
         O            1.942766640863    -1.713599431586     0.208115863709    15.994914619570
         O            3.303926640863    -0.043612431586    -0.525609136291    15.994914619570
         N           -0.191136359137    -0.232495431586     0.247541863709    14.003074004430
         C            0.946605240863     0.461269168414    -0.114007336291    12.000000000000
         C            1.301920640863     1.666008568414     0.750893863709    12.000000000000
         C           -2.549492359137    -0.788144431586     0.326395863709    12.000000000000
         C           -1.441320359137     0.193689568414    -0.038440136291    12.000000000000
         C            2.196797640863    -0.525576431586    -0.161241136291    12.000000000000
         C           -3.923233359137    -0.319300431586    -0.133934136291    12.000000000000
         H            0.878685640863     0.844106568414    -1.185672136291     1.007825032230
         H           -0.009132359137    -1.208119431586     0.478499863709     1.007825032230
         H            1.452993640863     1.319697568414     1.778546863709     1.007825032230
         H            2.202012940863     2.211409768414     0.459729163709     1.007825032230
         H            0.465723640863     2.369325568414     0.736703863709     1.007825032230
         H           -2.308947359137    -1.764912431586    -0.109607136291     1.007825032230
         H           -2.535207359137    -0.929003431586     1.413461863709     1.007825032230
         H           -4.175940359137     0.642173568414     0.317006863709     1.007825032230
         H           -3.950188359137    -0.198082431586    -1.219091136291     1.007825032230
         H           -4.688071359137    -1.047083431586     0.150688863709     1.007825032230

  Basis Set: AUG-CC-PVTZ
    Blend: AUG-CC-PVTZ
  Basis Set: (AUG-CC-PVTZ AUX)
    Blend: AUG-CC-PVTZ-JKFIT
	 Reference Energy          =    -512.3275442570096629 [Eh]
	 Singles Energy            =      -0.0000000000000000 [Eh]
	 Same-Spin Energy          =      -0.5209790351326984 [Eh]
	 Opposite-Spin Energy      =      -1.6219708414484693 [Eh]
	 Correlation Energy        =      -2.1429498765811674 [Eh]
	 Total Energy              =    -514.4704941335908188 [Eh]

	 ================> DF-SCS-MP2 Energies <==================
	-----------------------------------------------------------
	 SCS Same-Spin Scale       =       0.3333333333333333 [-]
	 SCS Opposite-Spin Scale   =       1.2000000000000000 [-]
	 SCS Same-Spin Energy      =      -0.1736596783775661 [Eh]
	 SCS Opposite-Spin Energy  =      -1.9463650097381631 [Eh]
	 SCS Correlation Energy    =      -2.1200246881157292 [Eh]
	 SCS Total Energy          =    -514.4475689451253402 [Eh]
	-----------------------------------------------------------

  Dipole Moment: [D]
     X:    -8.8676      Y:     0.5443      Z:     1.6668     Total:     9.0393

*** Psi4 exiting successfully. Buy a developer a beer!
