                               Psi4 1.3.2 release

  ==> Input File <==

--------------------------------------------------------------------------
#psi4
#
memory 32 gb

molecule  {
-1 1
  O       -1.6024110     1.2883820    -0.5634480
  O        2.0191420    -1.7287390     0.1939930
  O        3.3803020    -0.0587520    -0.5397320
  N       -0.1095007    -0.2499689     0.2447246
  C        1.0875530     0.4615680    -0.1724770
  C        1.3782960     1.6508690     0.7367710
  C       -2.4731170    -0.8032840     0.3122730
  C       -1.3649450     0.1785500    -0.0525630
  C        2.2731730    -0.5407160    -0.1753640
  C       -3.8468580    -0.3344400    -0.1480570
  H        0.9638482     0.8328000    -1.1995127
  H        0.0672430    -1.2232590     0.4643770
  H        1.5293690     1.3045580     1.7644240
  H        2.2851470     2.1591780     0.4026320
  H        0.5420990     2.3541860     0.7225810
  H       -2.2325720    -1.7800520    -0.1237300
  H       -2.4588320    -0.9441430     1.3993390
  H       -4.0995650     0.6270340     0.3028840
  H       -3.8738130    -0.2132220    -1.2332140
  H       -4.6116960    -1.0622230     0.1365660
units angstrom
no_reorient  #important for SAPT in psi4, default
symmetry c1  #important for SAPT in psi4, default
}

set PROPERTIES_ORIGIN ["COM"]
properties('MP2/aug-cc-pvtz', properties = ['dipole'])
--------------------------------------------------------------------------

    Molecular point group: c1
  Charge       = -1
  Multiplicity = 1
  Basis Set: AUG-CC-PVTZ
    Blend: AUG-CC-PVTZ
  Basis Set: (AUG-CC-PVTZ AUX)
    Blend: AUG-CC-PVTZ-JKFIT

    Orbital Energies [Eh]
    ---------------------

    Doubly Occupied:

       1A    -20.393666     2A    -20.321713     3A    -20.313244
       4A    -15.437463     5A    -11.225096     6A    -11.161309
       7A    -11.135760     8A    -11.124688     9A    -11.114220
      10A    -11.075062    11A     -1.242026    12A     -1.190136
      13A     -1.096045    14A     -1.080314    15A     -0.949615
      16A     -0.877665    17A     -0.784124    18A     -0.719980
      19A     -0.639969    20A     -0.588330    21A     -0.541444
      22A     -0.533130    23A     -0.512143    24A     -0.483797
      25A     -0.464860    26A     -0.437969    27A     -0.426066
      28A     -0.419388    29A     -0.413782    30A     -0.403494
      31A     -0.396450    32A     -0.375975    33A     -0.370110
      34A     -0.341153    35A     -0.300444    36A     -0.257333
      37A     -0.236385    38A     -0.222414    39A     -0.215136

  @DF-RHF Final Energy:  -512.33567415187656

   => Energetics <=

    Nuclear Repulsion Energy =            533.3075774800959152
    One-Electron Energy =               -1771.6427085604689182
    Two-Electron Energy =                 725.9994569284964427
    Total Energy =                       -512.3356741518765602
  Basis Set: (AUG-CC-PVTZ AUX)
    Blend: AUG-CC-PVTZ-RI
    Molecular point group: c1

    Geometry (in Angstrom), charge = -1, multiplicity = 1:

       Center              X                  Y                   Z               Mass
    ------------   -----------------  -----------------  -----------------  -----------------
         O           -1.684784973025     1.302695145004    -0.546431502015    15.994914619570
         O            1.936768026975    -1.714425854996     0.211009497985    15.994914619570
         O            3.297928026975    -0.044438854996    -0.522715502015    15.994914619570
         N           -0.191874673025    -0.235655754996     0.261741097985    14.003074004430
         C            1.005179026975     0.475881145004    -0.155460502015    12.000000000000
         C            1.295922026975     1.665182145004     0.753787497985    12.000000000000
         C           -2.555490973025    -0.788970854996     0.329289497985    12.000000000000
         C           -1.447318973025     0.192863145004    -0.035546502015    12.000000000000
         C            2.190799026975    -0.526402854996    -0.158347502015    12.000000000000
         C           -3.929231973025    -0.320126854996    -0.131040502015    12.000000000000
         H            0.881474226975     0.847113145004    -1.182496202015     1.007825032230
         H           -0.015130973025    -1.208945854996     0.481393497985     1.007825032230
         H            1.446995026975     1.318871145004     1.781440497985     1.007825032230
         H            2.202773026975     2.173491145004     0.419648497985     1.007825032230
         H            0.459725026975     2.368499145004     0.739597497985     1.007825032230
         H           -2.314945973025    -1.765738854996    -0.106713502015     1.007825032230
         H           -2.541205973025    -0.929829854996     1.416355497985     1.007825032230
         H           -4.181938973025     0.641347145004     0.319900497985     1.007825032230
         H           -3.956186973025    -0.198908854996    -1.216197502015     1.007825032230
         H           -4.694069973025    -1.047909854996     0.153582497985     1.007825032230

  Basis Set: AUG-CC-PVTZ
    Blend: AUG-CC-PVTZ
  Basis Set: (AUG-CC-PVTZ AUX)
    Blend: AUG-CC-PVTZ-JKFIT
	 Reference Energy          =    -512.3356741518765602 [Eh]
	 Singles Energy            =      -0.0000000000000000 [Eh]
	 Same-Spin Energy          =      -0.5201373031081067 [Eh]
	 Opposite-Spin Energy      =      -1.6213696260751873 [Eh]
	 Correlation Energy        =      -2.1415069291832940 [Eh]
	 Total Energy              =    -514.4771810810598254 [Eh]

	 ================> DF-SCS-MP2 Energies <==================
	-----------------------------------------------------------
	 SCS Same-Spin Scale       =       0.3333333333333333 [-]
	 SCS Opposite-Spin Scale   =       1.2000000000000000 [-]
	 SCS Same-Spin Energy      =      -0.1733791010360355 [Eh]
	 SCS Opposite-Spin Energy  =      -1.9456435512902246 [Eh]
	 SCS Correlation Energy    =      -2.1190226523262603 [Eh]
	 SCS Total Energy          =    -514.4546968042028539 [Eh]
	-----------------------------------------------------------

  Dipole Moment: [D]
     X:    -8.7437      Y:     0.6404      Z:     1.5768     Total:     8.9077

*** Psi4 exiting successfully. Buy a developer a beer!
