                               Psi4 1.3.2 release

  ==> Input File <==

--------------------------------------------------------------------------
#psi4
#
memory 32 gb

molecule  {
-1 1
  O       -1.5702634     1.3481195    -0.5956696
  O        2.0191420    -1.7287390     0.1939930
  O        3.3698738    -0.0407631    -0.5469585
  N       -0.1147610    -0.2476350     0.2334190
  C        1.0875530     0.4615680    -0.1724770
  C        1.3782960     1.6508690     0.7367710
  C       -2.4731170    -0.8032840     0.3122730
  C       -1.3649450     0.1785500    -0.0525630
  C        2.2731730    -0.5407160    -0.1753640
  C       -3.8468580    -0.3344400    -0.1480570
  H        0.9550610     0.8289670    -1.1997950
  H        0.0672430    -1.2232590     0.4643770
  H        1.5293690     1.3045580     1.7644240
  H        2.2851470     2.1591780     0.4026320
  H        0.5420990     2.3541860     0.7225810
  H       -2.2325720    -1.7800520    -0.1237300
  H       -2.4588320    -0.9441430     1.3993390
  H       -4.0995650     0.6270340     0.3028840
  H       -3.8738130    -0.2132220    -1.2332140
  H       -4.6116960    -1.0622230     0.1365660
units angstrom
no_reorient  #important for SAPT in psi4, default
symmetry c1  #important for SAPT in psi4, default
}

set PROPERTIES_ORIGIN ["COM"]
properties('MP2/aug-cc-pvtz', properties = ['dipole'])
--------------------------------------------------------------------------

    Molecular point group: c1
  Charge       = -1
  Multiplicity = 1
  Basis Set: AUG-CC-PVTZ
    Blend: AUG-CC-PVTZ
  Basis Set: (AUG-CC-PVTZ AUX)
    Blend: AUG-CC-PVTZ-JKFIT

    Orbital Energies [Eh]
    ---------------------

    Doubly Occupied:

       1A    -20.389089     2A    -20.324849     3A    -20.315184
       4A    -15.445380     5A    -11.232878     6A    -11.163416
       7A    -11.141729     8A    -11.126286     9A    -11.114551
      10A    -11.074756    11A     -1.210133    12A     -1.190139
      13A     -1.097076    14A     -1.081372    15A     -0.953036
      16A     -0.879074    17A     -0.786730    18A     -0.721864
      19A     -0.642916    20A     -0.588249    21A     -0.540502
      22A     -0.533855    23A     -0.510194    24A     -0.473877
      25A     -0.464652    26A     -0.435964    27A     -0.427354
      28A     -0.418159    29A     -0.412570    30A     -0.404018
      31A     -0.396292    32A     -0.372296    33A     -0.367819
      34A     -0.336922    35A     -0.297640    36A     -0.256813
      37A     -0.239465    38A     -0.223466    39A     -0.217421

  @DF-RHF Final Energy:  -512.32476930013456

   => Energetics <=

    Nuclear Repulsion Energy =            531.8591228582220083
    One-Electron Energy =               -1768.7518135126110792
    Two-Electron Energy =                 724.5679213542545085
    Total Energy =                       -512.3247693001345624
  Basis Set: (AUG-CC-PVTZ AUX)
    Blend: AUG-CC-PVTZ-RI
    Molecular point group: c1

    Geometry (in Angstrom), charge = -1, multiplicity = 1:

       Center              X                  Y                   Z               Mass
    ------------   -----------------  -----------------  -----------------  -----------------
         O           -1.654475999022     1.353603043914    -0.573172514783    15.994914619570
         O            1.934929400978    -1.723255456086     0.216490085217    15.994914619570
         O            3.285661200978    -0.035279556086    -0.524461414783    15.994914619570
         N           -0.198973599022    -0.242151456086     0.255916085217    14.003074004430
         C            1.003340400978     0.467051543914    -0.149979914783    12.000000000000
         C            1.294083400978     1.656352543914     0.759268085217    12.000000000000
         C           -2.557329599022    -0.797800456086     0.334770085217    12.000000000000
         C           -1.449157599022     0.184033543914    -0.030065914783    12.000000000000
         C            2.188960400978    -0.535232456086    -0.152866914783    12.000000000000
         C           -3.931070599022    -0.328956456086    -0.125559914783    12.000000000000
         H            0.870848400978     0.834450543914    -1.177297914783     1.007825032230
         H           -0.016969599022    -1.217775456086     0.486874085217     1.007825032230
         H            1.445156400978     1.310041543914     1.786921085217     1.007825032230
         H            2.200934400978     2.164661543914     0.425129085217     1.007825032230
         H            0.457886400978     2.359669543914     0.745078085217     1.007825032230
         H           -2.316784599022    -1.774568456086    -0.101232914783     1.007825032230
         H           -2.543044599022    -0.938659456086     1.421836085217     1.007825032230
         H           -4.183777599022     0.632517543914     0.325381085217     1.007825032230
         H           -3.958025599022    -0.207738456086    -1.210716914783     1.007825032230
         H           -4.695908599022    -1.056739456086     0.159063085217     1.007825032230

  Basis Set: AUG-CC-PVTZ
    Blend: AUG-CC-PVTZ
  Basis Set: (AUG-CC-PVTZ AUX)
    Blend: AUG-CC-PVTZ-JKFIT
	 Reference Energy          =    -512.3247693001345624 [Eh]
	 Singles Energy            =      -0.0000000000000000 [Eh]
	 Same-Spin Energy          =      -0.5215953783100287 [Eh]
	 Opposite-Spin Energy      =      -1.6249419324416765 [Eh]
	 Correlation Energy        =      -2.1465373107517052 [Eh]
	 Total Energy              =    -514.4713066108862449 [Eh]

	 ================> DF-SCS-MP2 Energies <==================
	-----------------------------------------------------------
	 SCS Same-Spin Scale       =       0.3333333333333333 [-]
	 SCS Opposite-Spin Scale   =       1.2000000000000000 [-]
	 SCS Same-Spin Energy      =      -0.1738651261033429 [Eh]
	 SCS Opposite-Spin Energy  =      -1.9499303189300117 [Eh]
	 SCS Correlation Energy    =      -2.1237954450333545 [Eh]
	 SCS Total Energy          =    -514.4485647451679142 [Eh]
	-----------------------------------------------------------

  Dipole Moment: [D]
     X:    -8.5736      Y:     0.3040      Z:     1.7499     Total:     8.7557

*** Psi4 exiting successfully. Buy a developer a beer!
