                               Psi4 1.3.2 release

  ==> Input File <==

--------------------------------------------------------------------------
#psi4
#
memory 32 gb

molecule  {
-1 1
  O       -1.6024110     1.2883820    -0.5634480
  O        2.0191420    -1.7287390     0.1939930
  O        3.3803020    -0.0587520    -0.5397320
  N       -0.1147610    -0.2476350     0.2334190
  C        1.0875530     0.4615680    -0.1724770
  C        1.3401664     1.4948976     0.6175273
  C       -2.4731170    -0.8032840     0.3122730
  C       -1.3649450     0.1785500    -0.0525630
  C        2.2731730    -0.5407160    -0.1753640
  C       -3.8468580    -0.3344400    -0.1480570
  H        0.9550610     0.8289670    -1.1997950
  H        0.0672430    -1.2232590     0.4643770
  H        1.5293690     1.3045580     1.7644240
  H        2.2851470     2.1591780     0.4026320
  H        0.5420990     2.3541860     0.7225810
  H       -2.2325720    -1.7800520    -0.1237300
  H       -2.4588320    -0.9441430     1.3993390
  H       -4.0995650     0.6270340     0.3028840
  H       -3.8738130    -0.2132220    -1.2332140
  H       -4.6116960    -1.0622230     0.1365660
units angstrom
no_reorient  #important for SAPT in psi4, default
symmetry c1  #important for SAPT in psi4, default
}

set PROPERTIES_ORIGIN ["COM"]
properties('MP2/aug-cc-pvtz', properties = ['dipole'])
--------------------------------------------------------------------------

    Molecular point group: c1
  Charge       = -1
  Multiplicity = 1
  Basis Set: AUG-CC-PVTZ
    Blend: AUG-CC-PVTZ
  Basis Set: (AUG-CC-PVTZ AUX)
    Blend: AUG-CC-PVTZ-JKFIT

    Orbital Energies [Eh]
    ---------------------

    Doubly Occupied:

       1A    -20.391686     2A    -20.324203     3A    -20.315355
       4A    -15.437918     5A    -11.224066     6A    -11.164287
       7A    -11.135509     8A    -11.124390     9A    -11.104543
      10A    -11.087439    11A     -1.242128    12A     -1.193345
      13A     -1.100089    14A     -1.085954    15A     -0.954762
      16A     -0.911785    17A     -0.782680    18A     -0.707479
      19A     -0.639475    20A     -0.593703    21A     -0.546906
      22A     -0.535105    23A     -0.518753    24A     -0.492598
      25A     -0.482595    26A     -0.443696    27A     -0.427498
      28A     -0.424936    29A     -0.413755    30A     -0.407816
      31A     -0.386965    32A     -0.363379    33A     -0.349027
      34A     -0.324797    35A     -0.296202    36A     -0.263793
      37A     -0.236135    38A     -0.222153    39A     -0.216835

  @DF-RHF Final Energy:  -512.28556607148903

   => Energetics <=

    Nuclear Repulsion Energy =            537.4469243626040225
    One-Electron Energy =               -1779.7174994798551779
    Two-Electron Energy =                 729.9850090457621263
    Total Energy =                       -512.2855660714890291
  Basis Set: (AUG-CC-PVTZ AUX)
    Blend: AUG-CC-PVTZ-RI
    Molecular point group: c1

    Geometry (in Angstrom), charge = -1, multiplicity = 1:

       Center              X                  Y                   Z               Mass
    ------------   -----------------  -----------------  -----------------  -----------------
         O           -1.681036196251     1.315486762365    -0.535398216506    15.994914619570
         O            1.940516803749    -1.701634237635     0.222042783494    15.994914619570
         O            3.301676803749    -0.031647237635    -0.511682216506    15.994914619570
         N           -0.193386196251    -0.220530237635     0.261468783494    14.003074004430
         C            1.008927803749     0.488672762365    -0.144427216506    12.000000000000
         C            1.261541203749     1.522002362365     0.645577083494    12.000000000000
         C           -2.551742196251    -0.776179237635     0.340322783494    12.000000000000
         C           -1.443570196251     0.205654762365    -0.024513216506    12.000000000000
         C            2.194547803749    -0.513611237635    -0.147314216506    12.000000000000
         C           -3.925483196251    -0.307335237635    -0.120007216506    12.000000000000
         H            0.876435803749     0.856071762365    -1.171745216506     1.007825032230
         H           -0.011382196251    -1.196154237635     0.492426783494     1.007825032230
         H            1.450743803749     1.331662762365     1.792473783494     1.007825032230
         H            2.206521803749     2.186282762365     0.430681783494     1.007825032230
         H            0.463473803749     2.381290762365     0.750630783494     1.007825032230
         H           -2.311197196251    -1.752947237635    -0.095680216506     1.007825032230
         H           -2.537457196251    -0.917038237635     1.427388783494     1.007825032230
         H           -4.178190196251     0.654138762365     0.330933783494     1.007825032230
         H           -3.952438196251    -0.186117237635    -1.205164216506     1.007825032230
         H           -4.690321196251    -1.035118237635     0.164615783494     1.007825032230

  Basis Set: AUG-CC-PVTZ
    Blend: AUG-CC-PVTZ
  Basis Set: (AUG-CC-PVTZ AUX)
    Blend: AUG-CC-PVTZ-JKFIT
	 Reference Energy          =    -512.2855660714890291 [Eh]
	 Singles Energy            =      -0.0000000000000000 [Eh]
	 Same-Spin Energy          =      -0.5232652589947798 [Eh]
	 Opposite-Spin Energy      =      -1.6256784219070737 [Eh]
	 Correlation Energy        =      -2.1489436809018536 [Eh]
	 Total Energy              =    -514.4345097523909089 [Eh]

	 ================> DF-SCS-MP2 Energies <==================
	-----------------------------------------------------------
	 SCS Same-Spin Scale       =       0.3333333333333333 [-]
	 SCS Opposite-Spin Scale   =       1.2000000000000000 [-]
	 SCS Same-Spin Energy      =      -0.1744217529982599 [Eh]
	 SCS Opposite-Spin Energy  =      -1.9508141062884883 [Eh]
	 SCS Correlation Energy    =      -2.1252358592867484 [Eh]
	 SCS Total Energy          =    -514.4108019307757331 [Eh]
	-----------------------------------------------------------

  Dipole Moment: [D]
     X:    -8.6252      Y:     0.5200      Z:     1.4875     Total:     8.7680

*** Psi4 exiting successfully. Buy a developer a beer!
