                               Psi4 1.3.2 release

  ==> Input File <==

--------------------------------------------------------------------------
#psi4
#
memory 32 gb

molecule  {
-1 1
  O       -1.6024110     1.2883820    -0.5634480
  O        2.0191420    -1.7287390     0.1939930
  O        3.3803020    -0.0587520    -0.5397320
  N       -0.1147610    -0.2476350     0.2334190
  C        1.0875530     0.4615680    -0.1724770
  C        1.3728755     1.6983897     0.6728415
  C       -2.4731170    -0.8032840     0.3122730
  C       -1.3649450     0.1785500    -0.0525630
  C        2.2731730    -0.5407160    -0.1753640
  C       -3.8468580    -0.3344400    -0.1480570
  H        0.9644769     0.8822888    -1.1803285
  H        0.0672430    -1.2232590     0.4643770
  H        1.5293690     1.3045580     1.7644240
  H        2.2851470     2.1591780     0.4026320
  H        0.5420990     2.3541860     0.7225810
  H       -2.2325720    -1.7800520    -0.1237300
  H       -2.4588320    -0.9441430     1.3993390
  H       -4.0995650     0.6270340     0.3028840
  H       -3.8738130    -0.2132220    -1.2332140
  H       -4.6116960    -1.0622230     0.1365660
units angstrom
no_reorient  #important for SAPT in psi4, default
symmetry c1  #important for SAPT in psi4, default
}

set PROPERTIES_ORIGIN ["COM"]
properties('MP2/aug-cc-pvtz', properties = ['dipole'])
--------------------------------------------------------------------------

    Molecular point group: c1
  Charge       = -1
  Multiplicity = 1
  Basis Set: AUG-CC-PVTZ
    Blend: AUG-CC-PVTZ
  Basis Set: (AUG-CC-PVTZ AUX)
    Blend: AUG-CC-PVTZ-JKFIT

    Orbital Energies [Eh]
    ---------------------

    Doubly Occupied:

       1A    -20.392667     2A    -20.322941     3A    -20.314151
       4A    -15.439704     5A    -11.224442     6A    -11.163157
       7A    -11.135905     8A    -11.124736     9A    -11.115216
      10A    -11.076780    11A     -1.242454    12A     -1.190974
      13A     -1.097134    14A     -1.081747    15A     -0.949781
      16A     -0.879865    17A     -0.784874    18A     -0.720965
      19A     -0.640034    20A     -0.589391    21A     -0.542988
      22A     -0.533434    23A     -0.511631    24A     -0.484839
      25A     -0.466665    26A     -0.441363    27A     -0.426008
      28A     -0.420321    29A     -0.414552    30A     -0.411168
      31A     -0.395574    32A     -0.380417    33A     -0.364037
      34A     -0.330632    35A     -0.300832    36A     -0.256101
      37A     -0.238052    38A     -0.224313    39A     -0.215989

  @DF-RHF Final Energy:  -512.32878294978127

   => Energetics <=

    Nuclear Repulsion Energy =            533.2118755712207303
    One-Electron Energy =               -1771.3896516193460684
    Two-Electron Energy =                 725.8489930983441809
    Total Energy =                       -512.3287829497812709
  Basis Set: (AUG-CC-PVTZ AUX)
    Blend: AUG-CC-PVTZ-RI
    Molecular point group: c1

    Geometry (in Angstrom), charge = -1, multiplicity = 1:

       Center              X                  Y                   Z               Mass
    ------------   -----------------  -----------------  -----------------  -----------------
         O           -1.683826574199     1.298163847426    -0.540141798632    15.994914619570
         O            1.937726425801    -1.718957152574     0.217299201368    15.994914619570
         O            3.298886425801    -0.048970152574    -0.516425798632    15.994914619570
         N           -0.196176574199    -0.237853152574     0.256725201368    14.003074004430
         C            1.006137425801     0.471349847426    -0.149170798632    12.000000000000
         C            1.291459925801     1.708171547426     0.696147701368    12.000000000000
         C           -2.554532574199    -0.793502152574     0.335579201368    12.000000000000
         C           -1.446360574199     0.188331847426    -0.029256798632    12.000000000000
         C            2.191757425801    -0.530934152574    -0.152057798632    12.000000000000
         C           -3.928273574199    -0.324658152574    -0.124750798632    12.000000000000
         H            0.883061325801     0.892070647426    -1.157022298632     1.007825032230
         H           -0.014172574199    -1.213477152574     0.487683201368     1.007825032230
         H            1.447953425801     1.314339847426     1.787730201368     1.007825032230
         H            2.203731425801     2.168959847426     0.425938201368     1.007825032230
         H            0.460683425801     2.363967847426     0.745887201368     1.007825032230
         H           -2.313987574199    -1.770270152574    -0.100423798632     1.007825032230
         H           -2.540247574199    -0.934361152574     1.422645201368     1.007825032230
         H           -4.180980574199     0.636815847426     0.326190201368     1.007825032230
         H           -3.955228574199    -0.203440152574    -1.209907798632     1.007825032230
         H           -4.693111574199    -1.052441152574     0.159872201368     1.007825032230

  Basis Set: AUG-CC-PVTZ
    Blend: AUG-CC-PVTZ
  Basis Set: (AUG-CC-PVTZ AUX)
    Blend: AUG-CC-PVTZ-JKFIT
	 Reference Energy          =    -512.3287829497812709 [Eh]
	 Singles Energy            =      -0.0000000000000000 [Eh]
	 Same-Spin Energy          =      -0.5202241174110663 [Eh]
	 Opposite-Spin Energy      =      -1.6215894236872908 [Eh]
	 Correlation Energy        =      -2.1418135410983572 [Eh]
	 Total Energy              =    -514.4705964908796432 [Eh]

	 ================> DF-SCS-MP2 Energies <==================
	-----------------------------------------------------------
	 SCS Same-Spin Scale       =       0.3333333333333333 [-]
	 SCS Opposite-Spin Scale   =       1.2000000000000000 [-]
	 SCS Same-Spin Energy      =      -0.1734080391370221 [Eh]
	 SCS Opposite-Spin Energy  =      -1.9459073084247489 [Eh]
	 SCS Correlation Energy    =      -2.1193153475617712 [Eh]
	 SCS Total Energy          =    -514.4480982973429946 [Eh]
	-----------------------------------------------------------

  Dipole Moment: [D]
     X:    -8.7347      Y:     0.6605      Z:     1.5183     Total:     8.8903

*** Psi4 exiting successfully. Buy a developer a beer!
