                               Psi4 1.3.2 release

  ==> Input File <==

--------------------------------------------------------------------------
#psi4
#
memory 32 gb

molecule  {
-1 1
  O       -1.6024110     1.2883820    -0.5634480
  O        2.0191420    -1.7287390     0.1939930
  O        3.3803020    -0.0587520    -0.5397320
  N       -0.1147610    -0.2476350     0.2334190
  C        1.0731163     0.4792536    -0.1835461
  C        1.3782960     1.6508690     0.7367710
  C       -2.4731170    -0.8032840     0.3122730
  C       -1.3558076     0.1972122    -0.0637237
  C        2.2731730    -0.5407160    -0.1753640
  C       -3.8468580    -0.3344400    -0.1480570
  H        0.9550610     0.8289670    -1.1997950
  H        0.0672430    -1.2232590     0.4643770
  H        1.5293690     1.3045580     1.7644240
  H        2.2851470     2.1591780     0.4026320
  H        0.5420990     2.3541860     0.7225810
  H       -2.2325720    -1.7800520    -0.1237300
  H       -2.4588320    -0.9441430     1.3993390
  H       -4.0995650     0.6270340     0.3028840
  H       -3.8738130    -0.2132220    -1.2332140
  H       -4.6116960    -1.0622230     0.1365660
units angstrom
no_reorient  #important for SAPT in psi4, default
symmetry c1  #important for SAPT in psi4, default
}

set PROPERTIES_ORIGIN ["COM"]
properties('MP2/aug-cc-pvtz', properties = ['dipole'])
--------------------------------------------------------------------------

    Molecular point group: c1
  Charge       = -1
  Multiplicity = 1
  Basis Set: AUG-CC-PVTZ
    Blend: AUG-CC-PVTZ
  Basis Set: (AUG-CC-PVTZ AUX)
    Blend: AUG-CC-PVTZ-JKFIT

    Orbital Energies [Eh]
    ---------------------

    Doubly Occupied:

       1A    -20.394647     2A    -20.322522     3A    -20.313619
       4A    -15.436288     5A    -11.222065     6A    -11.162380
       7A    -11.133538     8A    -11.123142     9A    -11.112717
      10A    -11.075178    11A     -1.253572    12A     -1.189745
      13A     -1.096940    14A     -1.081807    15A     -0.945432
      16A     -0.877668    17A     -0.780105    18A     -0.717931
      19A     -0.641164    20A     -0.586618    21A     -0.539349
      22A     -0.531770    23A     -0.514345    24A     -0.486536
      25A     -0.465075    26A     -0.440078    27A     -0.424205
      28A     -0.418867    29A     -0.413893    30A     -0.403615
      31A     -0.396357    32A     -0.378502    33A     -0.370801
      34A     -0.345561    35A     -0.298477    36A     -0.259114
      37A     -0.236523    38A     -0.220214    39A     -0.215112

  @DF-RHF Final Energy:  -512.33651317915155

   => Energetics <=

    Nuclear Repulsion Energy =            533.4396150012820499
    One-Electron Energy =               -1771.9013085697915812
    Two-Electron Energy =                 726.1251803893578654
    Total Energy =                       -512.3365131791515523
  Basis Set: (AUG-CC-PVTZ AUX)
    Blend: AUG-CC-PVTZ-RI
    Molecular point group: c1

    Geometry (in Angstrom), charge = -1, multiplicity = 1:

       Center              X                  Y                   Z               Mass
    ------------   -----------------  -----------------  -----------------  -----------------
         O           -1.683770799930     1.299467512107    -0.543479000654    15.994914619570
         O            1.937782200070    -1.717653487893     0.213961999346    15.994914619570
         O            3.298942200070    -0.047666487893    -0.519763000654    15.994914619570
         N           -0.196120799930    -0.236549487893     0.253387999346    14.003074004430
         C            0.991756500070     0.490339112107    -0.163577100654    12.000000000000
         C            1.296936200070     1.661954512107     0.756739999346    12.000000000000
         C           -2.554476799930    -0.792198487893     0.332241999346    12.000000000000
         C           -1.437167399930     0.208297712107    -0.043754700654    12.000000000000
         C            2.191813200070    -0.529630487893    -0.155395000654    12.000000000000
         C           -3.928217799930    -0.323354487893    -0.128088000654    12.000000000000
         H            0.873701200070     0.840052512107    -1.179826000654     1.007825032230
         H           -0.014116799930    -1.212173487893     0.484345999346     1.007825032230
         H            1.448009200070     1.315643512107     1.784392999346     1.007825032230
         H            2.203787200070     2.170263512107     0.422600999346     1.007825032230
         H            0.460739200070     2.365271512107     0.742549999346     1.007825032230
         H           -2.313931799930    -1.768966487893    -0.103761000654     1.007825032230
         H           -2.540191799930    -0.933057487893     1.419307999346     1.007825032230
         H           -4.180924799930     0.638119512107     0.322852999346     1.007825032230
         H           -3.955172799930    -0.202136487893    -1.213245000654     1.007825032230
         H           -4.693055799930    -1.051137487893     0.156534999346     1.007825032230

  Basis Set: AUG-CC-PVTZ
    Blend: AUG-CC-PVTZ
  Basis Set: (AUG-CC-PVTZ AUX)
    Blend: AUG-CC-PVTZ-JKFIT
	 Reference Energy          =    -512.3365131791515523 [Eh]
	 Singles Energy            =      -0.0000000000000000 [Eh]
	 Same-Spin Energy          =      -0.5197370256090117 [Eh]
	 Opposite-Spin Energy      =      -1.6204651337829024 [Eh]
	 Correlation Energy        =      -2.1402021593919143 [Eh]
	 Total Energy              =    -514.4767153385434995 [Eh]

	 ================> DF-SCS-MP2 Energies <==================
	-----------------------------------------------------------
	 SCS Same-Spin Scale       =       0.3333333333333333 [-]
	 SCS Opposite-Spin Scale   =       1.2000000000000000 [-]
	 SCS Same-Spin Energy      =      -0.1732456752030039 [Eh]
	 SCS Opposite-Spin Energy  =      -1.9445581605394828 [Eh]
	 SCS Correlation Energy    =      -2.1178038357424867 [Eh]
	 SCS Total Energy          =    -514.4543170148940590 [Eh]
	-----------------------------------------------------------

  Dipole Moment: [D]
     X:    -8.6478      Y:     0.7288      Z:     1.5293     Total:     8.8122

*** Psi4 exiting successfully. Buy a developer a beer!
