                               Psi4 1.3.2 release

  ==> Input File <==

--------------------------------------------------------------------------
#psi4
#
memory 32 gb

molecule  {
-1 1
  O       -1.6024110     1.2883820    -0.5634480
  O        2.0191420    -1.7287390     0.1939930
  O        3.3803020    -0.0587520    -0.5397320
  N       -0.1163105    -0.2394291     0.2429687
  C        1.0875530     0.4615680    -0.1724770
  C        1.3674447     1.6479852     0.7439155
  C       -2.4731170    -0.8032840     0.3122730
  C       -1.3649450     0.1785500    -0.0525630
  C        2.2731730    -0.5407160    -0.1753640
  C       -3.8468580    -0.3344400    -0.1480570
  H        0.9550610     0.8289670    -1.1997950
  H        0.0672430    -1.2232590     0.4643770
  H        1.5293690     1.3045580     1.7644240
  H        2.2851470     2.1591780     0.4026320
  H        0.5420990     2.3541860     0.7225810
  H       -2.2325720    -1.7800520    -0.1237300
  H       -2.4588320    -0.9441430     1.3993390
  H       -4.0995650     0.6270340     0.3028840
  H       -3.8738130    -0.2132220    -1.2332140
  H       -4.6116960    -1.0622230     0.1365660
units angstrom
no_reorient  #important for SAPT in psi4, default
symmetry c1  #important for SAPT in psi4, default
}

set PROPERTIES_ORIGIN ["COM"]
properties('MP2/aug-cc-pvtz', properties = ['dipole'])
--------------------------------------------------------------------------

    Molecular point group: c1
  Charge       = -1
  Multiplicity = 1
  Basis Set: AUG-CC-PVTZ
    Blend: AUG-CC-PVTZ
  Basis Set: (AUG-CC-PVTZ AUX)
    Blend: AUG-CC-PVTZ-JKFIT

    Orbital Energies [Eh]
    ---------------------

    Doubly Occupied:

       1A    -20.391388     2A    -20.322665     3A    -20.314064
       4A    -15.437947     5A    -11.223123     6A    -11.162346
       7A    -11.135365     8A    -11.124312     9A    -11.114806
      10A    -11.075237    11A     -1.241593    12A     -1.190795
      13A     -1.096600    14A     -1.081356    15A     -0.949300
      16A     -0.878404    17A     -0.783595    18A     -0.721190
      19A     -0.638079    20A     -0.588399    21A     -0.542381
      22A     -0.533120    23A     -0.511689    24A     -0.482536
      25A     -0.465804    26A     -0.438468    27A     -0.425727
      28A     -0.419574    29A     -0.413431    30A     -0.403624
      31A     -0.396663    32A     -0.373811    33A     -0.370196
      34A     -0.342027    35A     -0.299470    36A     -0.257172
      37A     -0.237167    38A     -0.223386    39A     -0.215951

  @DF-RHF Final Energy:  -512.33562547258634

   => Energetics <=

    Nuclear Repulsion Energy =            533.4667196118624588
    One-Electron Energy =               -1771.9591665501814077
    Two-Electron Energy =                 726.1568214657327189
    Total Energy =                       -512.3356254725863437
  Basis Set: (AUG-CC-PVTZ AUX)
    Blend: AUG-CC-PVTZ-RI
    Molecular point group: c1

    Geometry (in Angstrom), charge = -1, multiplicity = 1:

       Center              X                  Y                   Z               Mass
    ------------   -----------------  -----------------  -----------------  -----------------
         O           -1.683157735630     1.301937707757    -0.546853957449    15.994914619570
         O            1.938395264370    -1.715183292243     0.210587042551    15.994914619570
         O            3.299555264370    -0.045196292243    -0.523137957449    15.994914619570
         N           -0.197057235630    -0.225873392243     0.259562742551    14.003074004430
         C            1.006806264370     0.475123707757    -0.155882957449    12.000000000000
         C            1.286697964370     1.661540907757     0.760509542551    12.000000000000
         C           -2.553863735630    -0.789728292243     0.328867042551    12.000000000000
         C           -1.445691735630     0.192105707757    -0.035968957449    12.000000000000
         C            2.192426264370    -0.527160292243    -0.158769957449    12.000000000000
         C           -3.927604735630    -0.320884292243    -0.131462957449    12.000000000000
         H            0.874314264370     0.842522707757    -1.183200957449     1.007825032230
         H           -0.013503735630    -1.209703292243     0.480971042551     1.007825032230
         H            1.448622264370     1.318113707757     1.781018042551     1.007825032230
         H            2.204400264370     2.172733707757     0.419226042551     1.007825032230
         H            0.461352264370     2.367741707757     0.739175042551     1.007825032230
         H           -2.313318735630    -1.766496292243    -0.107135957449     1.007825032230
         H           -2.539578735630    -0.930587292243     1.415933042551     1.007825032230
         H           -4.180311735630     0.640589707757     0.319478042551     1.007825032230
         H           -3.954559735630    -0.199666292243    -1.216619957449     1.007825032230
         H           -4.692442735630    -1.048667292243     0.153160042551     1.007825032230

  Basis Set: AUG-CC-PVTZ
    Blend: AUG-CC-PVTZ
  Basis Set: (AUG-CC-PVTZ AUX)
    Blend: AUG-CC-PVTZ-JKFIT
	 Reference Energy          =    -512.3356254725863437 [Eh]
	 Singles Energy            =      -0.0000000000000000 [Eh]
	 Same-Spin Energy          =      -0.5202349097440543 [Eh]
	 Opposite-Spin Energy      =      -1.6214830550392241 [Eh]
	 Correlation Energy        =      -2.1417179647832785 [Eh]
	 Total Energy              =    -514.4773434373696546 [Eh]

	 ================> DF-SCS-MP2 Energies <==================
	-----------------------------------------------------------
	 SCS Same-Spin Scale       =       0.3333333333333333 [-]
	 SCS Opposite-Spin Scale   =       1.2000000000000000 [-]
	 SCS Same-Spin Energy      =      -0.1734116365813514 [Eh]
	 SCS Opposite-Spin Energy  =      -1.9457796660470688 [Eh]
	 SCS Correlation Energy    =      -2.1191913026284204 [Eh]
	 SCS Total Energy          =    -514.4548167752147947 [Eh]
	-----------------------------------------------------------

  Dipole Moment: [D]
     X:    -8.6756      Y:     0.6092      Z:     1.5957     Total:     8.8421

*** Psi4 exiting successfully. Buy a developer a beer!
