                               Psi4 1.3.2 release

  ==> Input File <==

--------------------------------------------------------------------------
#psi4
#
memory 32 gb

molecule  {
-1 1
  O       -1.6024110     1.2883820    -0.5634480
  O        2.0191420    -1.7287390     0.1939930
  O        3.3803020    -0.0587520    -0.5397320
  N       -0.0872081    -0.2900173     0.2378099
  C        1.0875530     0.4615680    -0.1724770
  C        1.3782960     1.6508690     0.7367710
  C       -2.4731170    -0.8032840     0.3122730
  C       -1.3649450     0.1785500    -0.0525630
  C        2.2390378    -0.5796761    -0.1594440
  C       -3.8468580    -0.3344400    -0.1480570
  H        0.9550610     0.8289670    -1.1997950
  H        0.0672430    -1.2232590     0.4643770
  H        1.5293690     1.3045580     1.7644240
  H        2.2851470     2.1591780     0.4026320
  H        0.5420990     2.3541860     0.7225810
  H       -2.2325720    -1.7800520    -0.1237300
  H       -2.4588320    -0.9441430     1.3993390
  H       -4.0995650     0.6270340     0.3028840
  H       -3.8738130    -0.2132220    -1.2332140
  H       -4.6116960    -1.0622230     0.1365660
units angstrom
no_reorient  #important for SAPT in psi4, default
symmetry c1  #important for SAPT in psi4, default
}

set PROPERTIES_ORIGIN ["COM"]
properties('MP2/aug-cc-pvtz', properties = ['dipole'])
--------------------------------------------------------------------------

    Molecular point group: c1
  Charge       = -1
  Multiplicity = 1
  Basis Set: AUG-CC-PVTZ
    Blend: AUG-CC-PVTZ
  Basis Set: (AUG-CC-PVTZ AUX)
    Blend: AUG-CC-PVTZ-JKFIT

    Orbital Energies [Eh]
    ---------------------

    Doubly Occupied:

       1A    -20.401352     2A    -20.331771     3A    -20.298118
       4A    -15.435145     5A    -11.231548     6A    -11.158106
       7A    -11.137546     8A    -11.126334     9A    -11.113106
      10A    -11.074371    11A     -1.244562    12A     -1.203099
      13A     -1.087233    14A     -1.072657    15A     -0.951302
      16A     -0.874196    17A     -0.786516    18A     -0.718075
      19A     -0.648729    20A     -0.589214    21A     -0.537594
      22A     -0.533909    23A     -0.514310    24A     -0.489004
      25A     -0.466741    26A     -0.438690    27A     -0.425510
      28A     -0.420172    29A     -0.413749    30A     -0.404358
      31A     -0.397183    32A     -0.378749    33A     -0.372069
      34A     -0.344099    35A     -0.302896    36A     -0.257355
      37A     -0.236176    38A     -0.213355    39A     -0.207575

  @DF-RHF Final Energy:  -512.32615453980395

   => Energetics <=

    Nuclear Repulsion Energy =            533.2212074244738460
    One-Electron Energy =               -1771.4217733938558013
    Two-Electron Energy =                 725.8744114295778900
    Total Energy =                       -512.3261545398039516
  Basis Set: (AUG-CC-PVTZ AUX)
    Blend: AUG-CC-PVTZ-RI
    Molecular point group: c1

    Geometry (in Angstrom), charge = -1, multiplicity = 1:

       Center              X                  Y                   Z               Mass
    ------------   -----------------  -----------------  -----------------  -----------------
         O           -1.684047023875     1.309859808518    -0.547083483681    15.994914619570
         O            1.937505976125    -1.707261191482     0.210357516319    15.994914619570
         O            3.298665976125    -0.037274191482    -0.523367483681    15.994914619570
         N           -0.168844123875    -0.268539491482     0.254174416319    14.003074004430
         C            1.005916976125     0.483045808518    -0.156112483681    12.000000000000
         C            1.296659976125     1.672346808518     0.753135516319    12.000000000000
         C           -2.554753023875    -0.781806191482     0.328637516319    12.000000000000
         C           -1.446581023875     0.200027808518    -0.036198483681    12.000000000000
         C            2.157401776125    -0.558198291482    -0.143079483681    12.000000000000
         C           -3.928494023875    -0.312962191482    -0.131692483681    12.000000000000
         H            0.873424976125     0.850444808518    -1.183430483681     1.007825032230
         H           -0.014393023875    -1.201781191482     0.480741516319     1.007825032230
         H            1.447732976125     1.326035808518     1.780788516319     1.007825032230
         H            2.203510976125     2.180655808518     0.418996516319     1.007825032230
         H            0.460462976125     2.375663808518     0.738945516319     1.007825032230
         H           -2.314208023875    -1.758574191482    -0.107365483681     1.007825032230
         H           -2.540468023875    -0.922665191482     1.415703516319     1.007825032230
         H           -4.181201023875     0.648511808518     0.319248516319     1.007825032230
         H           -3.955449023875    -0.191744191482    -1.216849483681     1.007825032230
         H           -4.693332023875    -1.040745191482     0.152930516319     1.007825032230

  Basis Set: AUG-CC-PVTZ
    Blend: AUG-CC-PVTZ
  Basis Set: (AUG-CC-PVTZ AUX)
    Blend: AUG-CC-PVTZ-JKFIT
	 Reference Energy          =    -512.3261545398039516 [Eh]
	 Singles Energy            =      -0.0000000000000000 [Eh]
	 Same-Spin Energy          =      -0.5200391701295214 [Eh]
	 Opposite-Spin Energy      =      -1.6215086179447948 [Eh]
	 Correlation Energy        =      -2.1415477880743161 [Eh]
	 Total Energy              =    -514.4677023278782144 [Eh]

	 ================> DF-SCS-MP2 Energies <==================
	-----------------------------------------------------------
	 SCS Same-Spin Scale       =       0.3333333333333333 [-]
	 SCS Opposite-Spin Scale   =       1.2000000000000000 [-]
	 SCS Same-Spin Energy      =      -0.1733463900431738 [Eh]
	 SCS Opposite-Spin Energy  =      -1.9458103415337538 [Eh]
	 SCS Correlation Energy    =      -2.1191567315769277 [Eh]
	 SCS Total Energy          =    -514.4453112713808878 [Eh]
	-----------------------------------------------------------

  Dipole Moment: [D]
     X:    -9.3175      Y:     0.3623      Z:     1.7398     Total:     9.4855

*** Psi4 exiting successfully. Buy a developer a beer!
