                               Psi4 1.3.2 release

  ==> Input File <==

--------------------------------------------------------------------------
#psi4
#
memory 32 gb

molecule  {
-1 1
  O       -1.6024110     1.2883820    -0.5634480
  O        2.0191420    -1.7287390     0.1939930
  O        3.3803020    -0.0587520    -0.5397320
  N       -0.1147610    -0.2476350     0.2334190
  C        1.0875530     0.4615680    -0.1724770
  C        1.3782960     1.6508690     0.7367710
  C       -2.4731170    -0.8032840     0.3122730
  C       -1.3649450     0.1785500    -0.0525630
  C        2.4487316    -0.4642905    -0.2331422
  C       -3.8468580    -0.3344400    -0.1480570
  H        0.9550610     0.8289670    -1.1997950
  H        0.0672430    -1.2232590     0.4643770
  H        1.5293690     1.3045580     1.7644240
  H        2.2851470     2.1591780     0.4026320
  H        0.5420990     2.3541860     0.7225810
  H       -2.2325720    -1.7800520    -0.1237300
  H       -2.4588320    -0.9441430     1.3993390
  H       -4.0995650     0.6270340     0.3028840
  H       -3.8738130    -0.2132220    -1.2332140
  H       -4.6116960    -1.0622230     0.1365660
units angstrom
no_reorient  #important for SAPT in psi4, default
symmetry c1  #important for SAPT in psi4, default
}

set PROPERTIES_ORIGIN ["COM"]
properties('MP2/aug-cc-pvtz', properties = ['dipole'])
--------------------------------------------------------------------------

    Molecular point group: c1
  Charge       = -1
  Multiplicity = 1
  Basis Set: AUG-CC-PVTZ
    Blend: AUG-CC-PVTZ
  Basis Set: (AUG-CC-PVTZ AUX)
    Blend: AUG-CC-PVTZ-JKFIT

    Orbital Energies [Eh]
    ---------------------

    Doubly Occupied:

       1A    -20.383481     2A    -20.362412     3A    -20.285824
       4A    -15.428348     5A    -11.215275     6A    -11.156070
       7A    -11.128994     8A    -11.119436     9A    -11.101623
      10A    -11.071348    11A     -1.322659    12A     -1.233066
      13A     -1.084198    14A     -1.033774    15A     -0.942295
      16A     -0.868667    17A     -0.777069    18A     -0.702714
      19A     -0.628956    20A     -0.579913    21A     -0.550488
      22A     -0.528528    23A     -0.518116    24A     -0.490587
      25A     -0.470383    26A     -0.442147    27A     -0.441036
      28A     -0.436444    29A     -0.414520    30A     -0.408703
      31A     -0.394435    32A     -0.389434    33A     -0.372524
      34A     -0.350116    35A     -0.293763    36A     -0.247506
      37A     -0.225302    38A     -0.208903    39A     -0.183029

  @DF-RHF Final Energy:  -512.26615513023353

   => Energetics <=

    Nuclear Repulsion Energy =            533.1095782948749502
    One-Electron Energy =               -1771.1672954031184872
    Two-Electron Energy =                 725.7915619780101224
    Total Energy =                       -512.2661551302335283
  Basis Set: (AUG-CC-PVTZ AUX)
    Blend: AUG-CC-PVTZ-RI
    Molecular point group: c1

    Geometry (in Angstrom), charge = -1, multiplicity = 1:

       Center              X                  Y                   Z               Mass
    ------------   -----------------  -----------------  -----------------  -----------------
         O           -1.698835379864     1.296129235398    -0.540517992518    15.994914619570
         O            1.922717620136    -1.720991764602     0.216923007482    15.994914619570
         O            3.283877620136    -0.051004764602    -0.516801992518    15.994914619570
         N           -0.211185379864    -0.239887764602     0.256349007482    14.003074004430
         C            0.991128620136     0.469315235398    -0.149546992518    12.000000000000
         C            1.281871620136     1.658616235398     0.759701007482    12.000000000000
         C           -2.569541379864    -0.795536764602     0.335203007482    12.000000000000
         C           -1.461369379864     0.186297235398    -0.029632992518    12.000000000000
         C            2.352307220136    -0.456543264602    -0.210212192518    12.000000000000
         C           -3.943282379864    -0.326692764602    -0.125126992518    12.000000000000
         H            0.858636620136     0.836714235398    -1.176864992518     1.007825032230
         H           -0.029181379864    -1.215511764602     0.487307007482     1.007825032230
         H            1.432944620136     1.312305235398     1.787354007482     1.007825032230
         H            2.188722620136     2.166925235398     0.425562007482     1.007825032230
         H            0.445674620136     2.361933235398     0.745511007482     1.007825032230
         H           -2.328996379864    -1.772304764602    -0.100799992518     1.007825032230
         H           -2.555256379864    -0.936395764602     1.422269007482     1.007825032230
         H           -4.195989379864     0.634781235398     0.325814007482     1.007825032230
         H           -3.970237379864    -0.205474764602    -1.210283992518     1.007825032230
         H           -4.708120379864    -1.054475764602     0.159496007482     1.007825032230

  Basis Set: AUG-CC-PVTZ
    Blend: AUG-CC-PVTZ
  Basis Set: (AUG-CC-PVTZ AUX)
    Blend: AUG-CC-PVTZ-JKFIT
	 Reference Energy          =    -512.2661551302335283 [Eh]
	 Singles Energy            =      -0.0000000000000000 [Eh]
	 Same-Spin Energy          =      -0.5187894342650506 [Eh]
	 Opposite-Spin Energy      =      -1.6186365106232623 [Eh]
	 Correlation Energy        =      -2.1374259448883128 [Eh]
	 Total Energy              =    -514.4035810751217923 [Eh]

	 ================> DF-SCS-MP2 Energies <==================
	-----------------------------------------------------------
	 SCS Same-Spin Scale       =       0.3333333333333333 [-]
	 SCS Opposite-Spin Scale   =       1.2000000000000000 [-]
	 SCS Same-Spin Energy      =      -0.1729298114216835 [Eh]
	 SCS Opposite-Spin Energy  =      -1.9423638127479146 [Eh]
	 SCS Correlation Energy    =      -2.1152936241695981 [Eh]
	 SCS Total Energy          =    -514.3814487544030953 [Eh]
	-----------------------------------------------------------

  Dipole Moment: [D]
     X:    -6.8928      Y:     1.6088      Z:     0.9335     Total:     7.1393

*** Psi4 exiting successfully. Buy a developer a beer!
