                               Psi4 1.3.2 release

  ==> Input File <==

--------------------------------------------------------------------------
#psi4
#
memory 32 gb

molecule  {
-1 1
  O       -1.6024110     1.2883820    -0.5634480
  O        2.0191420    -1.7287390     0.1939930
  O        3.3803020    -0.0587520    -0.5397320
  N       -0.1147610    -0.2476350     0.2334190
  C        1.0875530     0.4615680    -0.1724770
  C        1.3067399     1.6805059     0.7173813
  C       -2.4731170    -0.8032840     0.3122730
  C       -1.3649450     0.1785500    -0.0525630
  C        2.2310855    -0.5870571    -0.2272055
  C       -3.8468580    -0.3344400    -0.1480570
  H        0.9550610     0.8289670    -1.1997950
  H        0.0672430    -1.2232590     0.4643770
  H        1.5293690     1.3045580     1.7644240
  H        2.2851470     2.1591780     0.4026320
  H        0.5420990     2.3541860     0.7225810
  H       -2.2325720    -1.7800520    -0.1237300
  H       -2.4588320    -0.9441430     1.3993390
  H       -4.0995650     0.6270340     0.3028840
  H       -3.8738130    -0.2132220    -1.2332140
  H       -4.6116960    -1.0622230     0.1365660
units angstrom
no_reorient  #important for SAPT in psi4, default
symmetry c1  #important for SAPT in psi4, default
}

set PROPERTIES_ORIGIN ["COM"]
properties('MP2/aug-cc-pvtz', properties = ['dipole'])
--------------------------------------------------------------------------

    Molecular point group: c1
  Charge       = -1
  Multiplicity = 1
  Basis Set: AUG-CC-PVTZ
    Blend: AUG-CC-PVTZ
  Basis Set: (AUG-CC-PVTZ AUX)
    Blend: AUG-CC-PVTZ-JKFIT

    Orbital Energies [Eh]
    ---------------------

    Doubly Occupied:

       1A    -20.392646     2A    -20.333602     3A    -20.304959
       4A    -15.438111     5A    -11.224138     6A    -11.164421
       7A    -11.136065     8A    -11.124937     9A    -11.115865
      10A    -11.076925    11A     -1.242612    12A     -1.199792
      13A     -1.090378    14A     -1.078589    15A     -0.950080
      16A     -0.877336    17A     -0.784875    18A     -0.724986
      19A     -0.640748    20A     -0.588592    21A     -0.542006
      22A     -0.533569    23A     -0.511625    24A     -0.484778
      25A     -0.473743    26A     -0.439361    27A     -0.424175
      28A     -0.422856    29A     -0.412774    30A     -0.407799
      31A     -0.396869    32A     -0.377092    33A     -0.363014
      34A     -0.337797    35A     -0.300115    36A     -0.256123
      37A     -0.240297    38A     -0.219435    39A     -0.212260

  @DF-RHF Final Energy:  -512.32130340408924

   => Energetics <=

    Nuclear Repulsion Energy =            533.5247220845318452
    One-Electron Energy =               -1772.0013635715827149
    Two-Electron Energy =                 726.1553380829617481
    Total Energy =                       -512.3213034040892353
  Basis Set: (AUG-CC-PVTZ AUX)
    Blend: AUG-CC-PVTZ-RI
    Molecular point group: c1

    Geometry (in Angstrom), charge = -1, multiplicity = 1:

       Center              X                  Y                   Z               Mass
    ------------   -----------------  -----------------  -----------------  -----------------
         O           -1.674746248789     1.303886484652    -0.539397423309    15.994914619570
         O            1.946806751211    -1.713234515348     0.218043576691    15.994914619570
         O            3.307966751211    -0.043247515348    -0.515681423309    15.994914619570
         N           -0.187096248789    -0.232130515348     0.257469576691    14.003074004430
         C            1.015217751211     0.477072484652    -0.148426423309    12.000000000000
         C            1.234404651211     1.696010384652     0.741431876691    12.000000000000
         C           -2.545452248789    -0.787779515348     0.336323576691    12.000000000000
         C           -1.437280248789     0.194054484652    -0.028512423309    12.000000000000
         C            2.158750251211    -0.571552615348    -0.203154923309    12.000000000000
         C           -3.919193248789    -0.318935515348    -0.124006423309    12.000000000000
         H            0.882725751211     0.844471484652    -1.175744423309     1.007825032230
         H           -0.005092248789    -1.207754515348     0.488427576691     1.007825032230
         H            1.457033751211     1.320062484652     1.788474576691     1.007825032230
         H            2.212811751211     2.174682484652     0.426682576691     1.007825032230
         H            0.469763751211     2.369690484652     0.746631576691     1.007825032230
         H           -2.304907248789    -1.764547515348    -0.099679423309     1.007825032230
         H           -2.531167248789    -0.928638515348     1.423389576691     1.007825032230
         H           -4.171900248789     0.642538484652     0.326934576691     1.007825032230
         H           -3.946148248789    -0.197717515348    -1.209163423309     1.007825032230
         H           -4.684031248789    -1.046718515348     0.160616576691     1.007825032230

  Basis Set: AUG-CC-PVTZ
    Blend: AUG-CC-PVTZ
  Basis Set: (AUG-CC-PVTZ AUX)
    Blend: AUG-CC-PVTZ-JKFIT
	 Reference Energy          =    -512.3213034040892353 [Eh]
	 Singles Energy            =      -0.0000000000000000 [Eh]
	 Same-Spin Energy          =      -0.5206348382618087 [Eh]
	 Opposite-Spin Energy      =      -1.6225632152898568 [Eh]
	 Correlation Energy        =      -2.1431980535516653 [Eh]
	 Total Energy              =    -514.4645014576409494 [Eh]

	 ================> DF-SCS-MP2 Energies <==================
	-----------------------------------------------------------
	 SCS Same-Spin Scale       =       0.3333333333333333 [-]
	 SCS Opposite-Spin Scale   =       1.2000000000000000 [-]
	 SCS Same-Spin Energy      =      -0.1735449460872696 [Eh]
	 SCS Opposite-Spin Energy  =      -1.9470758583478280 [Eh]
	 SCS Correlation Energy    =      -2.1206208044350978 [Eh]
	 SCS Total Energy          =    -514.4419242085243695 [Eh]
	-----------------------------------------------------------

  Dipole Moment: [D]
     X:    -9.0083      Y:     0.3373      Z:     1.6862     Total:     9.1710

*** Psi4 exiting successfully. Buy a developer a beer!
