                               Psi4 1.3.2 release

  ==> Input File <==

--------------------------------------------------------------------------
#psi4
#
memory 32 gb

molecule  {
-1 1
  O       -1.6024110     1.2883820    -0.5634480
  O        2.0191420    -1.7287390     0.1939930
  O        3.3803020    -0.0587520    -0.5397320
  N       -0.1147610    -0.2476350     0.2334190
  C        1.0875530     0.4615680    -0.1724770
  C        1.3782960     1.6508690     0.7367710
  C       -2.4731170    -0.8032840     0.3122730
  C       -1.3649450     0.1785500    -0.0525630
  C        2.4533044    -0.6257297    -0.1573264
  C       -3.8468580    -0.3344400    -0.1480570
  H        0.9550610     0.8289670    -1.1997950
  H        0.0672430    -1.2232590     0.4643770
  H        1.5293690     1.3045580     1.7644240
  H        2.2851470     2.1591780     0.4026320
  H        0.5420990     2.3541860     0.7225810
  H       -2.2325720    -1.7800520    -0.1237300
  H       -2.4588320    -0.9441430     1.3993390
  H       -4.0995650     0.6270340     0.3028840
  H       -3.8738130    -0.2132220    -1.2332140
  H       -4.6116960    -1.0622230     0.1365660
units angstrom
no_reorient  #important for SAPT in psi4, default
symmetry c1  #important for SAPT in psi4, default
}

set PROPERTIES_ORIGIN ["COM"]
properties('MP2/aug-cc-pvtz', properties = ['dipole'])
--------------------------------------------------------------------------

    Molecular point group: c1
  Charge       = -1
  Multiplicity = 1
  Basis Set: AUG-CC-PVTZ
    Blend: AUG-CC-PVTZ
  Basis Set: (AUG-CC-PVTZ AUX)
    Blend: AUG-CC-PVTZ-JKFIT

    Orbital Energies [Eh]
    ---------------------

    Doubly Occupied:

       1A    -20.380516     2A    -20.341424     3A    -20.328834
       4A    -15.424922     5A    -11.211900     6A    -11.169390
       7A    -11.127822     8A    -11.118497     9A    -11.082084
      10A    -11.060731    11A     -1.251492    12A     -1.229500
      13A     -1.149969    14A     -1.071853    15A     -0.940564
      16A     -0.853667    17A     -0.774099    18A     -0.689032
      19A     -0.623423    20A     -0.570170    21A     -0.538010
      22A     -0.525254    23A     -0.502719    24A     -0.481810
      25A     -0.460950    26A     -0.456375    27A     -0.431746
      28A     -0.423874    29A     -0.412971    30A     -0.407082
      31A     -0.390243    32A     -0.383215    33A     -0.364147
      34A     -0.341270    35A     -0.293055    36A     -0.268863
      37A     -0.253950    38A     -0.234872    39A     -0.172423

  @DF-RHF Final Energy:  -512.31162873414428

   => Energetics <=

    Nuclear Repulsion Energy =            532.3703920510799890
    One-Electron Energy =               -1769.8786024590867783
    Two-Electron Energy =                 725.1965816738625108
    Total Energy =                       -512.3116287341442785
  Basis Set: (AUG-CC-PVTZ AUX)
    Blend: AUG-CC-PVTZ-RI
    Molecular point group: c1

    Geometry (in Angstrom), charge = -1, multiplicity = 1:

       Center              X                  Y                   Z               Mass
    ------------   -----------------  -----------------  -----------------  -----------------
         O           -1.699216271775     1.309576332444    -0.546833078446    15.994914619570
         O            1.922336728225    -1.707544667556     0.210607921554    15.994914619570
         O            3.283496728225    -0.037557667556    -0.523117078446    15.994914619570
         N           -0.211566271775    -0.226440667556     0.250033921554    14.003074004430
         C            0.990747728225     0.482762332444    -0.155862078446    12.000000000000
         C            1.281490728225     1.672063332444     0.753385921554    12.000000000000
         C           -2.569922271775    -0.782089667556     0.328887921554    12.000000000000
         C           -1.461750271775     0.199744332444    -0.035948078446    12.000000000000
         C            2.356499128225    -0.604535367556    -0.140711478446    12.000000000000
         C           -3.943663271775    -0.313245667556    -0.131442078446    12.000000000000
         H            0.858255728225     0.850161332444    -1.183180078446     1.007825032230
         H           -0.029562271775    -1.202064667556     0.480991921554     1.007825032230
         H            1.432563728225     1.325752332444     1.781038921554     1.007825032230
         H            2.188341728225     2.180372332444     0.419246921554     1.007825032230
         H            0.445293728225     2.375380332444     0.739195921554     1.007825032230
         H           -2.329377271775    -1.758857667556    -0.107115078446     1.007825032230
         H           -2.555637271775    -0.922948667556     1.415953921554     1.007825032230
         H           -4.196370271775     0.648228332444     0.319498921554     1.007825032230
         H           -3.970618271775    -0.192027667556    -1.216599078446     1.007825032230
         H           -4.708501271775    -1.041028667556     0.153180921554     1.007825032230

  Basis Set: AUG-CC-PVTZ
    Blend: AUG-CC-PVTZ
  Basis Set: (AUG-CC-PVTZ AUX)
    Blend: AUG-CC-PVTZ-JKFIT
	 Reference Energy          =    -512.3116287341442785 [Eh]
	 Singles Energy            =      -0.0000000000000000 [Eh]
	 Same-Spin Energy          =      -0.5192638451278615 [Eh]
	 Opposite-Spin Energy      =      -1.6182029434152720 [Eh]
	 Correlation Energy        =      -2.1374667885431338 [Eh]
	 Total Energy              =    -514.4490955226874576 [Eh]

	 ================> DF-SCS-MP2 Energies <==================
	-----------------------------------------------------------
	 SCS Same-Spin Scale       =       0.3333333333333333 [-]
	 SCS Opposite-Spin Scale   =       1.2000000000000000 [-]
	 SCS Same-Spin Energy      =      -0.1730879483759538 [Eh]
	 SCS Opposite-Spin Energy  =      -1.9418435320983263 [Eh]
	 SCS Correlation Energy    =      -2.1149314804742803 [Eh]
	 SCS Total Energy          =    -514.4265602146185756 [Eh]
	-----------------------------------------------------------

  Dipole Moment: [D]
     X:    -7.0563      Y:    -0.0465      Z:     1.3782     Total:     7.1898

*** Psi4 exiting successfully. Buy a developer a beer!
