                               Psi4 1.3.2 release

  ==> Input File <==

--------------------------------------------------------------------------
#psi4
#
memory 32 gb

molecule  {
-1 1
  O       -1.6024110     1.2883820    -0.5634480
  O        2.0191420    -1.7287390     0.1939930
  O        3.3803020    -0.0587520    -0.5397320
  N       -0.1331540    -0.2876709     0.2502710
  C        1.0875530     0.4615680    -0.1724770
  C        1.3782960     1.6508690     0.7367710
  C       -2.4360613    -0.8369593     0.3303197
  C       -1.3649450     0.1785500    -0.0525630
  C        2.2731730    -0.5407160    -0.1753640
  C       -3.8468580    -0.3344400    -0.1480570
  H        0.9550610     0.8289670    -1.1997950
  H        0.0672430    -1.2232590     0.4643770
  H        1.5293690     1.3045580     1.7644240
  H        2.2851470     2.1591780     0.4026320
  H        0.5420990     2.3541860     0.7225810
  H       -2.2325720    -1.7800520    -0.1237300
  H       -2.4588320    -0.9441430     1.3993390
  H       -4.0995650     0.6270340     0.3028840
  H       -3.8738130    -0.2132220    -1.2332140
  H       -4.6116960    -1.0622230     0.1365660
units angstrom
no_reorient  #important for SAPT in psi4, default
symmetry c1  #important for SAPT in psi4, default
}

set PROPERTIES_ORIGIN ["COM"]
properties('MP2/aug-cc-pvtz', properties = ['dipole'])
--------------------------------------------------------------------------

    Molecular point group: c1
  Charge       = -1
  Multiplicity = 1
  Basis Set: AUG-CC-PVTZ
    Blend: AUG-CC-PVTZ
  Basis Set: (AUG-CC-PVTZ AUX)
    Blend: AUG-CC-PVTZ-JKFIT

    Orbital Energies [Eh]
    ---------------------

    Doubly Occupied:

       1A    -20.395308     2A    -20.321847     3A    -20.313819
       4A    -15.436235     5A    -11.224758     6A    -11.161787
       7A    -11.130948     8A    -11.124355     9A    -11.117562
      10A    -11.077127    11A     -1.241734    12A     -1.190363
      13A     -1.096711    14A     -1.080959    15A     -0.941429
      16A     -0.877675    17A     -0.783864    18A     -0.719532
      19A     -0.652180    20A     -0.586902    21A     -0.537448
      22A     -0.535021    23A     -0.511443    24A     -0.482689
      25A     -0.464269    26A     -0.438808    27A     -0.421590
      28A     -0.420366    29A     -0.409796    30A     -0.404764
      31A     -0.396668    32A     -0.377462    33A     -0.369210
      34A     -0.341626    35A     -0.300345    36A     -0.261150
      37A     -0.236901    38A     -0.222770    39A     -0.215839

  @DF-RHF Final Energy:  -512.33098024710398

   => Energetics <=

    Nuclear Repulsion Energy =            532.7521750271375822
    One-Electron Energy =               -1770.5197931376899305
    Two-Electron Energy =                 725.4366378634483681
    Total Energy =                       -512.3309802471039802
  Basis Set: (AUG-CC-PVTZ AUX)
    Blend: AUG-CC-PVTZ-RI
    Molecular point group: c1

    Geometry (in Angstrom), charge = -1, multiplicity = 1:

       Center              X                  Y                   Z               Mass
    ------------   -----------------  -----------------  -----------------  -----------------
         O           -1.685510983881     1.309191542811    -0.548471833541    15.994914619570
         O            1.936042016119    -1.707929457189     0.208969166459    15.994914619570
         O            3.297202016119    -0.037942457189    -0.524755833541    15.994914619570
         N           -0.216253983881    -0.266861357189     0.265247166459    14.003074004430
         C            1.004453016119     0.482377542811    -0.157500833541    12.000000000000
         C            1.295196016119     1.671678542811     0.751747166459    12.000000000000
         C           -2.519161283881    -0.816149757189     0.345295866459    12.000000000000
         C           -1.448044983881     0.199359542811    -0.037586833541    12.000000000000
         C            2.190073016119    -0.519906457189    -0.160387833541    12.000000000000
         C           -3.929957983881    -0.313630457189    -0.133080833541    12.000000000000
         H            0.871961016119     0.849776542811    -1.184818833541     1.007825032230
         H           -0.015856983881    -1.202449457189     0.479353166459     1.007825032230
         H            1.446269016119     1.325367542811     1.779400166459     1.007825032230
         H            2.202047016119     2.179987542811     0.417608166459     1.007825032230
         H            0.458999016119     2.374995542811     0.737557166459     1.007825032230
         H           -2.315671983881    -1.759242457189    -0.108753833541     1.007825032230
         H           -2.541931983881    -0.923333457189     1.414315166459     1.007825032230
         H           -4.182664983881     0.647843542811     0.317860166459     1.007825032230
         H           -3.956912983881    -0.192412457189    -1.218237833541     1.007825032230
         H           -4.694795983881    -1.041413457189     0.151542166459     1.007825032230

  Basis Set: AUG-CC-PVTZ
    Blend: AUG-CC-PVTZ
  Basis Set: (AUG-CC-PVTZ AUX)
    Blend: AUG-CC-PVTZ-JKFIT
	 Reference Energy          =    -512.3309802471039802 [Eh]
	 Singles Energy            =      -0.0000000000000000 [Eh]
	 Same-Spin Energy          =      -0.5196051564109510 [Eh]
	 Opposite-Spin Energy      =      -1.6211661011101830 [Eh]
	 Correlation Energy        =      -2.1407712575211342 [Eh]
	 Total Energy              =    -514.4717515046251037 [Eh]

	 ================> DF-SCS-MP2 Energies <==================
	-----------------------------------------------------------
	 SCS Same-Spin Scale       =       0.3333333333333333 [-]
	 SCS Opposite-Spin Scale   =       1.2000000000000000 [-]
	 SCS Same-Spin Energy      =      -0.1732017188036503 [Eh]
	 SCS Opposite-Spin Energy  =      -1.9453993213322196 [Eh]
	 SCS Correlation Energy    =      -2.1186010401358697 [Eh]
	 SCS Total Energy          =    -514.4495812872398801 [Eh]
	-----------------------------------------------------------

  Dipole Moment: [D]
     X:    -8.5906      Y:     0.6885      Z:     1.5944     Total:     8.7644

*** Psi4 exiting successfully. Buy a developer a beer!
