                               Psi4 1.3.2 release

  ==> Input File <==

--------------------------------------------------------------------------
#psi4
#
memory 32 gb

molecule  {
-1 1
  O       -1.6024110     1.2883820    -0.5634480
  O        2.0191420    -1.7287390     0.1939930
  O        3.3803020    -0.0587520    -0.5397320
  N       -0.1147610    -0.2476350     0.2334190
  C        1.1140082     0.4188103    -0.1656504
  C        1.3782960     1.6508690     0.7367710
  C       -2.4731170    -0.8032840     0.3122730
  C       -1.3649450     0.1785500    -0.0525630
  C        2.2731730    -0.5407160    -0.1753640
  C       -3.8468580    -0.3344400    -0.1480570
  H        0.9550610     0.8289670    -1.1997950
  H        0.1015978    -1.2179889     0.4568275
  H        1.5293690     1.3045580     1.7644240
  H        2.2851470     2.1591780     0.4026320
  H        0.5420990     2.3541860     0.7225810
  H       -2.2325720    -1.7800520    -0.1237300
  H       -2.4588320    -0.9441430     1.3993390
  H       -4.0995650     0.6270340     0.3028840
  H       -3.8738130    -0.2132220    -1.2332140
  H       -4.6116960    -1.0622230     0.1365660
units angstrom
no_reorient  #important for SAPT in psi4, default
symmetry c1  #important for SAPT in psi4, default
}

set PROPERTIES_ORIGIN ["COM"]
properties('MP2/aug-cc-pvtz', properties = ['dipole'])
--------------------------------------------------------------------------

    Molecular point group: c1
  Charge       = -1
  Multiplicity = 1
  Basis Set: AUG-CC-PVTZ
    Blend: AUG-CC-PVTZ
  Basis Set: (AUG-CC-PVTZ AUX)
    Blend: AUG-CC-PVTZ-JKFIT

    Orbital Energies [Eh]
    ---------------------

    Doubly Occupied:

       1A    -20.392251     2A    -20.322824     3A    -20.314143
       4A    -15.437413     5A    -11.225093     6A    -11.160744
       7A    -11.135502     8A    -11.124377     9A    -11.116845
      10A    -11.077156    11A     -1.241759    12A     -1.193483
      13A     -1.097943    14A     -1.081243    15A     -0.949283
      16A     -0.876175    17A     -0.784152    18A     -0.726697
      19A     -0.640866    20A     -0.590870    21A     -0.546013
      22A     -0.532730    23A     -0.508057    24A     -0.483162
      25A     -0.466321    26A     -0.437213    27A     -0.426487
      28A     -0.421272    29A     -0.413773    30A     -0.404580
      31A     -0.396481    32A     -0.374549    33A     -0.368198
      34A     -0.335990    35A     -0.300347    36A     -0.254261
      37A     -0.239125    38A     -0.228301    39A     -0.216409

  @DF-RHF Final Energy:  -512.33311246965479

   => Energetics <=

    Nuclear Repulsion Energy =            533.7178705357357558
    One-Electron Energy =               -1772.4177888363003603
    Two-Electron Energy =                 726.3668058309098114
    Total Energy =                       -512.3331124696547931
  Basis Set: (AUG-CC-PVTZ AUX)
    Blend: AUG-CC-PVTZ-RI
    Molecular point group: c1

    Geometry (in Angstrom), charge = -1, multiplicity = 1:

       Center              X                  Y                   Z               Mass
    ------------   -----------------  -----------------  -----------------  -----------------
         O           -1.686656126313     1.306019746600    -0.545846443794    15.994914619570
         O            1.934896873687    -1.711101253400     0.211594556206    15.994914619570
         O            3.296056873687    -0.041114253400    -0.522130443794    15.994914619570
         N           -0.199006126313    -0.229997253400     0.251020556206    14.003074004430
         C            1.029763073687     0.436448046600    -0.148048843794    12.000000000000
         C            1.294050873687     1.668506746600     0.754372556206    12.000000000000
         C           -2.557362126313    -0.785646253400     0.329874556206    12.000000000000
         C           -1.449190126313     0.196187746600    -0.034961443794    12.000000000000
         C            2.188927873687    -0.523078253400    -0.157762443794    12.000000000000
         C           -3.931103126313    -0.316802253400    -0.130455443794    12.000000000000
         H            0.870815873687     0.846604746600    -1.182193443794     1.007825032230
         H            0.017352673687    -1.200351153400     0.474429056206     1.007825032230
         H            1.445123873687     1.322195746600     1.782025556206     1.007825032230
         H            2.200901873687     2.176815746600     0.420233556206     1.007825032230
         H            0.457853873687     2.371823746600     0.740182556206     1.007825032230
         H           -2.316817126313    -1.762414253400    -0.106128443794     1.007825032230
         H           -2.543077126313    -0.926505253400     1.416940556206     1.007825032230
         H           -4.183810126313     0.644671746600     0.320485556206     1.007825032230
         H           -3.958058126313    -0.195584253400    -1.215612443794     1.007825032230
         H           -4.695941126313    -1.044585253400     0.154167556206     1.007825032230

  Basis Set: AUG-CC-PVTZ
    Blend: AUG-CC-PVTZ
  Basis Set: (AUG-CC-PVTZ AUX)
    Blend: AUG-CC-PVTZ-JKFIT
	 Reference Energy          =    -512.3331124696547931 [Eh]
	 Singles Energy            =      -0.0000000000000000 [Eh]
	 Same-Spin Energy          =      -0.5203908528321285 [Eh]
	 Opposite-Spin Energy      =      -1.6218257914859653 [Eh]
	 Correlation Energy        =      -2.1422166443180939 [Eh]
	 Total Energy              =    -514.4753291139728617 [Eh]

	 ================> DF-SCS-MP2 Energies <==================
	-----------------------------------------------------------
	 SCS Same-Spin Scale       =       0.3333333333333333 [-]
	 SCS Opposite-Spin Scale   =       1.2000000000000000 [-]
	 SCS Same-Spin Energy      =      -0.1734636176107095 [Eh]
	 SCS Opposite-Spin Energy  =      -1.9461909497831582 [Eh]
	 SCS Correlation Energy    =      -2.1196545673938676 [Eh]
	 SCS Total Energy          =    -514.4527670370487158 [Eh]
	-----------------------------------------------------------

  Dipole Moment: [D]
     X:    -8.6662      Y:     0.6151      Z:     1.5933     Total:     8.8329

*** Psi4 exiting successfully. Buy a developer a beer!
