                               Psi4 1.3.2 release

  ==> Input File <==

--------------------------------------------------------------------------
#psi4
#
memory 32 gb

molecule  {
-1 1
  O       -1.6024110     1.2883820    -0.5634480
  O        2.0191420    -1.7287390     0.1939930
  O        3.3803020    -0.0587520    -0.5397320
  N       -0.1147610    -0.2476350     0.2334190
  C        1.1529223     0.4802662    -0.2143316
  C        1.3782960     1.6508690     0.7367710
  C       -2.4731170    -0.8032840     0.3122730
  C       -1.3649450     0.1785500    -0.0525630
  C        2.2731730    -0.5407160    -0.1753640
  C       -3.8468580    -0.3344400    -0.1480570
  H        0.9550610     0.8289670    -1.1997950
  H        0.0672430    -1.2232590     0.4643770
  H        1.5293690     1.3045580     1.7644240
  H        2.2894200     2.1206925     0.3605736
  H        0.5420990     2.3541860     0.7225810
  H       -2.2325720    -1.7800520    -0.1237300
  H       -2.4588320    -0.9441430     1.3993390
  H       -4.0995650     0.6270340     0.3028840
  H       -3.8738130    -0.2132220    -1.2332140
  H       -4.6116960    -1.0622230     0.1365660
units angstrom
no_reorient  #important for SAPT in psi4, default
symmetry c1  #important for SAPT in psi4, default
}

set PROPERTIES_ORIGIN ["COM"]
properties('MP2/aug-cc-pvtz', properties = ['dipole'])
--------------------------------------------------------------------------

    Molecular point group: c1
  Charge       = -1
  Multiplicity = 1
  Basis Set: AUG-CC-PVTZ
    Blend: AUG-CC-PVTZ
  Basis Set: (AUG-CC-PVTZ AUX)
    Blend: AUG-CC-PVTZ-JKFIT

    Orbital Energies [Eh]
    ---------------------

    Doubly Occupied:

       1A    -20.387763     2A    -20.324094     3A    -20.314417
       4A    -15.432612     5A    -11.219526     6A    -11.162117
       7A    -11.132695     8A    -11.122452     9A    -11.118641
      10A    -11.078444    11A     -1.236810    12A     -1.193168
      13A     -1.093950    14A     -1.070528    15A     -0.946087
      16A     -0.882940    17A     -0.779602    18A     -0.724512
      19A     -0.635525    20A     -0.585287    21A     -0.540580
      22A     -0.530367    23A     -0.510404    24A     -0.480219
      25A     -0.465131    26A     -0.437155    27A     -0.426621
      28A     -0.419369    29A     -0.413860    30A     -0.410944
      31A     -0.394913    32A     -0.373872    33A     -0.361479
      34A     -0.345010    35A     -0.295749    36A     -0.256034
      37A     -0.240102    38A     -0.226815    39A     -0.216840

  @DF-RHF Final Energy:  -512.33004661138705

   => Energetics <=

    Nuclear Repulsion Energy =            532.8632410515377842
    One-Electron Energy =               -1770.8133031274949190
    Two-Electron Energy =                 725.6200154645702014
    Total Energy =                       -512.3300466113870471
  Basis Set: (AUG-CC-PVTZ AUX)
    Blend: AUG-CC-PVTZ-RI
    Molecular point group: c1

    Geometry (in Angstrom), charge = -1, multiplicity = 1:

       Center              X                  Y                   Z               Mass
    ------------   -----------------  -----------------  -----------------  -----------------
         O           -1.689687041326     1.301206865817    -0.541550127937    15.994914619570
         O            1.931865958674    -1.715914134183     0.215890872063    15.994914619570
         O            3.293025958674    -0.045927134183    -0.517834127937    15.994914619570
         N           -0.202037041326    -0.234810134183     0.255316872063    14.003074004430
         C            1.065646258674     0.493091065817    -0.192433727937    12.000000000000
         C            1.291019958674     1.663693865817     0.758668872063    12.000000000000
         C           -2.560393041326    -0.790459134183     0.334170872063    12.000000000000
         C           -1.452221041326     0.191374865817    -0.030665127937    12.000000000000
         C            2.185896958674    -0.527891134183    -0.153466127937    12.000000000000
         C           -3.934134041326    -0.321615134183    -0.126159127937    12.000000000000
         H            0.867784958674     0.841791865817    -1.177897127937     1.007825032230
         H           -0.020033041326    -1.210434134183     0.486274872063     1.007825032230
         H            1.442092958674     1.317382865817     1.786321872063     1.007825032230
         H            2.202143958674     2.133517365817     0.382471472063     1.007825032230
         H            0.454822958674     2.367010865817     0.744478872063     1.007825032230
         H           -2.319848041326    -1.767227134183    -0.101832127937     1.007825032230
         H           -2.546108041326    -0.931318134183     1.421236872063     1.007825032230
         H           -4.186841041326     0.639858865817     0.324781872063     1.007825032230
         H           -3.961089041326    -0.200397134183    -1.211316127937     1.007825032230
         H           -4.698972041326    -1.049398134183     0.158463872063     1.007825032230

  Basis Set: AUG-CC-PVTZ
    Blend: AUG-CC-PVTZ
  Basis Set: (AUG-CC-PVTZ AUX)
    Blend: AUG-CC-PVTZ-JKFIT
	 Reference Energy          =    -512.3300466113870471 [Eh]
	 Singles Energy            =      -0.0000000000000000 [Eh]
	 Same-Spin Energy          =      -0.5200579650314140 [Eh]
	 Opposite-Spin Energy      =      -1.6218820138344197 [Eh]
	 Correlation Energy        =      -2.1419399788658335 [Eh]
	 Total Energy              =    -514.4719865902528682 [Eh]

	 ================> DF-SCS-MP2 Energies <==================
	-----------------------------------------------------------
	 SCS Same-Spin Scale       =       0.3333333333333333 [-]
	 SCS Opposite-Spin Scale   =       1.2000000000000000 [-]
	 SCS Same-Spin Energy      =      -0.1733526550104713 [Eh]
	 SCS Opposite-Spin Energy  =      -1.9462584166013035 [Eh]
	 SCS Correlation Energy    =      -2.1196110716117746 [Eh]
	 SCS Total Energy          =    -514.4496576829988044 [Eh]
	-----------------------------------------------------------

  Dipole Moment: [D]
     X:    -8.4400      Y:     0.6938      Z:     1.5375     Total:     8.6069

*** Psi4 exiting successfully. Buy a developer a beer!
