                               Psi4 1.3.2 release

  ==> Input File <==

--------------------------------------------------------------------------
#psi4
#
memory 32 gb

molecule  {
-1 1
  O       -1.6024110     1.2883820    -0.5634480
  O        2.0191420    -1.7287390     0.1939930
  O        3.3803020    -0.0587520    -0.5397320
  N       -0.1147610    -0.2476350     0.2334190
  C        1.0875530     0.4615680    -0.1724770
  C        1.3782960     1.6508690     0.7367710
  C       -2.4731170    -0.8032840     0.3122730
  C       -1.3830579     0.1944275    -0.0638807
  C        2.2731730    -0.5407160    -0.1753640
  C       -3.8357236    -0.3125558    -0.1582286
  H        0.9550610     0.8289670    -1.1997950
  H        0.0672430    -1.2232590     0.4643770
  H        1.5293690     1.3045580     1.7644240
  H        2.2851470     2.1591780     0.4026320
  H        0.5420990     2.3541860     0.7225810
  H       -2.2325720    -1.7800520    -0.1237300
  H       -2.4588320    -0.9441430     1.3993390
  H       -4.0995650     0.6270340     0.3028840
  H       -3.8738130    -0.2132220    -1.2332140
  H       -4.6116960    -1.0622230     0.1365660
units angstrom
no_reorient  #important for SAPT in psi4, default
symmetry c1  #important for SAPT in psi4, default
}

set PROPERTIES_ORIGIN ["COM"]
properties('MP2/aug-cc-pvtz', properties = ['dipole'])
--------------------------------------------------------------------------

    Molecular point group: c1
  Charge       = -1
  Multiplicity = 1
  Basis Set: AUG-CC-PVTZ
    Blend: AUG-CC-PVTZ
  Basis Set: (AUG-CC-PVTZ AUX)
    Blend: AUG-CC-PVTZ-JKFIT

    Orbital Energies [Eh]
    ---------------------

    Doubly Occupied:

       1A    -20.397919     2A    -20.320426     3A    -20.312119
       4A    -15.432689     5A    -11.224118     6A    -11.160048
       7A    -11.135553     8A    -11.125237     9A    -11.112049
      10A    -11.074174    11A     -1.256395    12A     -1.188919
      13A     -1.092918    14A     -1.076031    15A     -0.950430
      16A     -0.874573    17A     -0.783152    18A     -0.717481
      19A     -0.636290    20A     -0.588456    21A     -0.541015
      22A     -0.535165    23A     -0.512733    24A     -0.486186
      25A     -0.464285    26A     -0.438011    27A     -0.423598
      28A     -0.420204    29A     -0.416069    30A     -0.402638
      31A     -0.398229    32A     -0.378433    33A     -0.368683
      34A     -0.341787    35A     -0.302336    36A     -0.254483
      37A     -0.235001    38A     -0.221071    39A     -0.213700

  @DF-RHF Final Energy:  -512.33500202903690

   => Energetics <=

    Nuclear Repulsion Energy =            533.5387490046542780
    One-Electron Energy =               -1772.1222841336982583
    Two-Electron Energy =                 726.2485331000069664
    Total Energy =                       -512.3350020290369002
  Basis Set: (AUG-CC-PVTZ AUX)
    Blend: AUG-CC-PVTZ-RI
    Molecular point group: c1

    Geometry (in Angstrom), charge = -1, multiplicity = 1:

       Center              X                  Y                   Z               Mass
    ------------   -----------------  -----------------  -----------------  -----------------
         O           -1.683630930769     1.299349741141    -0.543540680688    15.994914619570
         O            1.937922069231    -1.717771258859     0.213900319312    15.994914619570
         O            3.299082069231    -0.047784258859    -0.519824680688    15.994914619570
         N           -0.195980930769    -0.236667258859     0.253326319312    14.003074004430
         C            1.006333069231     0.472535741141    -0.152569680688    12.000000000000
         C            1.297076069231     1.661836741141     0.756678319312    12.000000000000
         C           -2.554336930769    -0.792316258859     0.332180319312    12.000000000000
         C           -1.464277830769     0.205395241141    -0.043973380688    12.000000000000
         C            2.191953069231    -0.529748258859    -0.155456680688    12.000000000000
         C           -3.916943530769    -0.301588058859    -0.138321280688    12.000000000000
         H            0.873841069231     0.839934741141    -1.179887680688     1.007825032230
         H           -0.013976930769    -1.212291258859     0.484284319312     1.007825032230
         H            1.448149069231     1.315525741141     1.784331319312     1.007825032230
         H            2.203927069231     2.170145741141     0.422539319312     1.007825032230
         H            0.460879069231     2.365153741141     0.742488319312     1.007825032230
         H           -2.313791930769    -1.769084258859    -0.103822680688     1.007825032230
         H           -2.540051930769    -0.933175258859     1.419246319312     1.007825032230
         H           -4.180784930769     0.638001741141     0.322791319312     1.007825032230
         H           -3.955032930769    -0.202254258859    -1.213306680688     1.007825032230
         H           -4.692915930769    -1.051255258859     0.156473319312     1.007825032230

  Basis Set: AUG-CC-PVTZ
    Blend: AUG-CC-PVTZ
  Basis Set: (AUG-CC-PVTZ AUX)
    Blend: AUG-CC-PVTZ-JKFIT
	 Reference Energy          =    -512.3350020290369002 [Eh]
	 Singles Energy            =      -0.0000000000000000 [Eh]
	 Same-Spin Energy          =      -0.5198609199400991 [Eh]
	 Opposite-Spin Energy      =      -1.6207703412507102 [Eh]
	 Correlation Energy        =      -2.1406312611908094 [Eh]
	 Total Energy              =    -514.4756332902277336 [Eh]

	 ================> DF-SCS-MP2 Energies <==================
	-----------------------------------------------------------
	 SCS Same-Spin Scale       =       0.3333333333333333 [-]
	 SCS Opposite-Spin Scale   =       1.2000000000000000 [-]
	 SCS Same-Spin Energy      =      -0.1732869733133663 [Eh]
	 SCS Opposite-Spin Energy  =      -1.9449244095008522 [Eh]
	 SCS Correlation Energy    =      -2.1182113828142186 [Eh]
	 SCS Total Energy          =    -514.4532134118511522 [Eh]
	-----------------------------------------------------------

  Dipole Moment: [D]
     X:    -8.8921      Y:     0.7590      Z:     1.5144     Total:     9.0520

*** Psi4 exiting successfully. Buy a developer a beer!
