                               Psi4 1.4a3.dev225

  ==> Input File <==

--------------------------------------------------------------------------
#psi4
#
memory 32 gb

molecule  {
-1 1
  O       -1.5868420     1.2523650    -0.8113290
  O        2.0299390    -1.6922460     0.2543140
  O        3.4074630     0.0142020    -0.3584910
  N       -0.1383540    -0.2870410     0.0455440
  C        1.0782140     0.4735880    -0.1782270
  C        1.2275190     1.6106150     0.8299030
  C       -2.4816390    -0.8906360    -0.1487800
  C       -1.3459097     0.1156667    -0.3287274
  C        2.2855270    -0.4976230    -0.0923730
  C       -3.7126180    -0.2515540     0.4884160
  H        1.0494870     0.8996880    -1.1894520
  H        0.0515970    -1.2513350     0.3145600
  H        1.2660770     1.2028380     1.8451460
  H        2.1536960     2.1558630     0.6353850
  H        0.3800930     2.2967220     0.7589720
  H       -2.7387560    -1.2794370    -1.1416750
  H       -2.1327770    -1.7398080     0.4477120
  H       -3.4838230     0.1112750     1.4946450
  H       -4.0489630     0.5957980    -0.1116680
  H       -4.5299760    -0.9736440     0.5641870
units angstrom
no_reorient  #important for SAPT in psi4, default
symmetry c1  #important for SAPT in psi4, default
}

set PROPERTIES_ORIGIN ["COM"]
properties('MP2/aug-cc-pvtz', properties = ['dipole'])
--------------------------------------------------------------------------

    Molecular point group: c1
  Charge       = -1
  Multiplicity = 1
  Basis Set: AUG-CC-PVTZ
    Blend: AUG-CC-PVTZ
  Basis Set: (AUG-CC-PVTZ AUX)
    Blend: AUG-CC-PVTZ-JKFIT

    Orbital Energies [Eh]
    ---------------------

    Doubly Occupied:

       1A    -20.383480     2A    -20.324842     3A    -20.316120
       4A    -15.445826     5A    -11.221016     6A    -11.164409
       7A    -11.134063     8A    -11.126353     9A    -11.117417
      10A    -11.078627    11A     -1.232384    12A     -1.192650
      13A     -1.101960    14A     -1.086007    15A     -0.948238
      16A     -0.882431    17A     -0.783026    18A     -0.727596
      19A     -0.646725    20A     -0.589442    21A     -0.545956
      22A     -0.522362    23A     -0.515602    24A     -0.480361
      25A     -0.465398    26A     -0.441888    27A     -0.435304
      28A     -0.419273    29A     -0.409589    30A     -0.407134
      31A     -0.395499    32A     -0.375737    33A     -0.370163
      34A     -0.341103    35A     -0.293676    36A     -0.260459
      37A     -0.239735    38A     -0.225117    39A     -0.217828

  @DF-RHF Final Energy:  -512.33601731251110

   => Energetics <=

    Nuclear Repulsion Energy =            534.4517663576317545
    One-Electron Energy =               -1773.8459775402504874
    Two-Electron Energy =                 727.0581938701075160
    Total Energy =                       -512.3360173125111032
  Basis Set: (AUG-CC-PVTZ AUX)
    Blend: AUG-CC-PVTZ-RI
    Molecular point group: c1

    Geometry (in Angstrom), charge = -1, multiplicity = 1:

       Center              X                  Y                   Z               Mass
    ------------   -----------------  -----------------  -----------------  -----------------
         O           -1.671092306662     1.266759261256    -0.786916425616    15.994914619570
         O            1.945688693338    -1.677851738744     0.278726574384    15.994914619570
         O            3.323212693338     0.028596261256    -0.334078425616    15.994914619570
         N           -0.222604306662    -0.272646738744     0.069956574384    14.003074004430
         C            0.993963693338     0.487982261256    -0.153814425616    12.000000000000
         C            1.143268693338     1.625009261256     0.854315574384    12.000000000000
         C           -2.565889306662    -0.876241738744    -0.124367425616    12.000000000000
         C           -1.430160006662     0.130060961256    -0.304314825616    12.000000000000
         C            2.201276693338    -0.483228738744    -0.067960425616    12.000000000000
         C           -3.796868306662    -0.237159738744     0.512828574384    12.000000000000
         H            0.965236693338     0.914082261256    -1.165039425616     1.007825032230
         H           -0.032653306662    -1.236940738744     0.338972574384     1.007825032230
         H            1.181826693338     1.217232261256     1.869558574384     1.007825032230
         H            2.069445693338     2.170257261256     0.659797574384     1.007825032230
         H            0.295842693338     2.311116261256     0.783384574384     1.007825032230
         H           -2.823006306662    -1.265042738744    -1.117262425616     1.007825032230
         H           -2.217027306662    -1.725413738744     0.472124574384     1.007825032230
         H           -3.568073306662     0.125669261256     1.519057574384     1.007825032230
         H           -4.133213306662     0.610192261256    -0.087255425616     1.007825032230
         H           -4.614226306662    -0.959249738744     0.588599574384     1.007825032230

  Basis Set: AUG-CC-PVTZ
    Blend: AUG-CC-PVTZ
  Basis Set: (AUG-CC-PVTZ AUX)
    Blend: AUG-CC-PVTZ-JKFIT
	 Reference Energy          =    -512.3360173125111032 [Eh]
	 Singles Energy            =      -0.0000000000000000 [Eh]
	 Same-Spin Energy          =      -0.5204708708656842 [Eh]
	 Opposite-Spin Energy      =      -1.6219016406471078 [Eh]
	 Correlation Energy        =      -2.1423725115127921 [Eh]
	 Total Energy              =    -514.4783898240239068 [Eh]

	 ================> DF-SCS-MP2 Energies <==================
	-----------------------------------------------------------
	 SCS Same-Spin Scale       =       0.3333333333333333 [-]
	 SCS Opposite-Spin Scale   =       1.2000000000000000 [-]
	 SCS Same-Spin Energy      =      -0.1734902902885614 [Eh]
	 SCS Opposite-Spin Energy  =      -1.9462819687765294 [Eh]
	 SCS Correlation Energy    =      -2.1197722590650909 [Eh]
	 SCS Total Energy          =    -514.4557895715762470 [Eh]
	-----------------------------------------------------------

  Dipole Moment: [D]
     X:    -8.4694      Y:     0.3286      Z:     1.2827     Total:     8.5723

*** Psi4 exiting successfully. Buy a developer a beer!
