                               Psi4 1.3.2 release

  ==> Input File <==

--------------------------------------------------------------------------
#psi4
#
memory 32 gb

molecule  {
-1 1
  O       -1.5864842     1.3183215    -0.5795742
  O        2.0191420    -1.7287390     0.1939930
  O        3.3751299    -0.0497389    -0.5433593
  N       -0.1147610    -0.2476350     0.2334190
  C        1.0875530     0.4615680    -0.1724770
  C        1.3782960     1.6508690     0.7367710
  C       -2.4731170    -0.8032840     0.3122730
  C       -1.3649450     0.1785500    -0.0525630
  C        2.2731730    -0.5407160    -0.1753640
  C       -3.8468580    -0.3344400    -0.1480570
  H        0.9550610     0.8289670    -1.1997950
  H        0.0672430    -1.2232590     0.4643770
  H        1.5293690     1.3045580     1.7644240
  H        2.2851470     2.1591780     0.4026320
  H        0.5420990     2.3541860     0.7225810
  H       -2.2325720    -1.7800520    -0.1237300
  H       -2.4588320    -0.9441430     1.3993390
  H       -4.0995650     0.6270340     0.3028840
  H       -3.8738130    -0.2132220    -1.2332140
  H       -4.6116960    -1.0622230     0.1365660
units angstrom
no_reorient  #important for SAPT in psi4, default
symmetry c1  #important for SAPT in psi4, default
}

set PROPERTIES_ORIGIN ["COM"]
properties('MP2/aug-cc-pvtz', properties = ['dipole'])
--------------------------------------------------------------------------

    Molecular point group: c1
  Charge       = -1
  Multiplicity = 1
  Basis Set: AUG-CC-PVTZ
    Blend: AUG-CC-PVTZ
  Basis Set: (AUG-CC-PVTZ AUX)
    Blend: AUG-CC-PVTZ-JKFIT

    Orbital Energies [Eh]
    ---------------------

    Doubly Occupied:

       1A    -20.390483     2A    -20.323559     3A    -20.314460
       4A    -15.441630     5A    -11.228372     6A    -11.162664
       7A    -11.138646     8A    -11.125323     9A    -11.114624
      10A    -11.075163    11A     -1.224667    12A     -1.190725
      13A     -1.096887    14A     -1.081558    15A     -0.951190
      16A     -0.878743    17A     -0.785368    18A     -0.721392
      19A     -0.641155    20A     -0.588279    21A     -0.541133
      22A     -0.533338    23A     -0.510538    24A     -0.478262
      25A     -0.465276    26A     -0.437009    27A     -0.426491
      28A     -0.418605    29A     -0.413184    30A     -0.404007
      31A     -0.396601    32A     -0.373598    33A     -0.369119
      34A     -0.339448    35A     -0.298923    36A     -0.257028
      37A     -0.238172    38A     -0.223243    39A     -0.216517

  @DF-RHF Final Energy:  -512.33140013209299

   => Energetics <=

    Nuclear Repulsion Energy =            532.6248201934630515
    One-Electron Energy =               -1770.2816844593744463
    Two-Electron Energy =                 725.3254641338182864
    Total Energy =                       -512.3314001320929947
  Basis Set: (AUG-CC-PVTZ AUX)
    Blend: AUG-CC-PVTZ-RI
    Molecular point group: c1

    Geometry (in Angstrom), charge = -1, multiplicity = 1:

       Center              X                  Y                   Z               Mass
    ------------   -----------------  -----------------  -----------------  -----------------
         O           -1.669479444773     1.328109899514    -0.559263704932    15.994914619570
         O            1.936146755227    -1.718950600486     0.214303495068    15.994914619570
         O            3.292134655227    -0.039950500486    -0.523048804932    15.994914619570
         N           -0.197756244773    -0.237846600486     0.253729495068    14.003074004430
         C            1.004557755227     0.471356399514    -0.152166504932    12.000000000000
         C            1.295300755227     1.660657399514     0.757081495068    12.000000000000
         C           -2.556112244773    -0.793495600486     0.332583495068    12.000000000000
         C           -1.447940244773     0.188338399514    -0.032252504932    12.000000000000
         C            2.190177755227    -0.530927600486    -0.155053504932    12.000000000000
         C           -3.929853244773    -0.324651600486    -0.127746504932    12.000000000000
         H            0.872065755227     0.838755399514    -1.179484504932     1.007825032230
         H           -0.015752244773    -1.213470600486     0.484687495068     1.007825032230
         H            1.446373755227     1.314346399514     1.784734495068     1.007825032230
         H            2.202151755227     2.168966399514     0.422942495068     1.007825032230
         H            0.459103755227     2.363974399514     0.742891495068     1.007825032230
         H           -2.315567244773    -1.770263600486    -0.103419504932     1.007825032230
         H           -2.541827244773    -0.934354600486     1.419649495068     1.007825032230
         H           -4.182560244773     0.636822399514     0.323194495068     1.007825032230
         H           -3.956808244773    -0.203433600486    -1.212903504932     1.007825032230
         H           -4.694691244773    -1.052434600486     0.156876495068     1.007825032230

  Basis Set: AUG-CC-PVTZ
    Blend: AUG-CC-PVTZ
  Basis Set: (AUG-CC-PVTZ AUX)
    Blend: AUG-CC-PVTZ-JKFIT
	 Reference Energy          =    -512.3314001320929947 [Eh]
	 Singles Energy            =      -0.0000000000000000 [Eh]
	 Same-Spin Energy          =      -0.5208802124792018 [Eh]
	 Opposite-Spin Energy      =      -1.6231366600822530 [Eh]
	 Correlation Energy        =      -2.1440168725614548 [Eh]
	 Total Energy              =    -514.4754170046544459 [Eh]

	 ================> DF-SCS-MP2 Energies <==================
	-----------------------------------------------------------
	 SCS Same-Spin Scale       =       0.3333333333333333 [-]
	 SCS Opposite-Spin Scale   =       1.2000000000000000 [-]
	 SCS Same-Spin Energy      =      -0.1736267374930673 [Eh]
	 SCS Opposite-Spin Energy  =      -1.9477639920987035 [Eh]
	 SCS Correlation Energy    =      -2.1213907295917709 [Eh]
	 SCS Total Energy          =    -514.4527908616847753 [Eh]
	-----------------------------------------------------------

  Dipole Moment: [D]
     X:    -8.6290      Y:     0.4632      Z:     1.6756     Total:     8.8024

*** Psi4 exiting successfully. Buy a developer a beer!
