                               Psi4 1.3.2 release

  ==> Input File <==

--------------------------------------------------------------------------
#psi4
#
memory 32 gb

molecule  {
-1 1
  O       -1.6024110     1.2883820    -0.5634480
  O        2.0191420    -1.7287390     0.1939930
  O        3.3803020    -0.0587520    -0.5397320
  N       -0.1147610    -0.2476350     0.2334190
  C        1.0875530     0.4615680    -0.1724770
  C        1.3782960     1.6508690     0.7367710
  C       -2.4731170    -0.8032840     0.3122730
  C       -1.3729529     0.1566082    -0.0492820
  C        2.2731730    -0.5407160    -0.1753640
  C       -3.8468580    -0.3344400    -0.1480570
  H        0.9550610     0.8289670    -1.1997950
  H        0.0499305    -1.2268008     0.4623738
  H        1.5293690     1.3045580     1.7644240
  H        2.2851470     2.1591780     0.4026320
  H        0.5420990     2.3541860     0.7225810
  H       -2.2325720    -1.7800520    -0.1237300
  H       -2.4588320    -0.9441430     1.3993390
  H       -4.0995650     0.6270340     0.3028840
  H       -3.8738130    -0.2132220    -1.2332140
  H       -4.6116960    -1.0622230     0.1365660
units angstrom
no_reorient  #important for SAPT in psi4, default
symmetry c1  #important for SAPT in psi4, default
}

set PROPERTIES_ORIGIN ["COM"]
properties('MP2/aug-cc-pvtz', properties = ['dipole'])
--------------------------------------------------------------------------

    Molecular point group: c1
  Charge       = -1
  Multiplicity = 1
  Basis Set: AUG-CC-PVTZ
    Blend: AUG-CC-PVTZ
  Basis Set: (AUG-CC-PVTZ AUX)
    Blend: AUG-CC-PVTZ-JKFIT

    Orbital Energies [Eh]
    ---------------------

    Doubly Occupied:

       1A    -20.388845     2A    -20.321816     3A    -20.313683
       4A    -15.439915     5A    -11.224382     6A    -11.161898
       7A    -11.136922     8A    -11.125503     9A    -11.115606
      10A    -11.075507    11A     -1.230625    12A     -1.190018
      13A     -1.095732    14A     -1.080401    15A     -0.953204
      16A     -0.879393    17A     -0.787485    18A     -0.721797
      19A     -0.637880    20A     -0.589326    21A     -0.543278
      22A     -0.534930    23A     -0.511041    24A     -0.479119
      25A     -0.465214    26A     -0.437563    27A     -0.427367
      28A     -0.419240    29A     -0.412580    30A     -0.403645
      31A     -0.396603    32A     -0.374379    33A     -0.369231
      34A     -0.339708    35A     -0.299533    36A     -0.256449
      37A     -0.236465    38A     -0.223031    39A     -0.215331

  @DF-RHF Final Energy:  -512.33326536239622

   => Energetics <=

    Nuclear Repulsion Energy =            533.2523473401100773
    One-Electron Energy =               -1771.5419386377016053
    Two-Electron Energy =                 725.9563259351951956
    Total Energy =                       -512.3332653623962187
  Basis Set: (AUG-CC-PVTZ AUX)
    Blend: AUG-CC-PVTZ-RI
    Molecular point group: c1

    Geometry (in Angstrom), charge = -1, multiplicity = 1:

       Center              X                  Y                   Z               Mass
    ------------   -----------------  -----------------  -----------------  -----------------
         O           -1.683424075878     1.304347528085    -0.545589912187    15.994914619570
         O            1.938128924122    -1.712773471915     0.211851087813    15.994914619570
         O            3.299288924122    -0.042786471915    -0.521873912187    15.994914619570
         N           -0.195774075878    -0.231669471915     0.251277087813    14.003074004430
         C            1.006539924122     0.477533528085    -0.154618912187    12.000000000000
         C            1.297282924122     1.666834528085     0.754629087813    12.000000000000
         C           -2.554130075878    -0.787318471915     0.330131087813    12.000000000000
         C           -1.453965975878     0.172573728085    -0.031423912187    12.000000000000
         C            2.192159924122    -0.524750471915    -0.157505912187    12.000000000000
         C           -3.927871075878    -0.318474471915    -0.130198912187    12.000000000000
         H            0.874047924122     0.844932528085    -1.181936912187     1.007825032230
         H           -0.031082575878    -1.210835271915     0.480231887813     1.007825032230
         H            1.448355924122     1.320523528085     1.782282087813     1.007825032230
         H            2.204133924122     2.175143528085     0.420490087813     1.007825032230
         H            0.461085924122     2.370151528085     0.740439087813     1.007825032230
         H           -2.313585075878    -1.764086471915    -0.105871912187     1.007825032230
         H           -2.539845075878    -0.928177471915     1.417197087813     1.007825032230
         H           -4.180578075878     0.642999528085     0.320742087813     1.007825032230
         H           -3.954826075878    -0.197256471915    -1.215355912187     1.007825032230
         H           -4.692709075878    -1.046257471915     0.154424087813     1.007825032230

  Basis Set: AUG-CC-PVTZ
    Blend: AUG-CC-PVTZ
  Basis Set: (AUG-CC-PVTZ AUX)
    Blend: AUG-CC-PVTZ-JKFIT
	 Reference Energy          =    -512.3332653623962187 [Eh]
	 Singles Energy            =      -0.0000000000000000 [Eh]
	 Same-Spin Energy          =      -0.5205807399411877 [Eh]
	 Opposite-Spin Energy      =      -1.6222235371680407 [Eh]
	 Correlation Energy        =      -2.1428042771092284 [Eh]
	 Total Energy              =    -514.4760696395054538 [Eh]

	 ================> DF-SCS-MP2 Energies <==================
	-----------------------------------------------------------
	 SCS Same-Spin Scale       =       0.3333333333333333 [-]
	 SCS Opposite-Spin Scale   =       1.2000000000000000 [-]
	 SCS Same-Spin Energy      =      -0.1735269133137292 [Eh]
	 SCS Opposite-Spin Energy  =      -1.9466682446016488 [Eh]
	 SCS Correlation Energy    =      -2.1201951579153779 [Eh]
	 SCS Total Energy          =    -514.4534605203116371 [Eh]
	-----------------------------------------------------------

  Dipole Moment: [D]
     X:    -8.7273      Y:     0.5210      Z:     1.6449     Total:     8.8963

*** Psi4 exiting successfully. Buy a developer a beer!
