                               Psi4 1.3.2 release

  ==> Input File <==

--------------------------------------------------------------------------
#psi4
#
memory 32 gb

molecule  {
-1 1
  O       -1.6024110     1.2883820    -0.5634480
  O        2.0191420    -1.7287390     0.1939930
  O        3.3803020    -0.0587520    -0.5397320
  N       -0.1147610    -0.2476350     0.2334190
  C        1.0875530     0.4615680    -0.1724770
  C        1.3782960     1.6508690     0.7367710
  C       -2.4731170    -0.8032840     0.3122730
  C       -1.3524423     0.1591526    -0.0658176
  C        2.2731730    -0.5407160    -0.1753640
  C       -3.8468580    -0.3344400    -0.1480570
  H        0.9550610     0.8289670    -1.1997950
  H        0.0672430    -1.2232590     0.4643770
  H        1.5293690     1.3045580     1.7644240
  H        2.2851470     2.1591780     0.4026320
  H        0.5420990     2.3541860     0.7225810
  H       -2.2165227    -1.7726421    -0.1310558
  H       -2.4588320    -0.9441430     1.3993390
  H       -4.0995650     0.6270340     0.3028840
  H       -3.8738130    -0.2132220    -1.2332140
  H       -4.6116960    -1.0622230     0.1365660
units angstrom
no_reorient  #important for SAPT in psi4, default
symmetry c1  #important for SAPT in psi4, default
}

set PROPERTIES_ORIGIN ["COM"]
properties('MP2/aug-cc-pvtz', properties = ['dipole'])
--------------------------------------------------------------------------

    Molecular point group: c1
  Charge       = -1
  Multiplicity = 1
  Basis Set: AUG-CC-PVTZ
    Blend: AUG-CC-PVTZ
  Basis Set: (AUG-CC-PVTZ AUX)
    Blend: AUG-CC-PVTZ-JKFIT

    Orbital Energies [Eh]
    ---------------------

    Doubly Occupied:

       1A    -20.387788     2A    -20.323384     3A    -20.314692
       4A    -15.441010     5A    -11.222589     6A    -11.162989
       7A    -11.135452     8A    -11.124103     9A    -11.116269
      10A    -11.076301    11A     -1.233123    12A     -1.191393
      13A     -1.099013    14A     -1.083705    15A     -0.948780
      16A     -0.880727    17A     -0.784611    18A     -0.722896
      19A     -0.641531    20A     -0.588274    21A     -0.541975
      22A     -0.533591    23A     -0.511298    24A     -0.479606
      25A     -0.466444    26A     -0.438741    27A     -0.426730
      28A     -0.419112    29A     -0.411965    30A     -0.404203
      31A     -0.396363    32A     -0.375299    33A     -0.369923
      34A     -0.340795    35A     -0.296951    36A     -0.258898
      37A     -0.237960    38A     -0.224048    39A     -0.216649

  @DF-RHF Final Energy:  -512.33479517736873

   => Energetics <=

    Nuclear Repulsion Energy =            533.4876696920773611
    One-Electron Energy =               -1771.9865756042604517
    Two-Electron Energy =                 726.1641107348143578
    Total Energy =                       -512.3347951773687328
  Basis Set: (AUG-CC-PVTZ AUX)
    Blend: AUG-CC-PVTZ-RI
    Molecular point group: c1

    Geometry (in Angstrom), charge = -1, multiplicity = 1:

       Center              X                  Y                   Z               Mass
    ------------   -----------------  -----------------  -----------------  -----------------
         O           -1.685365893689     1.304058978547    -0.544175342802    15.994914619570
         O            1.936187106311    -1.713062021453     0.213265657198    15.994914619570
         O            3.297347106311    -0.043075021453    -0.520459342802    15.994914619570
         N           -0.197715893689    -0.231958021453     0.252691657198    14.003074004430
         C            1.004598106311     0.477244978547    -0.153204342802    12.000000000000
         C            1.295341106311     1.666545978547     0.756043657198    12.000000000000
         C           -2.556071893689    -0.787607021453     0.331545657198    12.000000000000
         C           -1.435397193689     0.174829578547    -0.046544942802    12.000000000000
         C            2.190218106311    -0.525039021453    -0.156091342802    12.000000000000
         C           -3.929812893689    -0.318763021453    -0.128784342802    12.000000000000
         H            0.872106106311     0.844643978547    -1.180522342802     1.007825032230
         H           -0.015711893689    -1.207582021453     0.483649657198     1.007825032230
         H            1.446414106311     1.320234978547     1.783696657198     1.007825032230
         H            2.202192106311     2.174854978547     0.421904657198     1.007825032230
         H            0.459144106311     2.369862978547     0.741853657198     1.007825032230
         H           -2.299477593689    -1.756965121453    -0.111783142802     1.007825032230
         H           -2.541786893689    -0.928466021453     1.418611657198     1.007825032230
         H           -4.182519893689     0.642710978547     0.322156657198     1.007825032230
         H           -3.956767893689    -0.197545021453    -1.213941342802     1.007825032230
         H           -4.694650893689    -1.046546021453     0.155838657198     1.007825032230

  Basis Set: AUG-CC-PVTZ
    Blend: AUG-CC-PVTZ
  Basis Set: (AUG-CC-PVTZ AUX)
    Blend: AUG-CC-PVTZ-JKFIT
	 Reference Energy          =    -512.3347951773687328 [Eh]
	 Singles Energy            =      -0.0000000000000000 [Eh]
	 Same-Spin Energy          =      -0.5203710233648310 [Eh]
	 Opposite-Spin Energy      =      -1.6217777686067776 [Eh]
	 Correlation Energy        =      -2.1421487919716085 [Eh]
	 Total Energy              =    -514.4769439693403683 [Eh]

	 ================> DF-SCS-MP2 Energies <==================
	-----------------------------------------------------------
	 SCS Same-Spin Scale       =       0.3333333333333333 [-]
	 SCS Opposite-Spin Scale   =       1.2000000000000000 [-]
	 SCS Same-Spin Energy      =      -0.1734570077882770 [Eh]
	 SCS Opposite-Spin Energy  =      -1.9461333223281330 [Eh]
	 SCS Correlation Energy    =      -2.1195903301164098 [Eh]
	 SCS Total Energy          =    -514.4543855074851990 [Eh]
	-----------------------------------------------------------

  Dipole Moment: [D]
     X:    -8.5523      Y:     0.5525      Z:     1.6291     Total:     8.7236

*** Psi4 exiting successfully. Buy a developer a beer!
