                               Psi4 1.4a3.dev225

  ==> Input File <==

--------------------------------------------------------------------------
#psi4
#
memory 32 gb

molecule  {
-1 1
  O       -1.5868420     1.2523650    -0.8113290
  O        2.0299390    -1.6922460     0.2543140
  O        3.4074630     0.0142020    -0.3584910
  N       -0.1383540    -0.2870410     0.0455440
  C        1.0782140     0.4735880    -0.1782270
  C        1.2275190     1.6106150     0.8299030
  C       -2.4816390    -0.8906360    -0.1487800
  C       -1.3494007     0.1350640    -0.3368121
  C        2.2855270    -0.4976230    -0.0923730
  C       -3.7126180    -0.2515540     0.4884160
  H        1.0494870     0.8996880    -1.1894520
  H        0.0515970    -1.2513350     0.3145600
  H        1.2660770     1.2028380     1.8451460
  H        2.1536960     2.1558630     0.6353850
  H        0.3800930     2.2967220     0.7589720
  H       -2.7387560    -1.2794370    -1.1416750
  H       -2.1327770    -1.7398080     0.4477120
  H       -3.4838230     0.1112750     1.4946450
  H       -4.0489630     0.5957980    -0.1116680
  H       -4.5299760    -0.9736440     0.5641870
units angstrom
no_reorient  #important for SAPT in psi4, default
symmetry c1  #important for SAPT in psi4, default
}

set PROPERTIES_ORIGIN ["COM"]
properties('MP2/aug-cc-pvtz', properties = ['dipole'])
--------------------------------------------------------------------------

    Molecular point group: c1
  Charge       = -1
  Multiplicity = 1
  Basis Set: AUG-CC-PVTZ
    Blend: AUG-CC-PVTZ
  Basis Set: (AUG-CC-PVTZ AUX)
    Blend: AUG-CC-PVTZ-JKFIT

    Orbital Energies [Eh]
    ---------------------

    Doubly Occupied:

       1A    -20.388220     2A    -20.323897     3A    -20.315229
       4A    -15.442514     5A    -11.221228     6A    -11.163374
       7A    -11.133197     8A    -11.126006     9A    -11.115802
      10A    -11.078011    11A     -1.244562    12A     -1.192072
      13A     -1.100581    14A     -1.084612    15A     -0.946661
      16A     -0.880210    17A     -0.780886    18A     -0.725401
      19A     -0.645456    20A     -0.588565    21A     -0.545719
      22A     -0.521343    23A     -0.515036    24A     -0.485636
      25A     -0.464696    26A     -0.442879    27A     -0.434533
      28A     -0.419023    29A     -0.411648    30A     -0.406486
      31A     -0.395132    32A     -0.377390    33A     -0.370056
      34A     -0.342376    35A     -0.295147    36A     -0.260196
      37A     -0.238816    38A     -0.224046    39A     -0.216879

  @DF-RHF Final Energy:  -512.33753048175890

   => Energetics <=

    Nuclear Repulsion Energy =            534.4987653189419916
    One-Electron Energy =               -1773.9455476191253638
    Two-Electron Energy =                 727.1092518184243545
    Total Energy =                       -512.3375304817589040
  Basis Set: (AUG-CC-PVTZ AUX)
    Blend: AUG-CC-PVTZ-RI
    Molecular point group: c1

    Geometry (in Angstrom), charge = -1, multiplicity = 1:

       Center              X                  Y                   Z               Mass
    ------------   -----------------  -----------------  -----------------  -----------------
         O           -1.670801523409     1.265143560884    -0.786243009584    15.994914619570
         O            1.945979476591    -1.679467439116     0.279399990416    15.994914619570
         O            3.323503476591     0.026980560884    -0.333405009584    15.994914619570
         N           -0.222313523409    -0.274262439116     0.070629990416    14.003074004430
         C            0.994254476591     0.486366560884    -0.153141009584    12.000000000000
         C            1.143559476591     1.623393560884     0.854988990416    12.000000000000
         C           -2.565598523409    -0.877857439116    -0.123694009584    12.000000000000
         C           -1.433360223409     0.147842560884    -0.311726109584    12.000000000000
         C            2.201567476591    -0.484844439116    -0.067287009584    12.000000000000
         C           -3.796577523409    -0.238775439116     0.513501990416    12.000000000000
         H            0.965527476591     0.912466560884    -1.164366009584     1.007825032230
         H           -0.032362523409    -1.238556439116     0.339645990416     1.007825032230
         H            1.182117476591     1.215616560884     1.870231990416     1.007825032230
         H            2.069736476591     2.168641560884     0.660470990416     1.007825032230
         H            0.296133476591     2.309500560884     0.784057990416     1.007825032230
         H           -2.822715523409    -1.266658439116    -1.116589009584     1.007825032230
         H           -2.216736523409    -1.727029439116     0.472797990416     1.007825032230
         H           -3.567782523409     0.124053560884     1.519730990416     1.007825032230
         H           -4.132922523409     0.608576560884    -0.086582009584     1.007825032230
         H           -4.613935523409    -0.960865439116     0.589272990416     1.007825032230

  Basis Set: AUG-CC-PVTZ
    Blend: AUG-CC-PVTZ
  Basis Set: (AUG-CC-PVTZ AUX)
    Blend: AUG-CC-PVTZ-JKFIT
	 Reference Energy          =    -512.3375304817589040 [Eh]
	 Singles Energy            =      -0.0000000000000000 [Eh]
	 Same-Spin Energy          =      -0.5201185203117586 [Eh]
	 Opposite-Spin Energy      =      -1.6211845509335050 [Eh]
	 Correlation Energy        =      -2.1413030712452636 [Eh]
	 Total Energy              =    -514.4788335530041650 [Eh]

	 ================> DF-SCS-MP2 Energies <==================
	-----------------------------------------------------------
	 SCS Same-Spin Scale       =       0.3333333333333333 [-]
	 SCS Opposite-Spin Scale   =       1.2000000000000000 [-]
	 SCS Same-Spin Energy      =      -0.1733728401039195 [Eh]
	 SCS Opposite-Spin Energy  =      -1.9454214611202059 [Eh]
	 SCS Correlation Energy    =      -2.1187943012241255 [Eh]
	 SCS Total Energy          =    -514.4563247829830743 [Eh]
	-----------------------------------------------------------

  Dipole Moment: [D]
     X:    -8.5586      Y:     0.4475      Z:     1.2119     Total:     8.6556

*** Psi4 exiting successfully. Buy a developer a beer!
