                               Psi4 1.3.2 release

  ==> Input File <==

--------------------------------------------------------------------------
#psi4
#
memory 32 gb

molecule  {
-1 1
  O       -1.6024110     1.2883820    -0.5634480
  O        2.0191420    -1.7287390     0.1939930
  O        3.3803020    -0.0587520    -0.5397320
  N       -0.1147610    -0.2476350     0.2334190
  C        1.2529659     0.5591393    -0.2283197
  C        1.3782960     1.6508690     0.7367710
  C       -2.4731170    -0.8032840     0.3122730
  C       -1.3649450     0.1785500    -0.0525630
  C        2.2731730    -0.5407160    -0.1753640
  C       -3.8468580    -0.3344400    -0.1480570
  H        0.9550610     0.8289670    -1.1997950
  H        0.0672430    -1.2232590     0.4643770
  H        1.5293690     1.3045580     1.7644240
  H        2.2851470     2.1591780     0.4026320
  H        0.5420990     2.3541860     0.7225810
  H       -2.2325720    -1.7800520    -0.1237300
  H       -2.4588320    -0.9441430     1.3993390
  H       -4.0995650     0.6270340     0.3028840
  H       -3.8738130    -0.2132220    -1.2332140
  H       -4.6116960    -1.0622230     0.1365660
units angstrom
no_reorient  #important for SAPT in psi4, default
symmetry c1  #important for SAPT in psi4, default
}

set PROPERTIES_ORIGIN ["COM"]
properties('MP2/aug-cc-pvtz', properties = ['dipole'])
--------------------------------------------------------------------------

    Molecular point group: c1
  Charge       = -1
  Multiplicity = 1
  Basis Set: AUG-CC-PVTZ
    Blend: AUG-CC-PVTZ
  Basis Set: (AUG-CC-PVTZ AUX)
    Blend: AUG-CC-PVTZ-JKFIT

    Orbital Energies [Eh]
    ---------------------

    Doubly Occupied:

       1A    -20.380183     2A    -20.328349     3A    -20.317054
       4A    -15.420515     5A    -11.211133     6A    -11.165892
       7A    -11.130506     8A    -11.127153     9A    -11.118465
      10A    -11.082462    11A     -1.228518    12A     -1.197401
      13A     -1.096796    14A     -1.050600    15A     -0.941338
      16A     -0.898552    17A     -0.773750    18A     -0.728049
      19A     -0.625813    20A     -0.581363    21A     -0.542500
      22A     -0.523788    23A     -0.499806    24A     -0.481072
      25A     -0.469662    26A     -0.440777    27A     -0.429123
      28A     -0.423117    29A     -0.415804    30A     -0.406719
      31A     -0.395969    32A     -0.372641    33A     -0.354796
      34A     -0.340933    35A     -0.287231    36A     -0.252261
      37A     -0.243727    38A     -0.227550    39A     -0.218718

  @DF-RHF Final Energy:  -512.30545387910729

   => Energetics <=

    Nuclear Repulsion Energy =            531.7620120395630465
    One-Electron Energy =               -1768.6747585671710112
    Two-Electron Energy =                 724.6072926485005610
    Total Energy =                       -512.3054538791072900
  Basis Set: (AUG-CC-PVTZ AUX)
    Blend: AUG-CC-PVTZ-RI
    Molecular point group: c1

    Geometry (in Angstrom), charge = -1, multiplicity = 1:

       Center              X                  Y                   Z               Mass
    ------------   -----------------  -----------------  -----------------  -----------------
         O           -1.697990292596     1.294367893513    -0.540679210217    15.994914619570
         O            1.923562707404    -1.722753106487     0.216761789783    15.994914619570
         O            3.284722707404    -0.052766106487    -0.516963210217    15.994914619570
         N           -0.210340292596    -0.241649106487     0.256187789783    14.003074004430
         C            1.157386607404     0.565125193513    -0.205550910217    12.000000000000
         C            1.282716707404     1.656854893513     0.759539789783    12.000000000000
         C           -2.568696292596    -0.797298106487     0.335041789783    12.000000000000
         C           -1.460524292596     0.184535893513    -0.029794210217    12.000000000000
         C            2.177593707404    -0.534730106487    -0.152595210217    12.000000000000
         C           -3.942437292596    -0.328454106487    -0.125288210217    12.000000000000
         H            0.859481707404     0.834952893513    -1.177026210217     1.007825032230
         H           -0.028336292596    -1.217273106487     0.487145789783     1.007825032230
         H            1.433789707404     1.310543893513     1.787192789783     1.007825032230
         H            2.189567707404     2.165163893513     0.425400789783     1.007825032230
         H            0.446519707404     2.360171893513     0.745349789783     1.007825032230
         H           -2.328151292596    -1.774066106487    -0.100961210217     1.007825032230
         H           -2.554411292596    -0.938157106487     1.422107789783     1.007825032230
         H           -4.195144292596     0.633019893513     0.325652789783     1.007825032230
         H           -3.969392292596    -0.207236106487    -1.210445210217     1.007825032230
         H           -4.707275292596    -1.056237106487     0.159334789783     1.007825032230

  Basis Set: AUG-CC-PVTZ
    Blend: AUG-CC-PVTZ
  Basis Set: (AUG-CC-PVTZ AUX)
    Blend: AUG-CC-PVTZ-JKFIT
	 Reference Energy          =    -512.3054538791072900 [Eh]
	 Singles Energy            =      -0.0000000000000000 [Eh]
	 Same-Spin Energy          =      -0.5209885869815161 [Eh]
	 Opposite-Spin Energy      =      -1.6240819408053597 [Eh]
	 Correlation Energy        =      -2.1450705277868760 [Eh]
	 Total Energy              =    -514.4505244068941465 [Eh]

	 ================> DF-SCS-MP2 Energies <==================
	-----------------------------------------------------------
	 SCS Same-Spin Scale       =       0.3333333333333333 [-]
	 SCS Opposite-Spin Scale   =       1.2000000000000000 [-]
	 SCS Same-Spin Energy      =      -0.1736628623271720 [Eh]
	 SCS Opposite-Spin Energy  =      -1.9488983289664317 [Eh]
	 SCS Correlation Energy    =      -2.1225611912936038 [Eh]
	 SCS Total Energy          =    -514.4280150704008747 [Eh]
	-----------------------------------------------------------

  Dipole Moment: [D]
     X:    -7.8776      Y:     0.8933      Z:     1.5638     Total:     8.0808

*** Psi4 exiting successfully. Buy a developer a beer!
