                               Psi4 1.3.2 release

  ==> Input File <==

--------------------------------------------------------------------------
#psi4
#
memory 32 gb

molecule  {
-1 1
  O       -1.6024110     1.2883820    -0.5634480
  O        2.0191420    -1.7287390     0.1939930
  O        3.3803020    -0.0587520    -0.5397320
  N       -0.1147610    -0.2476350     0.2334190
  C        1.0875530     0.4615680    -0.1724770
  C        1.3782960     1.6508690     0.7367710
  C       -2.4731170    -0.8032840     0.3122730
  C       -1.5102939     0.0497717    -0.0047108
  C        2.2731730    -0.5407160    -0.1753640
  C       -3.8468580    -0.3344400    -0.1480570
  H        0.9550610     0.8289670    -1.1997950
  H        0.0672430    -1.2232590     0.4643770
  H        1.5293690     1.3045580     1.7644240
  H        2.2851470     2.1591780     0.4026320
  H        0.5420990     2.3541860     0.7225810
  H       -2.2325720    -1.7800520    -0.1237300
  H       -2.4588320    -0.9441430     1.3993390
  H       -4.0995650     0.6270340     0.3028840
  H       -3.8738130    -0.2132220    -1.2332140
  H       -4.6116960    -1.0622230     0.1365660
units angstrom
no_reorient  #important for SAPT in psi4, default
symmetry c1  #important for SAPT in psi4, default
}

set PROPERTIES_ORIGIN ["COM"]
properties('MP2/aug-cc-pvtz', properties = ['dipole'])
--------------------------------------------------------------------------

    Molecular point group: c1
  Charge       = -1
  Multiplicity = 1
  Basis Set: AUG-CC-PVTZ
    Blend: AUG-CC-PVTZ
  Basis Set: (AUG-CC-PVTZ AUX)
    Blend: AUG-CC-PVTZ-JKFIT

    Orbital Energies [Eh]
    ---------------------

    Doubly Occupied:

       1A    -20.386570     2A    -20.316944     3A    -20.310200
       4A    -15.435090     5A    -11.239121     6A    -11.158048
       7A    -11.142692     8A    -11.136860     9A    -11.111879
      10A    -11.069520    11A     -1.190504    12A     -1.179924
      13A     -1.086698    14A     -1.051731    15A     -0.997488
      16A     -0.872166    17A     -0.817099    18A     -0.713808
      19A     -0.631722    20A     -0.585822    21A     -0.558586
      22A     -0.549572    23A     -0.504350    24A     -0.470366
      25A     -0.462516    26A     -0.442309    27A     -0.433836
      28A     -0.422724    29A     -0.401897    30A     -0.395643
      31A     -0.390391    32A     -0.367493    33A     -0.354209
      34A     -0.324580    35A     -0.296378    36A     -0.241561
      37A     -0.230978    38A     -0.218823    39A     -0.209811

  @DF-RHF Final Energy:  -512.26202772981810

   => Energetics <=

    Nuclear Repulsion Energy =            531.9840746941050611
    One-Electron Energy =               -1769.0723891461873336
    Two-Electron Energy =                 724.8262867222640580
    Total Energy =                       -512.2620277298181009
  Basis Set: (AUG-CC-PVTZ AUX)
    Blend: AUG-CC-PVTZ-RI
    Molecular point group: c1

    Geometry (in Angstrom), charge = -1, multiplicity = 1:

       Center              X                  Y                   Z               Mass
    ------------   -----------------  -----------------  -----------------  -----------------
         O           -1.672105352117     1.313221709920    -0.549316489041    15.994914619570
         O            1.949447647883    -1.703899290080     0.208124510959    15.994914619570
         O            3.310607647883    -0.033912290080    -0.525600489041    15.994914619570
         N           -0.184455352117    -0.222795290080     0.247550510959    14.003074004430
         C            1.017858647883     0.486407709920    -0.158345489041    12.000000000000
         C            1.308601647883     1.675708709920     0.750902510959    12.000000000000
         C           -2.542811352117    -0.778444290080     0.326404510959    12.000000000000
         C           -1.579988252117     0.074611409920     0.009420710959    12.000000000000
         C            2.203478647883    -0.515876290080    -0.161232489041    12.000000000000
         C           -3.916552352117    -0.309600290080    -0.133925489041    12.000000000000
         H            0.885366647883     0.853806709920    -1.185663489041     1.007825032230
         H           -0.002451352117    -1.198419290080     0.478508510959     1.007825032230
         H            1.459674647883     1.329397709920     1.778555510959     1.007825032230
         H            2.215452647883     2.184017709920     0.416763510959     1.007825032230
         H            0.472404647883     2.379025709920     0.736712510959     1.007825032230
         H           -2.302266352117    -1.755212290080    -0.109598489041     1.007825032230
         H           -2.528526352117    -0.919303290080     1.413470510959     1.007825032230
         H           -4.169259352117     0.651873709920     0.317015510959     1.007825032230
         H           -3.943507352117    -0.188382290080    -1.219082489041     1.007825032230
         H           -4.681390352117    -1.037383290080     0.150697510959     1.007825032230

  Basis Set: AUG-CC-PVTZ
    Blend: AUG-CC-PVTZ
  Basis Set: (AUG-CC-PVTZ AUX)
    Blend: AUG-CC-PVTZ-JKFIT
	 Reference Energy          =    -512.2620277298181009 [Eh]
	 Singles Energy            =      -0.0000000000000000 [Eh]
	 Same-Spin Energy          =      -0.5257580149556896 [Eh]
	 Opposite-Spin Energy      =      -1.6318717345497165 [Eh]
	 Correlation Energy        =      -2.1576297495054062 [Eh]
	 Total Energy              =    -514.4196574793235186 [Eh]

	 ================> DF-SCS-MP2 Energies <==================
	-----------------------------------------------------------
	 SCS Same-Spin Scale       =       0.3333333333333333 [-]
	 SCS Opposite-Spin Scale   =       1.2000000000000000 [-]
	 SCS Same-Spin Energy      =      -0.1752526716518965 [Eh]
	 SCS Opposite-Spin Energy  =      -1.9582460814596596 [Eh]
	 SCS Correlation Energy    =      -2.1334987531115561 [Eh]
	 SCS Total Energy          =    -514.3955264829296539 [Eh]
	-----------------------------------------------------------

  Dipole Moment: [D]
     X:    -9.5415      Y:     0.0503      Z:     1.7881     Total:     9.7078

*** Psi4 exiting successfully. Buy a developer a beer!
