                               Psi4 1.3.2 release

  ==> Input File <==

--------------------------------------------------------------------------
#psi4
#
memory 32 gb

molecule  {
-1 1
  O       -1.6024110     1.2883820    -0.5634480
  O        2.0191420    -1.7287390     0.1939930
  O        3.3803020    -0.0587520    -0.5397320
  N       -0.1147610    -0.2476350     0.2334190
  C        0.9221401     0.3639967    -0.1166343
  C        1.3782960     1.6508690     0.7367710
  C       -2.4731170    -0.8032840     0.3122730
  C       -1.3649450     0.1785500    -0.0525630
  C        2.2731730    -0.5407160    -0.1753640
  C       -3.8468580    -0.3344400    -0.1480570
  H        0.9550610     0.8289670    -1.1997950
  H        0.0672430    -1.2232590     0.4643770
  H        1.5293690     1.3045580     1.7644240
  H        2.2851470     2.1591780     0.4026320
  H        0.5420990     2.3541860     0.7225810
  H       -2.2325720    -1.7800520    -0.1237300
  H       -2.4588320    -0.9441430     1.3993390
  H       -4.0995650     0.6270340     0.3028840
  H       -3.8738130    -0.2132220    -1.2332140
  H       -4.6116960    -1.0622230     0.1365660
units angstrom
no_reorient  #important for SAPT in psi4, default
symmetry c1  #important for SAPT in psi4, default
}

set PROPERTIES_ORIGIN ["COM"]
properties('MP2/aug-cc-pvtz', properties = ['dipole'])
--------------------------------------------------------------------------

    Molecular point group: c1
  Charge       = -1
  Multiplicity = 1
  Basis Set: AUG-CC-PVTZ
    Blend: AUG-CC-PVTZ
  Basis Set: (AUG-CC-PVTZ AUX)
    Blend: AUG-CC-PVTZ-JKFIT

    Orbital Energies [Eh]
    ---------------------

    Doubly Occupied:

       1A    -20.402765     2A    -20.319708     3A    -20.316384
       4A    -15.444040     5A    -11.232892     6A    -11.164510
       7A    -11.141468     8A    -11.128683     9A    -11.110052
      10A    -11.070622    11A     -1.257891    12A     -1.190617
      13A     -1.143319    14A     -1.086229    15A     -0.957613
      16A     -0.861828    17A     -0.792971    18A     -0.725044
      19A     -0.650850    20A     -0.605655    21A     -0.563695
      22A     -0.538987    23A     -0.505130    24A     -0.492377
      25A     -0.472251    26A     -0.431491    27A     -0.429719
      28A     -0.421046    29A     -0.416302    30A     -0.408464
      31A     -0.391317    32A     -0.379511    33A     -0.362490
      34A     -0.338103    35A     -0.309584    36A     -0.238226
      37A     -0.232500    38A     -0.216105    39A     -0.206042

  @DF-RHF Final Energy:  -512.28347715732298

   => Energetics <=

    Nuclear Repulsion Energy =            535.4346973655401598
    One-Electron Energy =               -1775.5233887481360853
    Two-Electron Energy =                 727.8052142252729482
    Total Energy =                       -512.2834771573229773
  Basis Set: (AUG-CC-PVTZ AUX)
    Blend: AUG-CC-PVTZ-RI
    Molecular point group: c1

    Geometry (in Angstrom), charge = -1, multiplicity = 1:

       Center              X                  Y                   Z               Mass
    ------------   -----------------  -----------------  -----------------  -----------------
         O           -1.670434118890     1.310622319205    -0.549982058673    15.994914619570
         O            1.951118881110    -1.706498680795     0.207458941327    15.994914619570
         O            3.312278881110    -0.036511680795    -0.526266058673    15.994914619570
         N           -0.182784118890    -0.225394680795     0.246884941327    14.003074004430
         C            0.854116981110     0.386237019205    -0.103168358673    12.000000000000
         C            1.310272881110     1.673109319205     0.750236941327    12.000000000000
         C           -2.541140118890    -0.781043680795     0.325738941327    12.000000000000
         C           -1.432968118890     0.200790319205    -0.039097058673    12.000000000000
         C            2.205149881110    -0.518475680795    -0.161898058673    12.000000000000
         C           -3.914881118890    -0.312199680795    -0.134591058673    12.000000000000
         H            0.887037881110     0.851207319205    -1.186329058673     1.007825032230
         H           -0.000780118890    -1.201018680795     0.477842941327     1.007825032230
         H            1.461345881110     1.326798319205     1.777889941327     1.007825032230
         H            2.217123881110     2.181418319205     0.416097941327     1.007825032230
         H            0.474075881110     2.376426319205     0.736046941327     1.007825032230
         H           -2.300595118890    -1.757811680795    -0.110264058673     1.007825032230
         H           -2.526855118890    -0.921902680795     1.412804941327     1.007825032230
         H           -4.167588118890     0.649274319205     0.316349941327     1.007825032230
         H           -3.941836118890    -0.190981680795    -1.219748058673     1.007825032230
         H           -4.679719118890    -1.039982680795     0.150031941327     1.007825032230

  Basis Set: AUG-CC-PVTZ
    Blend: AUG-CC-PVTZ
  Basis Set: (AUG-CC-PVTZ AUX)
    Blend: AUG-CC-PVTZ-JKFIT
	 Reference Energy          =    -512.2834771573229773 [Eh]
	 Singles Energy            =      -0.0000000000000000 [Eh]
	 Same-Spin Energy          =      -0.5234235468404403 [Eh]
	 Opposite-Spin Energy      =      -1.6248650396350963 [Eh]
	 Correlation Energy        =      -2.1482885864755366 [Eh]
	 Total Energy              =    -514.4317657437985645 [Eh]

	 ================> DF-SCS-MP2 Energies <==================
	-----------------------------------------------------------
	 SCS Same-Spin Scale       =       0.3333333333333333 [-]
	 SCS Opposite-Spin Scale   =       1.2000000000000000 [-]
	 SCS Same-Spin Energy      =      -0.1744745156134801 [Eh]
	 SCS Opposite-Spin Energy  =      -1.9498380475621155 [Eh]
	 SCS Correlation Energy    =      -2.1243125631755957 [Eh]
	 SCS Total Energy          =    -514.4077897204986130 [Eh]
	-----------------------------------------------------------

  Dipole Moment: [D]
     X:    -9.1983      Y:     0.2809      Z:     1.6298     Total:     9.3458

*** Psi4 exiting successfully. Buy a developer a beer!
