                               Psi4 1.3.2 release

  ==> Input File <==

--------------------------------------------------------------------------
#psi4
#
memory 32 gb

molecule  {
-1 1
  O       -1.6024110     1.2883820    -0.5634480
  O        2.0191420    -1.7287390     0.1939930
  O        3.3803020    -0.0587520    -0.5397320
  N       -0.1147610    -0.2476350     0.2334190
  C        1.0875530     0.4615680    -0.1724770
  C        1.3782960     1.6508690     0.7367710
  C       -2.4731170    -0.8032840     0.3122730
  C       -1.3649450     0.1785500    -0.0525630
  C        2.2697694    -0.5444525    -0.1487436
  C       -3.8468580    -0.3344400    -0.1480570
  H        0.9404377     0.8398568    -1.1938355
  H        0.0672430    -1.2232590     0.4643770
  H        1.5293690     1.3045580     1.7644240
  H        2.2851470     2.1591780     0.4026320
  H        0.5420990     2.3541860     0.7225810
  H       -2.2325720    -1.7800520    -0.1237300
  H       -2.4588320    -0.9441430     1.3993390
  H       -4.0995650     0.6270340     0.3028840
  H       -3.8738130    -0.2132220    -1.2332140
  H       -4.6116960    -1.0622230     0.1365660
units angstrom
no_reorient  #important for SAPT in psi4, default
symmetry c1  #important for SAPT in psi4, default
}

set PROPERTIES_ORIGIN ["COM"]
properties('MP2/aug-cc-pvtz', properties = ['dipole'])
--------------------------------------------------------------------------

    Molecular point group: c1
  Charge       = -1
  Multiplicity = 1
  Basis Set: AUG-CC-PVTZ
    Blend: AUG-CC-PVTZ
  Basis Set: (AUG-CC-PVTZ AUX)
    Blend: AUG-CC-PVTZ-JKFIT

    Orbital Energies [Eh]
    ---------------------

    Doubly Occupied:

       1A    -20.392118     2A    -20.325584     3A    -20.310700
       4A    -15.438161     5A    -11.223830     6A    -11.162178
       7A    -11.135629     8A    -11.124547     9A    -11.114855
      10A    -11.075098    11A     -1.241981    12A     -1.191978
      13A     -1.094216    14A     -1.082471    15A     -0.949578
      16A     -0.878507    17A     -0.784175    18A     -0.720535
      19A     -0.639704    20A     -0.589246    21A     -0.542057
      22A     -0.533535    23A     -0.512026    24A     -0.483279
      25A     -0.466332    26A     -0.438485    27A     -0.425466
      28A     -0.419210    29A     -0.413309    30A     -0.403881
      31A     -0.397045    32A     -0.376130    33A     -0.369816
      34A     -0.342011    35A     -0.299708    36A     -0.257212
      37A     -0.238007    38A     -0.222068    39A     -0.214643

  @DF-RHF Final Energy:  -512.33519933862658

   => Energetics <=

    Nuclear Repulsion Energy =            533.4872274544046604
    One-Electron Energy =               -1771.9862295700488630
    Two-Electron Energy =                 726.1638027770175086
    Total Energy =                       -512.3351993386265804
  Basis Set: (AUG-CC-PVTZ AUX)
    Blend: AUG-CC-PVTZ-RI
    Molecular point group: c1

    Geometry (in Angstrom), charge = -1, multiplicity = 1:

       Center              X                  Y                   Z               Mass
    ------------   -----------------  -----------------  -----------------  -----------------
         O           -1.683826404086     1.302730158147    -0.547589673908    15.994914619570
         O            1.937726595914    -1.714390841853     0.209851326092    15.994914619570
         O            3.298886595914    -0.044403841853    -0.523873673908    15.994914619570
         N           -0.196176404086    -0.233286841853     0.249277326092    14.003074004430
         C            1.006137595914     0.475916158147    -0.156618673908    12.000000000000
         C            1.296880595914     1.665217158147     0.752629326092    12.000000000000
         C           -2.554532404086    -0.788935841853     0.328131326092    12.000000000000
         C           -1.446360404086     0.192898158147    -0.036704673908    12.000000000000
         C            2.188353995914    -0.530104341853    -0.132885273908    12.000000000000
         C           -3.928273404086    -0.320091841853    -0.132198673908    12.000000000000
         H            0.859022295914     0.854204958147    -1.177977173908     1.007825032230
         H           -0.014172404086    -1.208910841853     0.480235326092     1.007825032230
         H            1.447953595914     1.318906158147     1.780282326092     1.007825032230
         H            2.203731595914     2.173526158147     0.418490326092     1.007825032230
         H            0.460683595914     2.368534158147     0.738439326092     1.007825032230
         H           -2.313987404086    -1.765703841853    -0.107871673908     1.007825032230
         H           -2.540247404086    -0.929794841853     1.415197326092     1.007825032230
         H           -4.180980404086     0.641382158147     0.318742326092     1.007825032230
         H           -3.955228404086    -0.198873841853    -1.217355673908     1.007825032230
         H           -4.693111404086    -1.047874841853     0.152424326092     1.007825032230

  Basis Set: AUG-CC-PVTZ
    Blend: AUG-CC-PVTZ
  Basis Set: (AUG-CC-PVTZ AUX)
    Blend: AUG-CC-PVTZ-JKFIT
	 Reference Energy          =    -512.3351993386265804 [Eh]
	 Singles Energy            =      -0.0000000000000000 [Eh]
	 Same-Spin Energy          =      -0.5202237452689629 [Eh]
	 Opposite-Spin Energy      =      -1.6214710364086578 [Eh]
	 Correlation Energy        =      -2.1416947816776206 [Eh]
	 Total Energy              =    -514.4768941203042232 [Eh]

	 ================> DF-SCS-MP2 Energies <==================
	-----------------------------------------------------------
	 SCS Same-Spin Scale       =       0.3333333333333333 [-]
	 SCS Opposite-Spin Scale   =       1.2000000000000000 [-]
	 SCS Same-Spin Energy      =      -0.1734079150896543 [Eh]
	 SCS Opposite-Spin Energy  =      -1.9457652436903892 [Eh]
	 SCS Correlation Energy    =      -2.1191731587800433 [Eh]
	 SCS Total Energy          =    -514.4543724974066663 [Eh]
	-----------------------------------------------------------

  Dipole Moment: [D]
     X:    -8.7738      Y:     0.5344      Z:     1.6541     Total:     8.9444

*** Psi4 exiting successfully. Buy a developer a beer!
