                               Psi4 1.3.2 release

  ==> Input File <==

--------------------------------------------------------------------------
#psi4
#
memory 32 gb

molecule  {
-1 1
  O       -1.6024110     1.2883820    -0.5634480
  O        2.0191420    -1.7287390     0.1939930
  O        3.3803020    -0.0587520    -0.5397320
  N       -0.1147610    -0.2476350     0.2334190
  C        1.0875530     0.4615680    -0.1724770
  C        1.3774476     1.6590191     0.7262845
  C       -2.4731170    -0.8032840     0.3122730
  C       -1.3649450     0.1785500    -0.0525630
  C        2.2731730    -0.5407160    -0.1753640
  C       -3.8468580    -0.3344400    -0.1480570
  H        0.9566058     0.8379279    -1.1967448
  H        0.0672430    -1.2232590     0.4643770
  H        1.5293690     1.3045580     1.7644240
  H        2.2851470     2.1591780     0.4026320
  H        0.5420990     2.3541860     0.7225810
  H       -2.2325720    -1.7800520    -0.1237300
  H       -2.4588320    -0.9441430     1.3993390
  H       -4.0995650     0.6270340     0.3028840
  H       -3.8738130    -0.2132220    -1.2332140
  H       -4.6116960    -1.0622230     0.1365660
units angstrom
no_reorient  #important for SAPT in psi4, default
symmetry c1  #important for SAPT in psi4, default
}

set PROPERTIES_ORIGIN ["COM"]
properties('MP2/aug-cc-pvtz', properties = ['dipole'])
--------------------------------------------------------------------------

    Molecular point group: c1
  Charge       = -1
  Multiplicity = 1
  Basis Set: AUG-CC-PVTZ
    Blend: AUG-CC-PVTZ
  Basis Set: (AUG-CC-PVTZ AUX)
    Blend: AUG-CC-PVTZ-JKFIT

    Orbital Energies [Eh]
    ---------------------

    Doubly Occupied:

       1A    -20.391899     2A    -20.322365     3A    -20.313788
       4A    -15.438191     5A    -11.223697     6A    -11.162099
       7A    -11.135460     8A    -11.124410     9A    -11.114706
      10A    -11.075592    11A     -1.241731    12A     -1.190600
      13A     -1.096666    14A     -1.081242    15A     -0.949374
      16A     -0.878573    17A     -0.784082    18A     -0.720861
      19A     -0.639515    20A     -0.588632    21A     -0.542208
      22A     -0.533098    23A     -0.511395    24A     -0.483172
      25A     -0.465810    26A     -0.438349    27A     -0.425794
      28A     -0.419558    29A     -0.413601    30A     -0.403927
      31A     -0.397104    32A     -0.376899    33A     -0.369304
      34A     -0.340189    35A     -0.299803    36A     -0.257006
      37A     -0.237072    38A     -0.223234    39A     -0.215631

  @DF-RHF Final Energy:  -512.33584726471929

   => Energetics <=

    Nuclear Repulsion Energy =            533.3823004851553833
    One-Electron Energy =               -1771.7830205859258967
    Two-Electron Energy =                 726.0648728360512223
    Total Energy =                       -512.3358472647192912
  Basis Set: (AUG-CC-PVTZ AUX)
    Blend: AUG-CC-PVTZ-RI
    Molecular point group: c1

    Geometry (in Angstrom), charge = -1, multiplicity = 1:

       Center              X                  Y                   Z               Mass
    ------------   -----------------  -----------------  -----------------  -----------------
         O           -1.684152344931     1.301753556175    -0.544478498105    15.994914619570
         O            1.937400655069    -1.715367443825     0.212962501895    15.994914619570
         O            3.298560655069    -0.045380443825    -0.520762498105    15.994914619570
         N           -0.196502344931    -0.234263443825     0.252388501895    14.003074004430
         C            1.005811655069     0.474939556175    -0.153507498105    12.000000000000
         C            1.295706255069     1.672390656175     0.745254001895    12.000000000000
         C           -2.554858344931    -0.789912443825     0.331242501895    12.000000000000
         C           -1.446686344931     0.191921556175    -0.033593498105    12.000000000000
         C            2.191431655069    -0.527344443825    -0.156394498105    12.000000000000
         C           -3.928599344931    -0.321068443825    -0.129087498105    12.000000000000
         H            0.874864455069     0.851299456175    -1.177775298105     1.007825032230
         H           -0.014498344931    -1.209887443825     0.483346501895     1.007825032230
         H            1.447627655069     1.317929556175     1.783393501895     1.007825032230
         H            2.203405655069     2.172549556175     0.421601501895     1.007825032230
         H            0.460357655069     2.367557556175     0.741550501895     1.007825032230
         H           -2.314313344931    -1.766680443825    -0.104760498105     1.007825032230
         H           -2.540573344931    -0.930771443825     1.418308501895     1.007825032230
         H           -4.181306344931     0.640405556175     0.321853501895     1.007825032230
         H           -3.955554344931    -0.199850443825    -1.214244498105     1.007825032230
         H           -4.693437344931    -1.048851443825     0.155535501895     1.007825032230

  Basis Set: AUG-CC-PVTZ
    Blend: AUG-CC-PVTZ
  Basis Set: (AUG-CC-PVTZ AUX)
    Blend: AUG-CC-PVTZ-JKFIT
	 Reference Energy          =    -512.3358472647192912 [Eh]
	 Singles Energy            =      -0.0000000000000000 [Eh]
	 Same-Spin Energy          =      -0.5201477911081334 [Eh]
	 Opposite-Spin Energy      =      -1.6213233919627723 [Eh]
	 Correlation Energy        =      -2.1414711830709057 [Eh]
	 Total Energy              =    -514.4773184477902532 [Eh]

	 ================> DF-SCS-MP2 Energies <==================
	-----------------------------------------------------------
	 SCS Same-Spin Scale       =       0.3333333333333333 [-]
	 SCS Opposite-Spin Scale   =       1.2000000000000000 [-]
	 SCS Same-Spin Energy      =      -0.1733825970360444 [Eh]
	 SCS Opposite-Spin Energy  =      -1.9455880703553268 [Eh]
	 SCS Correlation Energy    =      -2.1189706673913711 [Eh]
	 SCS Total Energy          =    -514.4548179321107000 [Eh]
	-----------------------------------------------------------

  Dipole Moment: [D]
     X:    -8.6925      Y:     0.6322      Z:     1.5888     Total:     8.8591

*** Psi4 exiting successfully. Buy a developer a beer!
