                               Psi4 1.4a3.dev225

  ==> Input File <==

--------------------------------------------------------------------------
#psi4
#
memory 32 gb

molecule  {
-1 1
  O       -1.5868420     1.2523650    -0.8113290
  O        2.0299390    -1.6922460     0.2543140
  O        3.4074630     0.0142020    -0.3584910
  N       -0.1383540    -0.2870410     0.0455440
  C        1.0782140     0.4735880    -0.1782270
  C        1.2275190     1.6106150     0.8299030
  C       -2.4816390    -0.8906360    -0.1487800
  C       -1.3641120     0.1217370    -0.3343690
  C        2.3033135    -0.4895088    -0.0965919
  C       -3.7126180    -0.2515540     0.4884160
  H        1.0494870     0.8996880    -1.1894520
  H        0.0515970    -1.2513350     0.3145600
  H        1.2660770     1.2028380     1.8451460
  H        2.1536960     2.1558630     0.6353850
  H        0.3800930     2.2967220     0.7589720
  H       -2.7387560    -1.2794370    -1.1416750
  H       -2.1327770    -1.7398080     0.4477120
  H       -3.4838230     0.1112750     1.4946450
  H       -4.0489630     0.5957980    -0.1116680
  H       -4.5299760    -0.9736440     0.5641870
units angstrom
no_reorient  #important for SAPT in psi4, default
symmetry c1  #important for SAPT in psi4, default
}

set PROPERTIES_ORIGIN ["COM"]
properties('MP2/aug-cc-pvtz', properties = ['dipole'])
--------------------------------------------------------------------------

    Molecular point group: c1
  Charge       = -1
  Multiplicity = 1
  Basis Set: AUG-CC-PVTZ
    Blend: AUG-CC-PVTZ
  Basis Set: (AUG-CC-PVTZ AUX)
    Blend: AUG-CC-PVTZ-JKFIT

    Orbital Energies [Eh]
    ---------------------

    Doubly Occupied:

       1A    -20.386640     2A    -20.319594     3A    -20.319487
       4A    -15.441507     5A    -11.221746     6A    -11.162834
       7A    -11.133979     8A    -11.126865     9A    -11.114548
      10A    -11.077010    11A     -1.237821    12A     -1.194428
      13A     -1.101496    14A     -1.080966    15A     -0.949794
      16A     -0.878582    17A     -0.783382    18A     -0.723213
      19A     -0.642224    20A     -0.587827    21A     -0.546622
      22A     -0.522501    23A     -0.512973    24A     -0.482936
      25A     -0.463082    26A     -0.442872    27A     -0.434827
      28A     -0.421090    29A     -0.411105    30A     -0.406050
      31A     -0.395148    32A     -0.375491    33A     -0.369828
      34A     -0.341918    35A     -0.296420    36A     -0.257921
      37A     -0.237998    38A     -0.223364    39A     -0.217675

  @DF-RHF Final Energy:  -512.33686786432440

   => Energetics <=

    Nuclear Repulsion Energy =            534.2347124567819492
    One-Electron Energy =               -1773.4556327282532493
    Two-Electron Energy =                 726.8840524071467826
    Total Energy =                       -512.3368678643244039
  Basis Set: (AUG-CC-PVTZ AUX)
    Blend: AUG-CC-PVTZ-RI
    Molecular point group: c1

    Geometry (in Angstrom), charge = -1, multiplicity = 1:

       Center              X                  Y                   Z               Mass
    ------------   -----------------  -----------------  -----------------  -----------------
         O           -1.671057672553     1.265577761670    -0.786095094115    15.994914619570
         O            1.945723327447    -1.679033238330     0.279547905885    15.994914619570
         O            3.323247327447     0.027414761670    -0.333257094115    15.994914619570
         N           -0.222569672553    -0.273828238330     0.070777905885    14.003074004430
         C            0.993998327447     0.486800761670    -0.152993094115    12.000000000000
         C            1.143303327447     1.623827761670     0.855136905885    12.000000000000
         C           -2.565854672553    -0.877423238330    -0.123546094115    12.000000000000
         C           -1.448327672553     0.134949761670    -0.309135094115    12.000000000000
         C            2.219097827447    -0.476296038330    -0.071357994115    12.000000000000
         C           -3.796833672553    -0.238341238330     0.513649905885    12.000000000000
         H            0.965271327447     0.912900761670    -1.164218094115     1.007825032230
         H           -0.032618672553    -1.238122238330     0.339793905885     1.007825032230
         H            1.181861327447     1.216050761670     1.870379905885     1.007825032230
         H            2.069480327447     2.169075761670     0.660618905885     1.007825032230
         H            0.295877327447     2.309934761670     0.784205905885     1.007825032230
         H           -2.822971672553    -1.266224238330    -1.116441094115     1.007825032230
         H           -2.216992672553    -1.726595238330     0.472945905885     1.007825032230
         H           -3.568038672553     0.124487761670     1.519878905885     1.007825032230
         H           -4.133178672553     0.609010761670    -0.086434094115     1.007825032230
         H           -4.614191672553    -0.960431238330     0.589420905885     1.007825032230

  Basis Set: AUG-CC-PVTZ
    Blend: AUG-CC-PVTZ
  Basis Set: (AUG-CC-PVTZ AUX)
    Blend: AUG-CC-PVTZ-JKFIT
	 Reference Energy          =    -512.3368678643244039 [Eh]
	 Singles Energy            =      -0.0000000000000000 [Eh]
	 Same-Spin Energy          =      -0.5202705538573142 [Eh]
	 Opposite-Spin Energy      =      -1.6214390876752223 [Eh]
	 Correlation Energy        =      -2.1417096415325365 [Eh]
	 Total Energy              =    -514.4785775058569470 [Eh]

	 ================> DF-SCS-MP2 Energies <==================
	-----------------------------------------------------------
	 SCS Same-Spin Scale       =       0.3333333333333333 [-]
	 SCS Opposite-Spin Scale   =       1.2000000000000000 [-]
	 SCS Same-Spin Energy      =      -0.1734235179524381 [Eh]
	 SCS Opposite-Spin Energy  =      -1.9457269052102666 [Eh]
	 SCS Correlation Energy    =      -2.1191504231627047 [Eh]
	 SCS Total Energy          =    -514.4560182874871543 [Eh]
	-----------------------------------------------------------

  Dipole Moment: [D]
     X:    -8.4759      Y:     0.4746      Z:     1.1769     Total:     8.5703

*** Psi4 exiting successfully. Buy a developer a beer!
