                               Psi4 1.3.2 release

  ==> Input File <==

--------------------------------------------------------------------------
#psi4
#
memory 32 gb

molecule  {
-1 1
  O       -1.6024110     1.2883820    -0.5634480
  O        2.0191420    -1.7287390     0.1939930
  O        3.3803020    -0.0587520    -0.5397320
  N       -0.1147610    -0.2476350     0.2334190
  C        1.0875530     0.4615680    -0.1724770
  C        1.3782960     1.6508690     0.7367710
  C       -2.4731170    -0.8032840     0.3122730
  C       -1.3878167     0.1123620    -0.0424628
  C        2.2731730    -0.5407160    -0.1753640
  C       -3.8468580    -0.3344400    -0.1480570
  H        0.9550610     0.8289670    -1.1997950
  H        0.0151604    -1.2329886     0.4581587
  H        1.5293690     1.3045580     1.7644240
  H        2.2851470     2.1591780     0.4026320
  H        0.5420990     2.3541860     0.7225810
  H       -2.2325720    -1.7800520    -0.1237300
  H       -2.4588320    -0.9441430     1.3993390
  H       -4.0995650     0.6270340     0.3028840
  H       -3.8738130    -0.2132220    -1.2332140
  H       -4.6116960    -1.0622230     0.1365660
units angstrom
no_reorient  #important for SAPT in psi4, default
symmetry c1  #important for SAPT in psi4, default
}

set PROPERTIES_ORIGIN ["COM"]
properties('MP2/aug-cc-pvtz', properties = ['dipole'])
--------------------------------------------------------------------------

    Molecular point group: c1
  Charge       = -1
  Multiplicity = 1
  Basis Set: AUG-CC-PVTZ
    Blend: AUG-CC-PVTZ
  Basis Set: (AUG-CC-PVTZ AUX)
    Blend: AUG-CC-PVTZ-JKFIT

    Orbital Energies [Eh]
    ---------------------

    Doubly Occupied:

       1A    -20.382986     2A    -20.321048     3A    -20.313678
       4A    -15.444193     5A    -11.226131     6A    -11.161971
       7A    -11.139431     8A    -11.127713     9A    -11.117561
      10A    -11.075498    11A     -1.211595    12A     -1.188470
      13A     -1.093787    14A     -1.078225    15A     -0.961269
      16A     -0.881473    17A     -0.794659    18A     -0.723571
      19A     -0.634853    20A     -0.590995    21A     -0.546607
      22A     -0.539091    23A     -0.511117    24A     -0.472077
      25A     -0.464450    26A     -0.437550    27A     -0.430144
      28A     -0.419878    29A     -0.409448    30A     -0.402773
      31A     -0.396053    32A     -0.374022    33A     -0.365925
      34A     -0.335466    35A     -0.297064    36A     -0.254762
      37A     -0.235745    38A     -0.223096    39A     -0.214941

  @DF-RHF Final Energy:  -512.32259147684124

   => Energetics <=

    Nuclear Repulsion Energy =            532.9487624238788612
    One-Electron Energy =               -1770.9440713141052584
    Two-Electron Energy =                 725.6727174133851577
    Total Energy =                       -512.3225914768412395
  Basis Set: (AUG-CC-PVTZ AUX)
    Blend: AUG-CC-PVTZ-RI
    Molecular point group: c1

    Geometry (in Angstrom), charge = -1, multiplicity = 1:

       Center              X                  Y                   Z               Mass
    ------------   -----------------  -----------------  -----------------  -----------------
         O           -1.681942757065     1.308076307710    -0.546128431199    15.994914619570
         O            1.939610242935    -1.709044692290     0.211312568801    15.994914619570
         O            3.300770242935    -0.039057692290    -0.522412431199    15.994914619570
         N           -0.194292757065    -0.227940692290     0.250738568801    14.003074004430
         C            1.008021242935     0.481262307710    -0.155157431199    12.000000000000
         C            1.298764242935     1.670563307710     0.754090568801    12.000000000000
         C           -2.552648757065    -0.783589692290     0.329592568801    12.000000000000
         C           -1.467348457065     0.132056307710    -0.025143231199    12.000000000000
         C            2.193641242935    -0.521021692290    -0.158044431199    12.000000000000
         C           -3.926389757065    -0.314745692290    -0.130737431199    12.000000000000
         H            0.875529242935     0.848661307710    -1.182475431199     1.007825032230
         H           -0.064371357065    -1.213294292290     0.475478268801     1.007825032230
         H            1.449837242935     1.324252307710     1.781743568801     1.007825032230
         H            2.205615242935     2.178872307710     0.419951568801     1.007825032230
         H            0.462567242935     2.373880307710     0.739900568801     1.007825032230
         H           -2.312103757065    -1.760357692290    -0.106410431199     1.007825032230
         H           -2.538363757065    -0.924448692290     1.416658568801     1.007825032230
         H           -4.179096757065     0.646728307710     0.320203568801     1.007825032230
         H           -3.953344757065    -0.193527692290    -1.215894431199     1.007825032230
         H           -4.691227757065    -1.042528692290     0.153885568801     1.007825032230

  Basis Set: AUG-CC-PVTZ
    Blend: AUG-CC-PVTZ
  Basis Set: (AUG-CC-PVTZ AUX)
    Blend: AUG-CC-PVTZ-JKFIT
	 Reference Energy          =    -512.3225914768412395 [Eh]
	 Singles Energy            =      -0.0000000000000000 [Eh]
	 Same-Spin Energy          =      -0.5216004221910765 [Eh]
	 Opposite-Spin Energy      =      -1.6243225177805560 [Eh]
	 Correlation Energy        =      -2.1459229399716326 [Eh]
	 Total Energy              =    -514.4685144168129227 [Eh]

	 ================> DF-SCS-MP2 Energies <==================
	-----------------------------------------------------------
	 SCS Same-Spin Scale       =       0.3333333333333333 [-]
	 SCS Opposite-Spin Scale   =       1.2000000000000000 [-]
	 SCS Same-Spin Energy      =      -0.1738668073970255 [Eh]
	 SCS Opposite-Spin Energy  =      -1.9491870213366671 [Eh]
	 SCS Correlation Energy    =      -2.1230538287336924 [Eh]
	 SCS Total Energy          =    -514.4456453055748852 [Eh]
	-----------------------------------------------------------

  Dipole Moment: [D]
     X:    -8.7944      Y:     0.3250      Z:     1.7321     Total:     8.9692

*** Psi4 exiting successfully. Buy a developer a beer!
