                               Psi4 1.3.2 release

  ==> Input File <==

--------------------------------------------------------------------------
#psi4
#
memory 32 gb

molecule  {
-1 1
  O       -1.6024110     1.2883820    -0.5634480
  O        2.0191420    -1.7287390     0.1939930
  O        3.3803020    -0.0587520    -0.5397320
  N       -0.1147610    -0.2476350     0.2334190
  C        1.0875530     0.4615680    -0.1724770
  C        1.3765770     1.6670781     0.7157296
  C       -2.4731170    -0.8032840     0.3122730
  C       -1.3649450     0.1785500    -0.0525630
  C        2.2731730    -0.5407160    -0.1753640
  C       -3.8468580    -0.3344400    -0.1480570
  H        0.9581605     0.8468601    -1.1936166
  H        0.0672430    -1.2232590     0.4643770
  H        1.5293690     1.3045580     1.7644240
  H        2.2851470     2.1591780     0.4026320
  H        0.5420990     2.3541860     0.7225810
  H       -2.2325720    -1.7800520    -0.1237300
  H       -2.4588320    -0.9441430     1.3993390
  H       -4.0995650     0.6270340     0.3028840
  H       -3.8738130    -0.2132220    -1.2332140
  H       -4.6116960    -1.0622230     0.1365660
units angstrom
no_reorient  #important for SAPT in psi4, default
symmetry c1  #important for SAPT in psi4, default
}

set PROPERTIES_ORIGIN ["COM"]
properties('MP2/aug-cc-pvtz', properties = ['dipole'])
--------------------------------------------------------------------------

    Molecular point group: c1
  Charge       = -1
  Multiplicity = 1
  Basis Set: AUG-CC-PVTZ
    Blend: AUG-CC-PVTZ
  Basis Set: (AUG-CC-PVTZ AUX)
    Blend: AUG-CC-PVTZ-JKFIT

    Orbital Energies [Eh]
    ---------------------

    Doubly Occupied:

       1A    -20.392043     2A    -20.322467     3A    -20.313848
       4A    -15.438479     5A    -11.223837     6A    -11.162292
       7A    -11.135544     8A    -11.124471     9A    -11.114747
      10A    -11.075681    11A     -1.241864    12A     -1.190660
      13A     -1.096743    14A     -1.081325    15A     -0.949445
      16A     -0.878755    17A     -0.784208    18A     -0.720806
      19A     -0.639576    20A     -0.588757    21A     -0.542341
      22A     -0.533158    23A     -0.511363    24A     -0.483456
      25A     -0.466019    26A     -0.438575    27A     -0.425769
      28A     -0.419724    29A     -0.413723    30A     -0.404943
      31A     -0.396835    32A     -0.377837    33A     -0.368490
      34A     -0.338730    35A     -0.300012    36A     -0.256877
      37A     -0.237265    38A     -0.223450    39A     -0.215695

  @DF-RHF Final Energy:  -512.33521896781258

   => Energetics <=

    Nuclear Repulsion Energy =            533.3464170380640326
    One-Electron Energy =               -1771.7036548662476889
    Two-Electron Energy =                 726.0220188603711904
    Total Energy =                       -512.3352189678125796
  Basis Set: (AUG-CC-PVTZ AUX)
    Blend: AUG-CC-PVTZ-RI
    Molecular point group: c1

    Geometry (in Angstrom), charge = -1, multiplicity = 1:

       Center              X                  Y                   Z               Mass
    ------------   -----------------  -----------------  -----------------  -----------------
         O           -1.684090704223     1.301019794950    -0.543621210033    15.994914619570
         O            1.937462295777    -1.716101205050     0.213819789967    15.994914619570
         O            3.298622295777    -0.046114205050    -0.519905210033    15.994914619570
         N           -0.196440704223    -0.234997205050     0.253245789967    14.003074004430
         C            1.005873295777     0.474205794950    -0.152650210033    12.000000000000
         C            1.294897295777     1.679715894950     0.735556389967    12.000000000000
         C           -2.554796704223    -0.790646205050     0.332099789967    12.000000000000
         C           -1.446624704223     0.191187794950    -0.032736210033    12.000000000000
         C            2.191493295777    -0.528078205050    -0.155537210033    12.000000000000
         C           -3.928537704223    -0.321802205050    -0.128230210033    12.000000000000
         H            0.876480795777     0.859497894950    -1.173789810033     1.007825032230
         H           -0.014436704223    -1.210621205050     0.484203789967     1.007825032230
         H            1.447689295777     1.317195794950     1.784250789967     1.007825032230
         H            2.203467295777     2.171815794950     0.422458789967     1.007825032230
         H            0.460419295777     2.366823794950     0.742407789967     1.007825032230
         H           -2.314251704223    -1.767414205050    -0.103903210033     1.007825032230
         H           -2.540511704223    -0.931505205050     1.419165789967     1.007825032230
         H           -4.181244704223     0.639671794950     0.322710789967     1.007825032230
         H           -3.955492704223    -0.200584205050    -1.213387210033     1.007825032230
         H           -4.693375704223    -1.049585205050     0.156392789967     1.007825032230

  Basis Set: AUG-CC-PVTZ
    Blend: AUG-CC-PVTZ
  Basis Set: (AUG-CC-PVTZ AUX)
    Blend: AUG-CC-PVTZ-JKFIT
	 Reference Energy          =    -512.3352189678125796 [Eh]
	 Singles Energy            =      -0.0000000000000000 [Eh]
	 Same-Spin Energy          =      -0.5201454959200608 [Eh]
	 Opposite-Spin Energy      =      -1.6213341998589734 [Eh]
	 Correlation Energy        =      -2.1414796957790343 [Eh]
	 Total Energy              =    -514.4766986635916055 [Eh]

	 ================> DF-SCS-MP2 Energies <==================
	-----------------------------------------------------------
	 SCS Same-Spin Scale       =       0.3333333333333333 [-]
	 SCS Opposite-Spin Scale   =       1.2000000000000000 [-]
	 SCS Same-Spin Energy      =      -0.1733818319733536 [Eh]
	 SCS Opposite-Spin Energy  =      -1.9456010398307679 [Eh]
	 SCS Correlation Energy    =      -2.1189828718041217 [Eh]
	 SCS Total Energy          =    -514.4542018396167578 [Eh]
	-----------------------------------------------------------

  Dipole Moment: [D]
     X:    -8.7007      Y:     0.6387      Z:     1.5764     Total:     8.8654

*** Psi4 exiting successfully. Buy a developer a beer!
