                               Psi4 1.4a3.dev225

  ==> Input File <==

--------------------------------------------------------------------------
#psi4
#
memory 32 gb

molecule  {
-1 1
  O       -1.5868420     1.2523650    -0.8113290
  O        2.0299390    -1.6922460     0.2543140
  O        3.4074630     0.0142020    -0.3584910
  N       -0.1383540    -0.2870410     0.0455440
  C        1.0782140     0.4735880    -0.1782270
  C        1.2275190     1.6106150     0.8299030
  C       -2.4816390    -0.8906360    -0.1487800
  C       -1.3641120     0.1217370    -0.3343690
  C        2.3304519    -0.5179253    -0.0840321
  C       -3.7126180    -0.2515540     0.4884160
  H        1.0494870     0.8996880    -1.1894520
  H        0.0515970    -1.2513350     0.3145600
  H        1.2660770     1.2028380     1.8451460
  H        2.1536960     2.1558630     0.6353850
  H        0.3800930     2.2967220     0.7589720
  H       -2.7387560    -1.2794370    -1.1416750
  H       -2.1327770    -1.7398080     0.4477120
  H       -3.4838230     0.1112750     1.4946450
  H       -4.0489630     0.5957980    -0.1116680
  H       -4.5299760    -0.9736440     0.5641870
units angstrom
no_reorient  #important for SAPT in psi4, default
symmetry c1  #important for SAPT in psi4, default
}

set PROPERTIES_ORIGIN ["COM"]
properties('MP2/aug-cc-pvtz', properties = ['dipole'])
--------------------------------------------------------------------------

    Molecular point group: c1
  Charge       = -1
  Multiplicity = 1
  Basis Set: AUG-CC-PVTZ
    Blend: AUG-CC-PVTZ
  Basis Set: (AUG-CC-PVTZ AUX)
    Blend: AUG-CC-PVTZ-JKFIT

    Orbital Energies [Eh]
    ---------------------

    Doubly Occupied:

       1A    -20.384963     2A    -20.323447     3A    -20.319957
       4A    -15.439607     5A    -11.220007     6A    -11.162774
       7A    -11.132941     8A    -11.126046     9A    -11.109680
      10A    -11.073975    11A     -1.236106    12A     -1.203278
      13A     -1.110218    14A     -1.084098    15A     -0.948413
      16A     -0.873186    17A     -0.781793    18A     -0.716531
      19A     -0.639480    20A     -0.583564    21A     -0.544199
      22A     -0.521733    23A     -0.511296    24A     -0.482839
      25A     -0.461979    26A     -0.441637    27A     -0.433988
      28A     -0.426050    29A     -0.410188    30A     -0.407085
      31A     -0.394296    32A     -0.375028    33A     -0.371647
      34A     -0.344369    35A     -0.295107    36A     -0.256879
      37A     -0.243815    38A     -0.224995    39A     -0.213280

  @DF-RHF Final Energy:  -512.33788559976711

   => Energetics <=

    Nuclear Repulsion Energy =            534.0652428786919472
    One-Electron Energy =               -1773.1453109557912740
    Two-Electron Energy =                 726.7421824773323351
    Total Energy =                       -512.3378855997671053
  Basis Set: (AUG-CC-PVTZ AUX)
    Blend: AUG-CC-PVTZ-RI
    Molecular point group: c1

    Geometry (in Angstrom), charge = -1, multiplicity = 1:

       Center              X                  Y                   Z               Mass
    ------------   -----------------  -----------------  -----------------  -----------------
         O           -1.673318168755     1.267944717361    -0.787141264126    15.994914619570
         O            1.943462831245    -1.676666282639     0.278501735874    15.994914619570
         O            3.320986831245     0.029781717361    -0.334303264126    15.994914619570
         N           -0.224830168755    -0.271461282639     0.069731735874    14.003074004430
         C            0.991737831245     0.489167717361    -0.154039264126    12.000000000000
         C            1.141042831245     1.626194717361     0.854090735874    12.000000000000
         C           -2.568115168755    -0.875056282639    -0.124592264126    12.000000000000
         C           -1.450588168755     0.137316717361    -0.310181264126    12.000000000000
         C            2.243975731245    -0.502345582639    -0.059844364126    12.000000000000
         C           -3.799094168755    -0.235974282639     0.512603735874    12.000000000000
         H            0.963010831245     0.915267717361    -1.165264264126     1.007825032230
         H           -0.034879168755    -1.235755282639     0.338747735874     1.007825032230
         H            1.179600831245     1.218417717361     1.869333735874     1.007825032230
         H            2.067219831245     2.171442717361     0.659572735874     1.007825032230
         H            0.293616831245     2.312301717361     0.783159735874     1.007825032230
         H           -2.825232168755    -1.263857282639    -1.117487264126     1.007825032230
         H           -2.219253168755    -1.724228282639     0.471899735874     1.007825032230
         H           -3.570299168755     0.126854717361     1.518832735874     1.007825032230
         H           -4.135439168755     0.611377717361    -0.087480264126     1.007825032230
         H           -4.616452168755    -0.958064282639     0.588374735874     1.007825032230

  Basis Set: AUG-CC-PVTZ
    Blend: AUG-CC-PVTZ
  Basis Set: (AUG-CC-PVTZ AUX)
    Blend: AUG-CC-PVTZ-JKFIT
	 Reference Energy          =    -512.3378855997671053 [Eh]
	 Singles Energy            =      -0.0000000000000000 [Eh]
	 Same-Spin Energy          =      -0.5197916339362130 [Eh]
	 Opposite-Spin Energy      =      -1.6202304701377364 [Eh]
	 Correlation Energy        =      -2.1400221040739495 [Eh]
	 Total Energy              =    -514.4779077038410833 [Eh]

	 ================> DF-SCS-MP2 Energies <==================
	-----------------------------------------------------------
	 SCS Same-Spin Scale       =       0.3333333333333333 [-]
	 SCS Opposite-Spin Scale   =       1.2000000000000000 [-]
	 SCS Same-Spin Energy      =      -0.1732638779787377 [Eh]
	 SCS Opposite-Spin Energy  =      -1.9442765641652835 [Eh]
	 SCS Correlation Energy    =      -2.1175404421440209 [Eh]
	 SCS Total Energy          =    -514.4554260419110960 [Eh]
	-----------------------------------------------------------

  Dipole Moment: [D]
     X:    -8.2920      Y:     0.2524      Z:     1.1996     Total:     8.3821

*** Psi4 exiting successfully. Buy a developer a beer!
