                               Psi4 1.3.2 release

  ==> Input File <==

--------------------------------------------------------------------------
#psi4
#
memory 32 gb

molecule  {
-1 1
  O       -1.6024110     1.2883820    -0.5634480
  O        2.0191420    -1.7287390     0.1939930
  O        3.3803020    -0.0587520    -0.5397320
  N       -0.1147610    -0.2476350     0.2334190
  C        1.0875530     0.4615680    -0.1724770
  C        1.3901498     1.6456103     0.7397617
  C       -2.4731170    -0.8032840     0.3122730
  C       -1.3649450     0.1785500    -0.0525630
  C        2.2798746    -0.5327219    -0.1667191
  C       -3.8468580    -0.3344400    -0.1480570
  H        0.9550610     0.8289670    -1.1997950
  H        0.0672430    -1.2232590     0.4643770
  H        1.5293690     1.3045580     1.7644240
  H        2.2851470     2.1591780     0.4026320
  H        0.5420990     2.3541860     0.7225810
  H       -2.2325720    -1.7800520    -0.1237300
  H       -2.4588320    -0.9441430     1.3993390
  H       -4.0995650     0.6270340     0.3028840
  H       -3.8738130    -0.2132220    -1.2332140
  H       -4.6116960    -1.0622230     0.1365660
units angstrom
no_reorient  #important for SAPT in psi4, default
symmetry c1  #important for SAPT in psi4, default
}

set PROPERTIES_ORIGIN ["COM"]
properties('MP2/aug-cc-pvtz', properties = ['dipole'])
--------------------------------------------------------------------------

    Molecular point group: c1
  Charge       = -1
  Multiplicity = 1
  Basis Set: AUG-CC-PVTZ
    Blend: AUG-CC-PVTZ
  Basis Set: (AUG-CC-PVTZ AUX)
    Blend: AUG-CC-PVTZ-JKFIT

    Orbital Energies [Eh]
    ---------------------

    Doubly Occupied:

       1A    -20.391636     2A    -20.320457     3A    -20.315314
       4A    -15.437909     5A    -11.223490     6A    -11.161655
       7A    -11.135280     8A    -11.124264     9A    -11.114690
      10A    -11.075603    11A     -1.241468    12A     -1.190421
      13A     -1.097517    14A     -1.080142    15A     -0.949199
      16A     -0.878778    17A     -0.783918    18A     -0.720483
      19A     -0.639341    20A     -0.588548    21A     -0.542219
      22A     -0.533003    23A     -0.511631    24A     -0.482784
      25A     -0.465002    26A     -0.438262    27A     -0.426337
      28A     -0.419287    29A     -0.413568    30A     -0.404106
      31A     -0.395885    32A     -0.376744    33A     -0.368899
      34A     -0.341893    35A     -0.299484    36A     -0.257324
      37A     -0.236171    38A     -0.223053    39A     -0.215696

  @DF-RHF Final Energy:  -512.33578148868094

   => Energetics <=

    Nuclear Repulsion Energy =            533.4016553615106204
    One-Electron Energy =               -1771.8319501659516391
    Two-Electron Energy =                 726.0945133157600822
    Total Energy =                       -512.3357814886809365
  Basis Set: (AUG-CC-PVTZ AUX)
    Blend: AUG-CC-PVTZ-RI
    Molecular point group: c1

    Geometry (in Angstrom), charge = -1, multiplicity = 1:

       Center              X                  Y                   Z               Mass
    ------------   -----------------  -----------------  -----------------  -----------------
         O           -1.685757779956     1.302267260896    -0.546299823108    15.994914619570
         O            1.935795220044    -1.714853739104     0.211141176892    15.994914619570
         O            3.296955220044    -0.044866739104    -0.522583823108    15.994914619570
         N           -0.198107779956    -0.233749739104     0.250567176892    14.003074004430
         C            1.004206220044     0.475453260896    -0.155328823108    12.000000000000
         C            1.306803020044     1.659495560896     0.756909876892    12.000000000000
         C           -2.556463779956    -0.789398739104     0.329421176892    12.000000000000
         C           -1.448291779956     0.192435260896    -0.035414823108    12.000000000000
         C            2.196527820044    -0.518836639104    -0.149570923108    12.000000000000
         C           -3.930204779956    -0.320554739104    -0.130908823108    12.000000000000
         H            0.871714220044     0.842852260896    -1.182646823108     1.007825032230
         H           -0.016103779956    -1.209373739104     0.481525176892     1.007825032230
         H            1.446022220044     1.318443260896     1.781572176892     1.007825032230
         H            2.201800220044     2.173063260896     0.419780176892     1.007825032230
         H            0.458752220044     2.368071260896     0.739729176892     1.007825032230
         H           -2.315918779956    -1.766166739104    -0.106581823108     1.007825032230
         H           -2.542178779956    -0.930257739104     1.416487176892     1.007825032230
         H           -4.182911779956     0.640919260896     0.320032176892     1.007825032230
         H           -3.957159779956    -0.199336739104    -1.216065823108     1.007825032230
         H           -4.695042779956    -1.048337739104     0.153714176892     1.007825032230

  Basis Set: AUG-CC-PVTZ
    Blend: AUG-CC-PVTZ
  Basis Set: (AUG-CC-PVTZ AUX)
    Blend: AUG-CC-PVTZ-JKFIT
	 Reference Energy          =    -512.3357814886809365 [Eh]
	 Singles Energy            =      -0.0000000000000000 [Eh]
	 Same-Spin Energy          =      -0.5201574500914325 [Eh]
	 Opposite-Spin Energy      =      -1.6213296136466622 [Eh]
	 Correlation Energy        =      -2.1414870637380945 [Eh]
	 Total Energy              =    -514.4772685524189910 [Eh]

	 ================> DF-SCS-MP2 Energies <==================
	-----------------------------------------------------------
	 SCS Same-Spin Scale       =       0.3333333333333333 [-]
	 SCS Opposite-Spin Scale   =       1.2000000000000000 [-]
	 SCS Same-Spin Energy      =      -0.1733858166971442 [Eh]
	 SCS Opposite-Spin Energy  =      -1.9455955363759945 [Eh]
	 SCS Correlation Energy    =      -2.1189813530731385 [Eh]
	 SCS Total Energy          =    -514.4547628417540182 [Eh]
	-----------------------------------------------------------

  Dipole Moment: [D]
     X:    -8.6306      Y:     0.6718      Z:     1.5842     Total:     8.8005

*** Psi4 exiting successfully. Buy a developer a beer!
