                               Psi4 1.3.2 release

  ==> Input File <==

--------------------------------------------------------------------------
#psi4
#
memory 32 gb

molecule  {
-1 1
  O       -1.6024110     1.2883820    -0.5634480
  O        2.0191420    -1.7287390     0.1939930
  O        3.3803020    -0.0587520    -0.5397320
  N       -0.0900339    -0.1866230     0.2074943
  C        1.0875530     0.4615680    -0.1724770
  C        1.3782960     1.6508690     0.7367710
  C       -2.5261554    -0.7505413     0.2843765
  C       -1.3649450     0.1785500    -0.0525630
  C        2.2731730    -0.5407160    -0.1753640
  C       -3.8468580    -0.3344400    -0.1480570
  H        0.9550610     0.8289670    -1.1997950
  H        0.0672430    -1.2232590     0.4643770
  H        1.5293690     1.3045580     1.7644240
  H        2.2851470     2.1591780     0.4026320
  H        0.5420990     2.3541860     0.7225810
  H       -2.2325720    -1.7800520    -0.1237300
  H       -2.4588320    -0.9441430     1.3993390
  H       -4.0995650     0.6270340     0.3028840
  H       -3.8738130    -0.2132220    -1.2332140
  H       -4.6116960    -1.0622230     0.1365660
units angstrom
no_reorient  #important for SAPT in psi4, default
symmetry c1  #important for SAPT in psi4, default
}

set PROPERTIES_ORIGIN ["COM"]
properties('MP2/aug-cc-pvtz', properties = ['dipole'])
--------------------------------------------------------------------------

    Molecular point group: c1
  Charge       = -1
  Multiplicity = 1
  Basis Set: AUG-CC-PVTZ
    Blend: AUG-CC-PVTZ
  Basis Set: (AUG-CC-PVTZ AUX)
    Blend: AUG-CC-PVTZ-JKFIT

    Orbital Energies [Eh]
    ---------------------

    Doubly Occupied:

       1A    -20.386716     2A    -20.323176     3A    -20.313840
       4A    -15.440356     5A    -11.223240     6A    -11.162357
       7A    -11.143724     8A    -11.123920     9A    -11.110607
      10A    -11.073363    11A     -1.242299    12A     -1.191035
      13A     -1.097879    14A     -1.082977    15A     -0.963530
      16A     -0.879533    17A     -0.784493    18A     -0.723582
      19A     -0.623522    20A     -0.590887    21A     -0.552060
      22A     -0.531598    23A     -0.511390    24A     -0.482884
      25A     -0.470573    26A     -0.452184    27A     -0.430874
      28A     -0.417813    29A     -0.410996    30A     -0.401429
      31A     -0.392798    32A     -0.369161    33A     -0.365553
      34A     -0.340784    35A     -0.296895    36A     -0.250994
      37A     -0.237041    38A     -0.223212    39A     -0.215115

  @DF-RHF Final Energy:  -512.31946002020061

   => Energetics <=

    Nuclear Repulsion Energy =            534.5133418540472121
    One-Electron Energy =               -1773.9968242590675800
    Two-Electron Energy =                 727.1640223848197593
    Total Energy =                       -512.3194600202006086
  Basis Set: (AUG-CC-PVTZ AUX)
    Blend: AUG-CC-PVTZ-RI
    Molecular point group: c1

    Geometry (in Angstrom), charge = -1, multiplicity = 1:

       Center              X                  Y                   Z               Mass
    ------------   -----------------  -----------------  -----------------  -----------------
         O           -1.682197814760     1.292171593197    -0.540487137975    15.994914619570
         O            1.939355185240    -1.724949406803     0.216953862025    15.994914619570
         O            3.300515185240    -0.054962406803    -0.516771137975    15.994914619570
         N           -0.169820714760    -0.182833406803     0.230455162025    14.003074004430
         C            1.007766185240     0.465357593197    -0.149516137975    12.000000000000
         C            1.298509185240     1.654658593197     0.759731862025    12.000000000000
         C           -2.605942214760    -0.746751706803     0.307337362025    12.000000000000
         C           -1.444731814760     0.182339593197    -0.029602137975    12.000000000000
         C            2.193386185240    -0.536926406803    -0.152403137975    12.000000000000
         C           -3.926644814760    -0.330650406803    -0.125096137975    12.000000000000
         H            0.875274185240     0.832756593197    -1.176834137975     1.007825032230
         H           -0.012543814760    -1.219469406803     0.487337862025     1.007825032230
         H            1.449582185240     1.308347593197     1.787384862025     1.007825032230
         H            2.205360185240     2.162967593197     0.425592862025     1.007825032230
         H            0.462312185240     2.357975593197     0.745541862025     1.007825032230
         H           -2.312358814760    -1.776262406803    -0.100769137975     1.007825032230
         H           -2.538618814760    -0.940353406803     1.422299862025     1.007825032230
         H           -4.179351814760     0.630823593197     0.325844862025     1.007825032230
         H           -3.953599814760    -0.209432406803    -1.210253137975     1.007825032230
         H           -4.691482814760    -1.058433406803     0.159526862025     1.007825032230

  Basis Set: AUG-CC-PVTZ
    Blend: AUG-CC-PVTZ
  Basis Set: (AUG-CC-PVTZ AUX)
    Blend: AUG-CC-PVTZ-JKFIT
	 Reference Energy          =    -512.3194600202006086 [Eh]
	 Singles Energy            =      -0.0000000000000000 [Eh]
	 Same-Spin Energy          =      -0.5218498487249525 [Eh]
	 Opposite-Spin Energy      =      -1.6233752200424485 [Eh]
	 Correlation Energy        =      -2.1452250687674010 [Eh]
	 Total Energy              =    -514.4646850889680536 [Eh]

	 ================> DF-SCS-MP2 Energies <==================
	-----------------------------------------------------------
	 SCS Same-Spin Scale       =       0.3333333333333333 [-]
	 SCS Opposite-Spin Scale   =       1.2000000000000000 [-]
	 SCS Same-Spin Energy      =      -0.1739499495749842 [Eh]
	 SCS Opposite-Spin Energy  =      -1.9480502640509381 [Eh]
	 SCS Correlation Energy    =      -2.1220002136259222 [Eh]
	 SCS Total Energy          =    -514.4414602338265468 [Eh]
	-----------------------------------------------------------

  Dipole Moment: [D]
     X:    -8.8042      Y:     0.5455      Z:     1.6016     Total:     8.9653

*** Psi4 exiting successfully. Buy a developer a beer!
