                               Psi4 1.3.2 release

  ==> Input File <==

--------------------------------------------------------------------------
#psi4
#
memory 32 gb

molecule  {
-1 1
  O       -1.6024110     1.2883820    -0.5634480
  O        2.0191420    -1.7287390     0.1939930
  O        3.3803020    -0.0587520    -0.5397320
  N       -0.1204084    -0.2144938     0.2714252
  C        1.0875530     0.4615680    -0.1724770
  C        1.3347661     1.6387927     0.7649280
  C       -2.4731170    -0.8032840     0.3122730
  C       -1.3649450     0.1785500    -0.0525630
  C        2.2731730    -0.5407160    -0.1753640
  C       -3.8468580    -0.3344400    -0.1480570
  H        0.9550610     0.8289670    -1.1997950
  H        0.0672430    -1.2232590     0.4643770
  H        1.5293690     1.3045580     1.7644240
  H        2.2851470     2.1591780     0.4026320
  H        0.5420990     2.3541860     0.7225810
  H       -2.2325720    -1.7800520    -0.1237300
  H       -2.4588320    -0.9441430     1.3993390
  H       -4.0995650     0.6270340     0.3028840
  H       -3.8738130    -0.2132220    -1.2332140
  H       -4.6116960    -1.0622230     0.1365660
units angstrom
no_reorient  #important for SAPT in psi4, default
symmetry c1  #important for SAPT in psi4, default
}

set PROPERTIES_ORIGIN ["COM"]
properties('MP2/aug-cc-pvtz', properties = ['dipole'])
--------------------------------------------------------------------------

    Molecular point group: c1
  Charge       = -1
  Multiplicity = 1
  Basis Set: AUG-CC-PVTZ
    Blend: AUG-CC-PVTZ
  Basis Set: (AUG-CC-PVTZ AUX)
    Blend: AUG-CC-PVTZ-JKFIT

    Orbital Energies [Eh]
    ---------------------

    Doubly Occupied:

       1A    -20.390608     2A    -20.323836     3A    -20.315024
       4A    -15.438147     5A    -11.222067     6A    -11.163614
       7A    -11.135452     8A    -11.124286     9A    -11.115235
      10A    -11.074607    11A     -1.241756    12A     -1.191527
      13A     -1.096602    14A     -1.081827    15A     -0.949397
      16A     -0.878397    17A     -0.782566    18A     -0.722003
      19A     -0.633970    20A     -0.587950    21A     -0.543367
      22A     -0.533361    23A     -0.512375    24A     -0.481753
      25A     -0.466921    26A     -0.439272    27A     -0.425551
      28A     -0.420761    29A     -0.413399    30A     -0.403467
      31A     -0.396781    32A     -0.375110    33A     -0.360683
      34A     -0.343623    35A     -0.299276    36A     -0.257273
      37A     -0.237945    38A     -0.224420    39A     -0.217042

  @DF-RHF Final Energy:  -512.33096376678179

   => Energetics <=

    Nuclear Repulsion Energy =            533.6038673436312365
    One-Electron Energy =               -1772.2271596073940145
    Two-Electron Energy =                 726.2923284969809856
    Total Energy =                       -512.3309637667817924
  Basis Set: (AUG-CC-PVTZ AUX)
    Blend: AUG-CC-PVTZ-RI
    Molecular point group: c1

    Geometry (in Angstrom), charge = -1, multiplicity = 1:

       Center              X                  Y                   Z               Mass
    ------------   -----------------  -----------------  -----------------  -----------------
         O           -1.680037456146     1.300279712546    -0.551370138696    15.994914619570
         O            1.941515543854    -1.716841287454     0.206070861304    15.994914619570
         O            3.302675543854    -0.046854287454    -0.527654138696    15.994914619570
         N           -0.198034856146    -0.202596087454     0.283503061304    14.003074004430
         C            1.009926543854     0.473465712546    -0.160399138696    12.000000000000
         C            1.257139643854     1.650690412546     0.777005861304    12.000000000000
         C           -2.550743456146    -0.791386287454     0.324350861304    12.000000000000
         C           -1.442571456146     0.190447712546    -0.040485138696    12.000000000000
         C            2.195546543854    -0.528818287454    -0.163286138696    12.000000000000
         C           -3.924484456146    -0.322542287454    -0.135979138696    12.000000000000
         H            0.877434543854     0.840864712546    -1.187717138696     1.007825032230
         H           -0.010383456146    -1.211361287454     0.476454861304     1.007825032230
         H            1.451742543854     1.316455712546     1.776501861304     1.007825032230
         H            2.207520543854     2.171075712546     0.414709861304     1.007825032230
         H            0.464472543854     2.366083712546     0.734658861304     1.007825032230
         H           -2.310198456146    -1.768154287454    -0.111652138696     1.007825032230
         H           -2.536458456146    -0.932245287454     1.411416861304     1.007825032230
         H           -4.177191456146     0.638931712546     0.314961861304     1.007825032230
         H           -3.951439456146    -0.201324287454    -1.221136138696     1.007825032230
         H           -4.689322456146    -1.050325287454     0.148643861304     1.007825032230

  Basis Set: AUG-CC-PVTZ
    Blend: AUG-CC-PVTZ
  Basis Set: (AUG-CC-PVTZ AUX)
    Blend: AUG-CC-PVTZ-JKFIT
	 Reference Energy          =    -512.3309637667817924 [Eh]
	 Singles Energy            =      -0.0000000000000000 [Eh]
	 Same-Spin Energy          =      -0.5205532971669078 [Eh]
	 Opposite-Spin Energy      =      -1.6221602065529672 [Eh]
	 Correlation Energy        =      -2.1427135037198752 [Eh]
	 Total Energy              =    -514.4736772705016392 [Eh]

	 ================> DF-SCS-MP2 Energies <==================
	-----------------------------------------------------------
	 SCS Same-Spin Scale       =       0.3333333333333333 [-]
	 SCS Opposite-Spin Scale   =       1.2000000000000000 [-]
	 SCS Same-Spin Energy      =      -0.1735177657223026 [Eh]
	 SCS Opposite-Spin Energy  =      -1.9465922478635607 [Eh]
	 SCS Correlation Energy    =      -2.1201100135858635 [Eh]
	 SCS Total Energy          =    -514.4510737803676648 [Eh]
	-----------------------------------------------------------

  Dipole Moment: [D]
     X:    -8.6619      Y:     0.5582      Z:     1.5783     Total:     8.8222

*** Psi4 exiting successfully. Buy a developer a beer!
