                               Psi4 1.3.2 release

  ==> Input File <==

--------------------------------------------------------------------------
#psi4
#
memory 32 gb

molecule  {
-1 1
  O       -1.6024110     1.2883820    -0.5634480
  O        2.0191420    -1.7287390     0.1939930
  O        3.3803020    -0.0587520    -0.5397320
  N       -0.1147610    -0.2476350     0.2334190
  C        1.0875530     0.4615680    -0.1724770
  C        1.3782960     1.6508690     0.7367710
  C       -2.4731170    -0.8032840     0.3122730
  C       -1.5388279     0.2765513    -0.0652317
  C        2.2731730    -0.5407160    -0.1753640
  C       -3.8468580    -0.3344400    -0.1480570
  H        0.9550610     0.8289670    -1.1997950
  H        0.0672430    -1.2232590     0.4643770
  H        1.5293690     1.3045580     1.7644240
  H        2.2851470     2.1591780     0.4026320
  H        0.5420990     2.3541860     0.7225810
  H       -2.2325720    -1.7800520    -0.1237300
  H       -2.4588320    -0.9441430     1.3993390
  H       -4.0995650     0.6270340     0.3028840
  H       -3.8738130    -0.2132220    -1.2332140
  H       -4.6116960    -1.0622230     0.1365660
units angstrom
no_reorient  #important for SAPT in psi4, default
symmetry c1  #important for SAPT in psi4, default
}

set PROPERTIES_ORIGIN ["COM"]
properties('MP2/aug-cc-pvtz', properties = ['dipole'])
--------------------------------------------------------------------------

    Molecular point group: c1
  Charge       = -1
  Multiplicity = 1
  Basis Set: AUG-CC-PVTZ
    Blend: AUG-CC-PVTZ
  Basis Set: (AUG-CC-PVTZ AUX)
    Blend: AUG-CC-PVTZ-JKFIT

    Orbital Energies [Eh]
    ---------------------

    Doubly Occupied:

       1A    -20.432286     2A    -20.307906     3A    -20.301629
       4A    -15.397370     5A    -11.233875     6A    -11.148018
       7A    -11.143228     8A    -11.133442     9A    -11.095996
      10A    -11.064483    11A     -1.338032    12A     -1.176874
      13A     -1.077480    14A     -1.029727    15A     -0.968376
      16A     -0.851920    17A     -0.789117    18A     -0.696346
      19A     -0.632885    20A     -0.589756    21A     -0.548169
      22A     -0.542205    23A     -0.530993    24A     -0.483603
      25A     -0.462167    26A     -0.443887    27A     -0.441729
      28A     -0.427063    29A     -0.412134    30A     -0.408017
      31A     -0.392634    32A     -0.382288    33A     -0.356814
      34A     -0.333187    35A     -0.302904    36A     -0.227433
      37A     -0.221188    38A     -0.208248    39A     -0.199307

  @DF-RHF Final Energy:  -512.29014994849058

   => Energetics <=

    Nuclear Repulsion Energy =            532.7758558309100181
    One-Electron Energy =               -1770.6665759748320852
    Two-Electron Energy =                 725.6005701954313736
    Total Energy =                       -512.2901499484905798
  Basis Set: (AUG-CC-PVTZ AUX)
    Blend: AUG-CC-PVTZ-RI
    Molecular point group: c1

    Geometry (in Angstrom), charge = -1, multiplicity = 1:

       Center              X                  Y                   Z               Mass
    ------------   -----------------  -----------------  -----------------  -----------------
         O           -1.669728609250     1.294332076613    -0.544275393596    15.994914619570
         O            1.951824390750    -1.722788923387     0.213165606404    15.994914619570
         O            3.312984390750    -0.052801923387    -0.520559393596    15.994914619570
         N           -0.182078609250    -0.241684923387     0.252591606404    14.003074004430
         C            1.020235390750     0.467518076613    -0.153304393596    12.000000000000
         C            1.310978390750     1.656819076613     0.755943606404    12.000000000000
         C           -2.540434609250    -0.797333923387     0.331445606404    12.000000000000
         C           -1.606145509250     0.282501376613    -0.046059093596    12.000000000000
         C            2.205855390750    -0.534765923387    -0.156191393596    12.000000000000
         C           -3.914175609250    -0.328489923387    -0.128884393596    12.000000000000
         H            0.887743390750     0.834917076613    -1.180622393596     1.007825032230
         H           -0.000074609250    -1.217308923387     0.483549606404     1.007825032230
         H            1.462051390750     1.310508076613     1.783596606404     1.007825032230
         H            2.217829390750     2.165128076613     0.421804606404     1.007825032230
         H            0.474781390750     2.360136076613     0.741753606404     1.007825032230
         H           -2.299889609250    -1.774101923387    -0.104557393596     1.007825032230
         H           -2.526149609250    -0.938192923387     1.418511606404     1.007825032230
         H           -4.166882609250     0.632984076613     0.322056606404     1.007825032230
         H           -3.941130609250    -0.207271923387    -1.214041393596     1.007825032230
         H           -4.679013609250    -1.056272923387     0.155738606404     1.007825032230

  Basis Set: AUG-CC-PVTZ
    Blend: AUG-CC-PVTZ
  Basis Set: (AUG-CC-PVTZ AUX)
    Blend: AUG-CC-PVTZ-JKFIT
	 Reference Energy          =    -512.2901499484905798 [Eh]
	 Singles Energy            =      -0.0000000000000000 [Eh]
	 Same-Spin Energy          =      -0.5196247748087449 [Eh]
	 Opposite-Spin Energy      =      -1.6203805424141209 [Eh]
	 Correlation Energy        =      -2.1400053172228657 [Eh]
	 Total Energy              =    -514.4301552657134380 [Eh]

	 ================> DF-SCS-MP2 Energies <==================
	-----------------------------------------------------------
	 SCS Same-Spin Scale       =       0.3333333333333333 [-]
	 SCS Opposite-Spin Scale   =       1.2000000000000000 [-]
	 SCS Same-Spin Energy      =      -0.1732082582695816 [Eh]
	 SCS Opposite-Spin Energy  =      -1.9444566508969450 [Eh]
	 SCS Correlation Energy    =      -2.1176649091665265 [Eh]
	 SCS Total Energy          =    -514.4078148576570584 [Eh]
	-----------------------------------------------------------

  Dipole Moment: [D]
     X:   -10.6128      Y:     1.2300      Z:     1.1839     Total:    10.7492

*** Psi4 exiting successfully. Buy a developer a beer!
