                               Psi4 1.3.2 release

  ==> Input File <==

--------------------------------------------------------------------------
#psi4
#
memory 32 gb

molecule  {
-1 1
  O       -1.6024110     1.2883820    -0.5634480
  O        2.1138206    -1.5570432     0.1384661
  O        3.3803020    -0.0587520    -0.5397320
  N       -0.1147610    -0.2476350     0.2334190
  C        1.0875530     0.4615680    -0.1724770
  C        1.3782960     1.6508690     0.7367710
  C       -2.5260417    -0.7447003     0.3004411
  C       -1.3649450     0.1785500    -0.0525630
  C        2.2731730    -0.5407160    -0.1753640
  C       -3.8468580    -0.3344400    -0.1480570
  H        0.9550610     0.8289670    -1.1997950
  H        0.0672430    -1.2232590     0.4643770
  H        1.5293690     1.3045580     1.7644240
  H        2.2851470     2.1591780     0.4026320
  H        0.5420990     2.3541860     0.7225810
  H       -2.2325720    -1.7800520    -0.1237300
  H       -2.4588320    -0.9441430     1.3993390
  H       -4.0995650     0.6270340     0.3028840
  H       -3.8738130    -0.2132220    -1.2332140
  H       -4.6116960    -1.0622230     0.1365660
units angstrom
no_reorient  #important for SAPT in psi4, default
symmetry c1  #important for SAPT in psi4, default
}

set PROPERTIES_ORIGIN ["COM"]
properties('MP2/aug-cc-pvtz', properties = ['dipole'])
--------------------------------------------------------------------------

    Molecular point group: c1
  Charge       = -1
  Multiplicity = 1
  Basis Set: AUG-CC-PVTZ
    Blend: AUG-CC-PVTZ
  Basis Set: (AUG-CC-PVTZ AUX)
    Blend: AUG-CC-PVTZ-JKFIT

    Orbital Energies [Eh]
    ---------------------

    Doubly Occupied:

       1A    -20.390662     2A    -20.320436     3A    -20.267991
       4A    -15.441461     5A    -11.224804     6A    -11.141459
       7A    -11.123376     8A    -11.119219     9A    -11.099862
      10A    -11.067850    11A     -1.297008    12A     -1.241467
      13A     -1.090490    14A     -1.082737    15A     -0.961397
      16A     -0.873715    17A     -0.782050    18A     -0.715566
      19A     -0.638827    20A     -0.587054    21A     -0.540949
      22A     -0.531409    23A     -0.514823    24A     -0.496264
      25A     -0.475969    26A     -0.454662    27A     -0.441537
      28A     -0.430199    29A     -0.421517    30A     -0.412219
      31A     -0.393168    32A     -0.381958    33A     -0.368435
      34A     -0.348632    35A     -0.297528    36A     -0.255882
      37A     -0.221338    38A     -0.205026    39A     -0.200589

  @DF-RHF Final Energy:  -512.28372684539659

   => Energetics <=

    Nuclear Repulsion Energy =            539.6788536278623951
    One-Electron Energy =               -1784.2060906880626590
    Two-Electron Energy =                 732.2435102148035639
    Total Energy =                       -512.2837268453965862
  Basis Set: (AUG-CC-PVTZ AUX)
    Blend: AUG-CC-PVTZ-RI
    Molecular point group: c1

    Geometry (in Angstrom), charge = -1, multiplicity = 1:

       Center              X                  Y                   Z               Mass
    ------------   -----------------  -----------------  -----------------  -----------------
         O           -1.690315514693     1.278552868572    -0.538180228818    15.994914619570
         O            2.025916085307    -1.566872331428     0.163733871182    15.994914619570
         O            3.292397485307    -0.068581131428    -0.514464228818    15.994914619570
         N           -0.202665514693    -0.257464131428     0.258686771182    14.003074004430
         C            0.999648485307     0.451738868572    -0.147209228818    12.000000000000
         C            1.290391485307     1.641039868572     0.762038771182    12.000000000000
         C           -2.613946214693    -0.754529431428     0.325708871182    12.000000000000
         C           -1.452849514693     0.168720868572    -0.027295228818    12.000000000000
         C            2.185268485307    -0.550545131428    -0.150096228818    12.000000000000
         C           -3.934762514693    -0.344269131428    -0.122789228818    12.000000000000
         H            0.867156485307     0.819137868572    -1.174527228818     1.007825032230
         H           -0.020661514693    -1.233088131428     0.489644771182     1.007825032230
         H            1.441464485307     1.294728868572     1.789691771182     1.007825032230
         H            2.197242485307     2.149348868572     0.427899771182     1.007825032230
         H            0.454194485307     2.344356868572     0.747848771182     1.007825032230
         H           -2.320476514693    -1.789881131428    -0.098462228818     1.007825032230
         H           -2.546736514693    -0.953972131428     1.424606771182     1.007825032230
         H           -4.187469514693     0.617204868572     0.328151771182     1.007825032230
         H           -3.961717514693    -0.223051131428    -1.207946228818     1.007825032230
         H           -4.699600514693    -1.072052131428     0.161833771182     1.007825032230

  Basis Set: AUG-CC-PVTZ
    Blend: AUG-CC-PVTZ
  Basis Set: (AUG-CC-PVTZ AUX)
    Blend: AUG-CC-PVTZ-JKFIT
	 Reference Energy          =    -512.2837268453965862 [Eh]
	 Singles Energy            =      -0.0000000000000000 [Eh]
	 Same-Spin Energy          =      -0.5170668740421793 [Eh]
	 Opposite-Spin Energy      =      -1.6120605587038632 [Eh]
	 Correlation Energy        =      -2.1291274327460425 [Eh]
	 Total Energy              =    -514.4128542781426177 [Eh]

	 ================> DF-SCS-MP2 Energies <==================
	-----------------------------------------------------------
	 SCS Same-Spin Scale       =       0.3333333333333333 [-]
	 SCS Opposite-Spin Scale   =       1.2000000000000000 [-]
	 SCS Same-Spin Energy      =      -0.1723556246807264 [Eh]
	 SCS Opposite-Spin Energy  =      -1.9344726704446358 [Eh]
	 SCS Correlation Energy    =      -2.1068282951253621 [Eh]
	 SCS Total Energy          =    -514.3905551405219967 [Eh]
	-----------------------------------------------------------

  Dipole Moment: [D]
     X:    -9.4765      Y:    -0.5449      Z:     2.0002     Total:     9.7006

*** Psi4 exiting successfully. Buy a developer a beer!
