                               Psi4 1.3.2 release

  ==> Input File <==

--------------------------------------------------------------------------
#psi4
#
memory 32 gb

molecule  {
-1 1
  O       -1.6024110     1.2883820    -0.5634480
  O        2.0024531    -1.7568592     0.2031859
  O        3.3803020    -0.0587520    -0.5397320
  N       -0.1147610    -0.2476350     0.2334190
  C        1.0875530     0.4615680    -0.1724770
  C        1.3782960     1.6508690     0.7367710
  C       -2.4639969    -0.8127905     0.3141486
  C       -1.3649450     0.1785500    -0.0525630
  C        2.2731730    -0.5407160    -0.1753640
  C       -3.8468580    -0.3344400    -0.1480570
  H        0.9550610     0.8289670    -1.1997950
  H        0.0672430    -1.2232590     0.4643770
  H        1.5293690     1.3045580     1.7644240
  H        2.2851470     2.1591780     0.4026320
  H        0.5420990     2.3541860     0.7225810
  H       -2.2325720    -1.7800520    -0.1237300
  H       -2.4588320    -0.9441430     1.3993390
  H       -4.0995650     0.6270340     0.3028840
  H       -3.8738130    -0.2132220    -1.2332140
  H       -4.6116960    -1.0622230     0.1365660
units angstrom
no_reorient  #important for SAPT in psi4, default
symmetry c1  #important for SAPT in psi4, default
}

set PROPERTIES_ORIGIN ["COM"]
properties('MP2/aug-cc-pvtz', properties = ['dipole'])
--------------------------------------------------------------------------

    Molecular point group: c1
  Charge       = -1
  Multiplicity = 1
  Basis Set: AUG-CC-PVTZ
    Blend: AUG-CC-PVTZ
  Basis Set: (AUG-CC-PVTZ AUX)
    Blend: AUG-CC-PVTZ-JKFIT

    Orbital Energies [Eh]
    ---------------------

    Doubly Occupied:

       1A    -20.391969     2A    -20.322258     3A    -20.320901
       4A    -15.437359     5A    -11.223445     6A    -11.168177
       7A    -11.134535     8A    -11.124501     9A    -11.116842
      10A    -11.076812    11A     -1.241531    12A     -1.182998
      13A     -1.096354    14A     -1.075890    15A     -0.947646
      16A     -0.879162    17A     -0.784267    18A     -0.722140
      19A     -0.639643    20A     -0.589272    21A     -0.542704
      22A     -0.533608    23A     -0.511865    24A     -0.482002
      25A     -0.464675    26A     -0.437889    27A     -0.423983
      28A     -0.418628    29A     -0.413053    30A     -0.402468
      31A     -0.396946    32A     -0.376315    33A     -0.368910
      34A     -0.339196    35A     -0.299917    36A     -0.257287
      37A     -0.237312    38A     -0.225005    39A     -0.216239

  @DF-RHF Final Energy:  -512.33193154985042

   => Energetics <=

    Nuclear Repulsion Energy =            532.5177734985522875
    One-Electron Energy =               -1770.0520019375417178
    Two-Electron Energy =                 725.2022968891390065
    Total Energy =                       -512.3319315498504238
  Basis Set: (AUG-CC-PVTZ AUX)
    Blend: AUG-CC-PVTZ-RI
    Molecular point group: c1

    Geometry (in Angstrom), charge = -1, multiplicity = 1:

       Center              X                  Y                   Z               Mass
    ------------   -----------------  -----------------  -----------------  -----------------
         O           -1.683118982803     1.306408992572    -0.546507503174    15.994914619570
         O            1.921745117197    -1.738832207428     0.220126396826    15.994914619570
         O            3.299594017197    -0.040725007428    -0.522791503174    15.994914619570
         N           -0.195468982803    -0.229608007428     0.250359496826    14.003074004430
         C            1.006845017197     0.479594992572    -0.155536503174    12.000000000000
         C            1.297588017197     1.668895992572     0.753711496826    12.000000000000
         C           -2.544704882803    -0.794763507428     0.331089096826    12.000000000000
         C           -1.445652982803     0.196576992572    -0.035622503174    12.000000000000
         C            2.192465017197    -0.522689007428    -0.158423503174    12.000000000000
         C           -3.927565982803    -0.316413007428    -0.131116503174    12.000000000000
         H            0.874353017197     0.846993992572    -1.182854503174     1.007825032230
         H           -0.013464982803    -1.205232007428     0.481317496826     1.007825032230
         H            1.448661017197     1.322584992572     1.781364496826     1.007825032230
         H            2.204439017197     2.177204992572     0.419572496826     1.007825032230
         H            0.461391017197     2.372212992572     0.739521496826     1.007825032230
         H           -2.313279982803    -1.762025007428    -0.106789503174     1.007825032230
         H           -2.539539982803    -0.926116007428     1.416279496826     1.007825032230
         H           -4.180272982803     0.645060992572     0.319824496826     1.007825032230
         H           -3.954520982803    -0.195195007428    -1.216273503174     1.007825032230
         H           -4.692403982803    -1.044196007428     0.153506496826     1.007825032230

  Basis Set: AUG-CC-PVTZ
    Blend: AUG-CC-PVTZ
  Basis Set: (AUG-CC-PVTZ AUX)
    Blend: AUG-CC-PVTZ-JKFIT
	 Reference Energy          =    -512.3319315498504238 [Eh]
	 Singles Energy            =      -0.0000000000000000 [Eh]
	 Same-Spin Energy          =      -0.5207450525001402 [Eh]
	 Opposite-Spin Energy      =      -1.6230513900103962 [Eh]
	 Correlation Energy        =      -2.1437964425105367 [Eh]
	 Total Energy              =    -514.4757279923609303 [Eh]

	 ================> DF-SCS-MP2 Energies <==================
	-----------------------------------------------------------
	 SCS Same-Spin Scale       =       0.3333333333333333 [-]
	 SCS Opposite-Spin Scale   =       1.2000000000000000 [-]
	 SCS Same-Spin Energy      =      -0.1735816841667134 [Eh]
	 SCS Opposite-Spin Energy  =      -1.9476616680124754 [Eh]
	 SCS Correlation Energy    =      -2.1212433521791887 [Eh]
	 SCS Total Energy          =    -514.4531749020295592 [Eh]
	-----------------------------------------------------------

  Dipole Moment: [D]
     X:    -8.5568      Y:     0.8108      Z:     1.5381     Total:     8.7317

*** Psi4 exiting successfully. Buy a developer a beer!
