                               Psi4 1.3.2 release

  ==> Input File <==

--------------------------------------------------------------------------
#psi4
#
memory 32 gb

molecule  {
-1 1
  O       -1.6024110     1.2883820    -0.5634480
  O        2.0191420    -1.7287390     0.1939930
  O        3.3803020    -0.0587520    -0.5397320
  N       -0.1147610    -0.2476350     0.2334190
  C        1.0444052     0.4509107    -0.1431820
  C        1.3782960     1.6508690     0.7367710
  C       -2.4731170    -0.8032840     0.3122730
  C       -1.3649450     0.1785500    -0.0525630
  C        2.2731730    -0.5407160    -0.1753640
  C       -3.8468580    -0.3344400    -0.1480570
  H        0.9550610     0.8289670    -1.1997950
  H        0.0672430    -1.2232590     0.4643770
  H        1.5293690     1.3045580     1.7644240
  H        2.2809164     2.1840673     0.4311870
  H        0.5420990     2.3541860     0.7225810
  H       -2.2325720    -1.7800520    -0.1237300
  H       -2.4588320    -0.9441430     1.3993390
  H       -4.0995650     0.6270340     0.3028840
  H       -3.8738130    -0.2132220    -1.2332140
  H       -4.6116960    -1.0622230     0.1365660
units angstrom
no_reorient  #important for SAPT in psi4, default
symmetry c1  #important for SAPT in psi4, default
}

set PROPERTIES_ORIGIN ["COM"]
properties('MP2/aug-cc-pvtz', properties = ['dipole'])
--------------------------------------------------------------------------

    Molecular point group: c1
  Charge       = -1
  Multiplicity = 1
  Basis Set: AUG-CC-PVTZ
    Blend: AUG-CC-PVTZ
  Basis Set: (AUG-CC-PVTZ AUX)
    Blend: AUG-CC-PVTZ-JKFIT

    Orbital Energies [Eh]
    ---------------------

    Doubly Occupied:

       1A    -20.394269     2A    -20.321446     3A    -20.313888
       4A    -15.440430     5A    -11.225865     6A    -11.162356
       7A    -11.136913     8A    -11.125432     9A    -11.113188
      10A    -11.074109    11A     -1.244852    12A     -1.189389
      13A     -1.103993    14A     -1.084163    15A     -0.951342
      16A     -0.875914    17A     -0.787082    18A     -0.719724
      19A     -0.641559    20A     -0.591633    21A     -0.546477
      22A     -0.533796    23A     -0.509691    24A     -0.485211
      25A     -0.467390    26A     -0.437975    27A     -0.426362
      28A     -0.419727    29A     -0.414461    30A     -0.401616
      31A     -0.395678    32A     -0.381107    33A     -0.368302
      34A     -0.338542    35A     -0.301833    36A     -0.255978
      37A     -0.235359    38A     -0.219648    39A     -0.214687

  @DF-RHF Final Energy:  -512.33213284078636

   => Energetics <=

    Nuclear Repulsion Energy =            533.8109134308003831
    One-Electron Energy =               -1772.5833209506051844
    Two-Electron Energy =                 726.4402746790184437
    Total Energy =                       -512.3321328407863575
  Basis Set: (AUG-CC-PVTZ AUX)
    Blend: AUG-CC-PVTZ-RI
    Molecular point group: c1

    Geometry (in Angstrom), charge = -1, multiplicity = 1:

       Center              X                  Y                   Z               Mass
    ------------   -----------------  -----------------  -----------------  -----------------
         O           -1.680588609214     1.303208692436    -0.547970523550    15.994914619570
         O            1.940964390786    -1.713912307564     0.209470476450    15.994914619570
         O            3.302124390786    -0.043925307564    -0.524254523550    15.994914619570
         N           -0.192938609214    -0.232808307564     0.248896476450    14.003074004430
         C            0.966227590786     0.465737392436    -0.127704523550    12.000000000000
         C            1.300118390786     1.665695692436     0.752248476450    12.000000000000
         C           -2.551294609214    -0.788457307564     0.327750476450    12.000000000000
         C           -1.443122609214     0.193376692436    -0.037085523550    12.000000000000
         C            2.194995390786    -0.525889307564    -0.159886523550    12.000000000000
         C           -3.925035609214    -0.319613307564    -0.132579523550    12.000000000000
         H            0.876883390786     0.843793692436    -1.184317523550     1.007825032230
         H           -0.010934609214    -1.208432307564     0.479854476450     1.007825032230
         H            1.451191390786     1.319384692436     1.779901476450     1.007825032230
         H            2.202738790786     2.198893992436     0.446664476450     1.007825032230
         H            0.463921390786     2.369012692436     0.738058476450     1.007825032230
         H           -2.310749609214    -1.765225307564    -0.108252523550     1.007825032230
         H           -2.537009609214    -0.929316307564     1.414816476450     1.007825032230
         H           -4.177742609214     0.641860692436     0.318361476450     1.007825032230
         H           -3.951990609214    -0.198395307564    -1.217736523550     1.007825032230
         H           -4.689873609214    -1.047396307564     0.152043476450     1.007825032230

  Basis Set: AUG-CC-PVTZ
    Blend: AUG-CC-PVTZ
  Basis Set: (AUG-CC-PVTZ AUX)
    Blend: AUG-CC-PVTZ-JKFIT
	 Reference Energy          =    -512.3321328407863575 [Eh]
	 Singles Energy            =      -0.0000000000000000 [Eh]
	 Same-Spin Energy          =      -0.5206231469098865 [Eh]
	 Opposite-Spin Energy      =      -1.6216189665859728 [Eh]
	 Correlation Energy        =      -2.1422421134958594 [Eh]
	 Total Energy              =    -514.4743749542822115 [Eh]

	 ================> DF-SCS-MP2 Energies <==================
	-----------------------------------------------------------
	 SCS Same-Spin Scale       =       0.3333333333333333 [-]
	 SCS Opposite-Spin Scale   =       1.2000000000000000 [-]
	 SCS Same-Spin Energy      =      -0.1735410489699622 [Eh]
	 SCS Opposite-Spin Energy  =      -1.9459427599031673 [Eh]
	 SCS Correlation Energy    =      -2.1194838088731296 [Eh]
	 SCS Total Energy          =    -514.4516166496595133 [Eh]
	-----------------------------------------------------------

  Dipole Moment: [D]
     X:    -8.8126      Y:     0.5727      Z:     1.6439     Total:     8.9829

*** Psi4 exiting successfully. Buy a developer a beer!
