                               Psi4 1.3.2 release

  ==> Input File <==

--------------------------------------------------------------------------
#psi4
#
memory 32 gb

molecule  {
-1 1
  O       -1.6024110     1.2883820    -0.5634480
  O        2.0191420    -1.7287390     0.1939930
  O        3.3803020    -0.0587520    -0.5397320
  N       -0.1214216    -0.2369024     0.2322438
  C        1.0875530     0.4615680    -0.1724770
  C        1.3782960     1.6508690     0.7367710
  C       -2.4731170    -0.8032840     0.3122730
  C       -1.3649450     0.1785500    -0.0525630
  C        2.2814827    -0.5307833    -0.1793442
  C       -3.8468580    -0.3344400    -0.1480570
  H        0.9550610     0.8289670    -1.1997950
  H        0.0672430    -1.2232590     0.4643770
  H        1.5293690     1.3045580     1.7644240
  H        2.2851470     2.1591780     0.4026320
  H        0.5420990     2.3541860     0.7225810
  H       -2.2325720    -1.7800520    -0.1237300
  H       -2.4588320    -0.9441430     1.3993390
  H       -4.0995650     0.6270340     0.3028840
  H       -3.8738130    -0.2132220    -1.2332140
  H       -4.6116960    -1.0622230     0.1365660
units angstrom
no_reorient  #important for SAPT in psi4, default
symmetry c1  #important for SAPT in psi4, default
}

set PROPERTIES_ORIGIN ["COM"]
properties('MP2/aug-cc-pvtz', properties = ['dipole'])
--------------------------------------------------------------------------

    Molecular point group: c1
  Charge       = -1
  Multiplicity = 1
  Basis Set: AUG-CC-PVTZ
    Blend: AUG-CC-PVTZ
  Basis Set: (AUG-CC-PVTZ AUX)
    Blend: AUG-CC-PVTZ-JKFIT

    Orbital Energies [Eh]
    ---------------------

    Doubly Occupied:

       1A    -20.389340     2A    -20.319899     3A    -20.317650
       4A    -15.438515     5A    -11.221519     6A    -11.162716
       7A    -11.134850     8A    -11.123854     9A    -11.115197
      10A    -11.075904    11A     -1.241039    12A     -1.191498
      13A     -1.098713    14A     -1.080169    15A     -0.948823
      16A     -0.879584    17A     -0.783384    18A     -0.721739
      19A     -0.637365    20A     -0.588398    21A     -0.543284
      22A     -0.532811    23A     -0.510839    24A     -0.481686
      25A     -0.465788    26A     -0.438598    27A     -0.426169
      28A     -0.419666    29A     -0.413290    30A     -0.403664
      31A     -0.396667    32A     -0.375173    33A     -0.369502
      34A     -0.341541    35A     -0.298649    36A     -0.256997
      37A     -0.236501    38A     -0.224413    39A     -0.216794

  @DF-RHF Final Energy:  -512.33578864536719

   => Energetics <=

    Nuclear Repulsion Energy =            533.4911284682273163
    One-Electron Energy =               -1772.0094579805856938
    Two-Electron Energy =                 726.1825408669911894
    Total Energy =                       -512.3357886453671881
  Basis Set: (AUG-CC-PVTZ AUX)
    Blend: AUG-CC-PVTZ-RI
    Molecular point group: c1

    Geometry (in Angstrom), charge = -1, multiplicity = 1:

       Center              X                  Y                   Z               Mass
    ------------   -----------------  -----------------  -----------------  -----------------
         O           -1.684256959691     1.300624563243    -0.544884874986    15.994914619570
         O            1.937296040309    -1.716496436757     0.212556125014    15.994914619570
         O            3.298456040309    -0.046509436757    -0.521168874986    15.994914619570
         N           -0.203267559691    -0.224659836757     0.250806925014    14.003074004430
         C            1.005707040309     0.473810563243    -0.153913874986    12.000000000000
         C            1.296450040309     1.663111563243     0.755334125014    12.000000000000
         C           -2.554962959691    -0.791041436757     0.330836125014    12.000000000000
         C           -1.446790959691     0.190792563243    -0.033999874986    12.000000000000
         C            2.199636740309    -0.518540736757    -0.160781074986    12.000000000000
         C           -3.928703959691    -0.322197436757    -0.129493874986    12.000000000000
         H            0.873215040309     0.841209563243    -1.181231874986     1.007825032230
         H           -0.014602959691    -1.211016436757     0.482940125014     1.007825032230
         H            1.447523040309     1.316800563243     1.782987125014     1.007825032230
         H            2.203301040309     2.171420563243     0.421195125014     1.007825032230
         H            0.460253040309     2.366428563243     0.741144125014     1.007825032230
         H           -2.314417959691    -1.767809436757    -0.105166874986     1.007825032230
         H           -2.540677959691    -0.931900436757     1.417902125014     1.007825032230
         H           -4.181410959691     0.639276563243     0.321447125014     1.007825032230
         H           -3.955658959691    -0.200979436757    -1.214650874986     1.007825032230
         H           -4.693541959691    -1.049980436757     0.155129125014     1.007825032230

  Basis Set: AUG-CC-PVTZ
    Blend: AUG-CC-PVTZ
  Basis Set: (AUG-CC-PVTZ AUX)
    Blend: AUG-CC-PVTZ-JKFIT
	 Reference Energy          =    -512.3357886453671881 [Eh]
	 Singles Energy            =      -0.0000000000000000 [Eh]
	 Same-Spin Energy          =      -0.5202147710445102 [Eh]
	 Opposite-Spin Energy      =      -1.6213730433741729 [Eh]
	 Correlation Energy        =      -2.1415878144186831 [Eh]
	 Total Energy              =    -514.4773764597858872 [Eh]

	 ================> DF-SCS-MP2 Energies <==================
	-----------------------------------------------------------
	 SCS Same-Spin Scale       =       0.3333333333333333 [-]
	 SCS Opposite-Spin Scale   =       1.2000000000000000 [-]
	 SCS Same-Spin Energy      =      -0.1734049236815034 [Eh]
	 SCS Opposite-Spin Energy  =      -1.9456476520490074 [Eh]
	 SCS Correlation Energy    =      -2.1190525757305108 [Eh]
	 SCS Total Energy          =    -514.4548412210976949 [Eh]
	-----------------------------------------------------------

  Dipole Moment: [D]
     X:    -8.5290      Y:     0.6933      Z:     1.5657     Total:     8.6992

*** Psi4 exiting successfully. Buy a developer a beer!
