                               Psi4 1.3.2 release

  ==> Input File <==

--------------------------------------------------------------------------
#psi4
#
memory 32 gb

molecule  {
-1 1
  O       -1.6024110     1.2883820    -0.5634480
  O        2.0191420    -1.7287390     0.1939930
  O        3.3803020    -0.0587520    -0.5397320
  N       -0.1199298    -0.2452471     0.2220825
  C        1.0875530     0.4615680    -0.1724770
  C        1.3782960     1.6508690     0.7367710
  C       -2.4731170    -0.8032840     0.3122730
  C       -1.3649450     0.1785500    -0.0525630
  C        2.2731730    -0.5407160    -0.1753640
  C       -3.8468580    -0.3344400    -0.1480570
  H        0.9462838     0.8251060    -1.1999991
  H        0.0672430    -1.2232590     0.4643770
  H        1.5293690     1.3045580     1.7644240
  H        2.2851470     2.1591780     0.4026320
  H        0.5420990     2.3541860     0.7225810
  H       -2.2325720    -1.7800520    -0.1237300
  H       -2.4588320    -0.9441430     1.3993390
  H       -4.0995650     0.6270340     0.3028840
  H       -3.8738130    -0.2132220    -1.2332140
  H       -4.6116960    -1.0622230     0.1365660
units angstrom
no_reorient  #important for SAPT in psi4, default
symmetry c1  #important for SAPT in psi4, default
}

set PROPERTIES_ORIGIN ["COM"]
properties('MP2/aug-cc-pvtz', properties = ['dipole'])
--------------------------------------------------------------------------

    Molecular point group: c1
  Charge       = -1
  Multiplicity = 1
  Basis Set: AUG-CC-PVTZ
    Blend: AUG-CC-PVTZ
  Basis Set: (AUG-CC-PVTZ AUX)
    Blend: AUG-CC-PVTZ-JKFIT

    Orbital Energies [Eh]
    ---------------------

    Doubly Occupied:

       1A    -20.389865     2A    -20.322823     3A    -20.314223
       4A    -15.438363     5A    -11.222021     6A    -11.162518
       7A    -11.135010     8A    -11.124020     9A    -11.115172
      10A    -11.076091    11A     -1.241232    12A     -1.190959
      13A     -1.097142    14A     -1.081999    15A     -0.949008
      16A     -0.879200    17A     -0.783845    18A     -0.721943
      19A     -0.638900    20A     -0.588734    21A     -0.542720
      22A     -0.532952    23A     -0.510770    24A     -0.482066
      25A     -0.466316    26A     -0.438700    27A     -0.425632
      28A     -0.419404    29A     -0.413201    30A     -0.404129
      31A     -0.397030    32A     -0.375686    33A     -0.369646
      34A     -0.341719    35A     -0.298728    36A     -0.256888
      37A     -0.237373    38A     -0.223616    39A     -0.216002

  @DF-RHF Final Energy:  -512.33615753806168

   => Energetics <=

    Nuclear Repulsion Energy =            533.5301454925152029
    One-Electron Energy =               -1772.0813161218638925
    Two-Electron Energy =                 726.2150130912870054
    Total Energy =                       -512.3361575380616841
  Basis Set: (AUG-CC-PVTZ AUX)
    Blend: AUG-CC-PVTZ-RI
    Molecular point group: c1

    Geometry (in Angstrom), charge = -1, multiplicity = 1:

       Center              X                  Y                   Z               Mass
    ------------   -----------------  -----------------  -----------------  -----------------
         O           -1.683648402123     1.302290014846    -0.544227310480    15.994914619570
         O            1.937904597877    -1.714830985154     0.213213689520    15.994914619570
         O            3.299064597877    -0.044843985154    -0.520511310480    15.994914619570
         N           -0.201167202123    -0.231339085154     0.241303189520    14.003074004430
         C            1.006315597877     0.475476014846    -0.153256310480    12.000000000000
         C            1.297058597877     1.664777014846     0.755991689520    12.000000000000
         C           -2.554354402123    -0.789375985154     0.331493689520    12.000000000000
         C           -1.446182402123     0.192458014846    -0.033342310480    12.000000000000
         C            2.191935597877    -0.526807985154    -0.156143310480    12.000000000000
         C           -3.928095402123    -0.320531985154    -0.128836310480    12.000000000000
         H            0.865046397877     0.839014014846    -1.180778410480     1.007825032230
         H           -0.013994402123    -1.209350985154     0.483597689520     1.007825032230
         H            1.448131597877     1.318466014846     1.783644689520     1.007825032230
         H            2.203909597877     2.173086014846     0.421852689520     1.007825032230
         H            0.460861597877     2.368094014846     0.741801689520     1.007825032230
         H           -2.313809402123    -1.766143985154    -0.104509310480     1.007825032230
         H           -2.540069402123    -0.930234985154     1.418559689520     1.007825032230
         H           -4.180802402123     0.640942014846     0.322104689520     1.007825032230
         H           -3.955050402123    -0.199313985154    -1.213993310480     1.007825032230
         H           -4.692933402123    -1.048314985154     0.155786689520     1.007825032230

  Basis Set: AUG-CC-PVTZ
    Blend: AUG-CC-PVTZ
  Basis Set: (AUG-CC-PVTZ AUX)
    Blend: AUG-CC-PVTZ-JKFIT
	 Reference Energy          =    -512.3361575380616841 [Eh]
	 Singles Energy            =      -0.0000000000000000 [Eh]
	 Same-Spin Energy          =      -0.5201876275239833 [Eh]
	 Opposite-Spin Energy      =      -1.6213172124002426 [Eh]
	 Correlation Energy        =      -2.1415048399242260 [Eh]
	 Total Energy              =    -514.4776623779858937 [Eh]

	 ================> DF-SCS-MP2 Energies <==================
	-----------------------------------------------------------
	 SCS Same-Spin Scale       =       0.3333333333333333 [-]
	 SCS Opposite-Spin Scale   =       1.2000000000000000 [-]
	 SCS Same-Spin Energy      =      -0.1733958758413278 [Eh]
	 SCS Opposite-Spin Energy  =      -1.9455806548802910 [Eh]
	 SCS Correlation Energy    =      -2.1189765307216186 [Eh]
	 SCS Total Energy          =    -514.4551340687833090 [Eh]
	-----------------------------------------------------------

  Dipole Moment: [D]
     X:    -8.6261      Y:     0.6101      Z:     1.6235     Total:     8.7987

*** Psi4 exiting successfully. Buy a developer a beer!
