                               Psi4 1.3.2 release

  ==> Input File <==

--------------------------------------------------------------------------
#psi4
#
memory 32 gb

molecule  {
-1 1
  O       -1.6024110     1.2883820    -0.5634480
  O        2.0191420    -1.7287390     0.1939930
  O        3.3803020    -0.0587520    -0.5397320
  N       -0.1147610    -0.2476350     0.2334190
  C        1.0875530     0.4615680    -0.1724770
  C        1.3782960     1.6508690     0.7367710
  C       -2.4731170    -0.8032840     0.3122730
  C       -1.3649450     0.1785500    -0.0525630
  C        2.2731730    -0.5407160    -0.1753640
  C       -3.8468580    -0.3344400    -0.1480570
  H        0.9550610     0.8289670    -1.1997950
  H        0.0851045    -1.3190047     0.4870427
  H        1.5293690     1.3045580     1.7644240
  H        2.2851470     2.1591780     0.4026320
  H        0.5420990     2.3541860     0.7225810
  H       -2.2325720    -1.7800520    -0.1237300
  H       -2.4588320    -0.9441430     1.3993390
  H       -4.0995650     0.6270340     0.3028840
  H       -3.8738130    -0.2132220    -1.2332140
  H       -4.6116960    -1.0622230     0.1365660
units angstrom
no_reorient  #important for SAPT in psi4, default
symmetry c1  #important for SAPT in psi4, default
}

set PROPERTIES_ORIGIN ["COM"]
properties('MP2/aug-cc-pvtz', properties = ['dipole'])
--------------------------------------------------------------------------

    Molecular point group: c1
  Charge       = -1
  Multiplicity = 1
  Basis Set: AUG-CC-PVTZ
    Blend: AUG-CC-PVTZ
  Basis Set: (AUG-CC-PVTZ AUX)
    Blend: AUG-CC-PVTZ-JKFIT

    Orbital Energies [Eh]
    ---------------------

    Doubly Occupied:

       1A    -20.389758     2A    -20.324569     3A    -20.314793
       4A    -15.442895     5A    -11.221378     6A    -11.162973
       7A    -11.133927     8A    -11.123238     9A    -11.114602
      10A    -11.075324    11A     -1.239193    12A     -1.191799
      13A     -1.094127    14A     -1.074731    15A     -0.947879
      16A     -0.876509    17A     -0.781651    18A     -0.720176
      19A     -0.622044    20A     -0.582108    21A     -0.541275
      22A     -0.531550    23A     -0.509847    24A     -0.481158
      25A     -0.464028    26A     -0.435442    27A     -0.424250
      28A     -0.418936    29A     -0.412571    30A     -0.403393
      31A     -0.396052    32A     -0.373866    33A     -0.366891
      34A     -0.341517    35A     -0.297666    36A     -0.254589
      37A     -0.237880    38A     -0.223924    39A     -0.216739

  @DF-RHF Final Energy:  -512.32579851387504

   => Energetics <=

    Nuclear Repulsion Energy =            532.8939571045035564
    One-Electron Energy =               -1770.9090146497940168
    Two-Electron Energy =                 725.6892590314153040
    Total Energy =                       -512.3257985138750428
  Basis Set: (AUG-CC-PVTZ AUX)
    Blend: AUG-CC-PVTZ-RI
    Molecular point group: c1

    Geometry (in Angstrom), charge = -1, multiplicity = 1:

       Center              X                  Y                   Z               Mass
    ------------   -----------------  -----------------  -----------------  -----------------
         O           -1.684337157212     1.303164902616    -0.545489194056    15.994914619570
         O            1.937215842788    -1.713956097384     0.211951805944    15.994914619570
         O            3.298375842788    -0.043969097384    -0.521773194056    15.994914619570
         N           -0.196687157212    -0.232852097384     0.251377805944    14.003074004430
         C            1.005626842788     0.476350902616    -0.154518194056    12.000000000000
         C            1.296369842788     1.665651902616     0.754729805944    12.000000000000
         C           -2.555043157212    -0.788501097384     0.330231805944    12.000000000000
         C           -1.446871157212     0.193332902616    -0.034604194056    12.000000000000
         C            2.191246842788    -0.525933097384    -0.157405194056    12.000000000000
         C           -3.928784157212    -0.319657097384    -0.130098194056    12.000000000000
         H            0.873134842788     0.843749902616    -1.181836194056     1.007825032230
         H            0.003178342788    -1.304221797384     0.505001505944     1.007825032230
         H            1.447442842788     1.319340902616     1.782382805944     1.007825032230
         H            2.203220842788     2.173960902616     0.420590805944     1.007825032230
         H            0.460172842788     2.368968902616     0.740539805944     1.007825032230
         H           -2.314498157212    -1.765269097384    -0.105771194056     1.007825032230
         H           -2.540758157212    -0.929360097384     1.417297805944     1.007825032230
         H           -4.181491157212     0.641816902616     0.320842805944     1.007825032230
         H           -3.955739157212    -0.198439097384    -1.215255194056     1.007825032230
         H           -4.693622157212    -1.047440097384     0.154524805944     1.007825032230

  Basis Set: AUG-CC-PVTZ
    Blend: AUG-CC-PVTZ
  Basis Set: (AUG-CC-PVTZ AUX)
    Blend: AUG-CC-PVTZ-JKFIT
	 Reference Energy          =    -512.3257985138750428 [Eh]
	 Singles Energy            =      -0.0000000000000000 [Eh]
	 Same-Spin Energy          =      -0.5213812612052116 [Eh]
	 Opposite-Spin Energy      =      -1.6236286174203483 [Eh]
	 Correlation Energy        =      -2.1450098786255598 [Eh]
	 Total Energy              =    -514.4708083925006576 [Eh]

	 ================> DF-SCS-MP2 Energies <==================
	-----------------------------------------------------------
	 SCS Same-Spin Scale       =       0.3333333333333333 [-]
	 SCS Opposite-Spin Scale   =       1.2000000000000000 [-]
	 SCS Same-Spin Energy      =      -0.1737937537350705 [Eh]
	 SCS Opposite-Spin Energy  =      -1.9483543409044177 [Eh]
	 SCS Correlation Energy    =      -2.1221480946394884 [Eh]
	 SCS Total Energy          =    -514.4479466085144850 [Eh]
	-----------------------------------------------------------

  Dipole Moment: [D]
     X:    -8.4930      Y:     0.5027      Z:     1.6155     Total:     8.6598

*** Psi4 exiting successfully. Buy a developer a beer!
