                               Psi4 1.4a3.dev225

  ==> Input File <==

--------------------------------------------------------------------------
#psi4
#
memory 32 gb

molecule  {
-1 1
  O       -1.5868420     1.2523650    -0.8113290
  O        2.0299390    -1.6922460     0.2543140
  O        3.4074630     0.0142020    -0.3584910
  N       -0.1383540    -0.2870410     0.0455440
  C        1.0782140     0.4735880    -0.1782270
  C        1.2275190     1.6106150     0.8299030
  C       -2.4816390    -0.8906360    -0.1487800
  C       -1.3641120     0.1217370    -0.3343690
  C        2.3244262    -0.5289151    -0.0896068
  C       -3.7126180    -0.2515540     0.4884160
  H        1.0494870     0.8996880    -1.1894520
  H        0.0515970    -1.2513350     0.3145600
  H        1.2660770     1.2028380     1.8451460
  H        2.1536960     2.1558630     0.6353850
  H        0.3800930     2.2967220     0.7589720
  H       -2.7387560    -1.2794370    -1.1416750
  H       -2.1327770    -1.7398080     0.4477120
  H       -3.4838230     0.1112750     1.4946450
  H       -4.0489630     0.5957980    -0.1116680
  H       -4.5299760    -0.9736440     0.5641870
units angstrom
no_reorient  #important for SAPT in psi4, default
symmetry c1  #important for SAPT in psi4, default
}

set PROPERTIES_ORIGIN ["COM"]
properties('MP2/aug-cc-pvtz', properties = ['dipole'])
--------------------------------------------------------------------------

    Molecular point group: c1
  Charge       = -1
  Multiplicity = 1
  Basis Set: AUG-CC-PVTZ
    Blend: AUG-CC-PVTZ
  Basis Set: (AUG-CC-PVTZ AUX)
    Blend: AUG-CC-PVTZ-JKFIT

    Orbital Energies [Eh]
    ---------------------

    Doubly Occupied:

       1A    -20.385072     2A    -20.326019     3A    -20.317564
       4A    -15.439737     5A    -11.220102     6A    -11.162801
       7A    -11.133076     8A    -11.126157     9A    -11.109469
      10A    -11.073796    11A     -1.236226    12A     -1.203556
      13A     -1.109844    14A     -1.085111    15A     -0.948526
      16A     -0.872723    17A     -0.781883    18A     -0.716572
      19A     -0.639623    20A     -0.583401    21A     -0.543963
      22A     -0.521904    23A     -0.511466    24A     -0.483052
      25A     -0.461967    26A     -0.441285    27A     -0.433965
      28A     -0.425936    29A     -0.410335    30A     -0.407312
      31A     -0.394368    32A     -0.375219    33A     -0.371722
      34A     -0.344428    35A     -0.295081    36A     -0.256822
      37A     -0.244511    38A     -0.224878    39A     -0.212767

  @DF-RHF Final Energy:  -512.33794495196173

   => Energetics <=

    Nuclear Repulsion Energy =            534.0754540960721215
    One-Electron Energy =               -1773.1623153034995539
    Two-Electron Energy =                 726.7489162554655877
    Total Energy =                       -512.3379449519617310
  Basis Set: (AUG-CC-PVTZ AUX)
    Blend: AUG-CC-PVTZ-RI
    Molecular point group: c1

    Geometry (in Angstrom), charge = -1, multiplicity = 1:

       Center              X                  Y                   Z               Mass
    ------------   -----------------  -----------------  -----------------  -----------------
         O           -1.672816257369     1.268860114037    -0.786676918837    15.994914619570
         O            1.943964742631    -1.675750885963     0.278966081163    15.994914619570
         O            3.321488742631     0.030697114037    -0.333838918837    15.994914619570
         N           -0.224328257369    -0.270545885963     0.070196081163    14.003074004430
         C            0.992239742631     0.490083114037    -0.153574918837    12.000000000000
         C            1.141544742631     1.627110114037     0.854555081163    12.000000000000
         C           -2.567613257369    -0.874140885963    -0.124127918837    12.000000000000
         C           -1.450086257369     0.138232114037    -0.309716918837    12.000000000000
         C            2.238451942631    -0.512419985963    -0.064954718837    12.000000000000
         C           -3.798592257369    -0.235058885963     0.513068081163    12.000000000000
         H            0.963512742631     0.916183114037    -1.164799918837     1.007825032230
         H           -0.034377257369    -1.234839885963     0.339212081163     1.007825032230
         H            1.180102742631     1.219333114037     1.869798081163     1.007825032230
         H            2.067721742631     2.172358114037     0.660037081163     1.007825032230
         H            0.294118742631     2.313217114037     0.783624081163     1.007825032230
         H           -2.824730257369    -1.262941885963    -1.117022918837     1.007825032230
         H           -2.218751257369    -1.723312885963     0.472364081163     1.007825032230
         H           -3.569797257369     0.127770114037     1.519297081163     1.007825032230
         H           -4.134937257369     0.612293114037    -0.087015918837     1.007825032230
         H           -4.615950257369    -0.957148885963     0.588839081163     1.007825032230

  Basis Set: AUG-CC-PVTZ
    Blend: AUG-CC-PVTZ
  Basis Set: (AUG-CC-PVTZ AUX)
    Blend: AUG-CC-PVTZ-JKFIT
	 Reference Energy          =    -512.3379449519617310 [Eh]
	 Singles Energy            =      -0.0000000000000000 [Eh]
	 Same-Spin Energy          =      -0.5197854500153075 [Eh]
	 Opposite-Spin Energy      =      -1.6201971120067924 [Eh]
	 Correlation Energy        =      -2.1399825620220998 [Eh]
	 Total Energy              =    -514.4779275139837864 [Eh]

	 ================> DF-SCS-MP2 Energies <==================
	-----------------------------------------------------------
	 SCS Same-Spin Scale       =       0.3333333333333333 [-]
	 SCS Opposite-Spin Scale   =       1.2000000000000000 [-]
	 SCS Same-Spin Energy      =      -0.1732618166717692 [Eh]
	 SCS Opposite-Spin Energy  =      -1.9442365344081507 [Eh]
	 SCS Correlation Energy    =      -2.1174983510799197 [Eh]
	 SCS Total Energy          =    -514.4554433030416476 [Eh]
	-----------------------------------------------------------

  Dipole Moment: [D]
     X:    -8.3545      Y:     0.1687      Z:     1.2236     Total:     8.4453

*** Psi4 exiting successfully. Buy a developer a beer!
