                               Psi4 1.4a3.dev225

  ==> Input File <==

--------------------------------------------------------------------------
#psi4
#
memory 32 gb

molecule  {
-1 1
  O       -1.5868420     1.2523650    -0.8113290
  O        2.0299390    -1.6922460     0.2543140
  O        3.4074630     0.0142020    -0.3584910
  N       -0.1383540    -0.2870410     0.0455440
  C        1.0782140     0.4735880    -0.1782270
  C        1.2226299     1.5733820     0.7968909
  C       -2.4816390    -0.8906360    -0.1487800
  C       -1.3641120     0.1217370    -0.3343690
  C        2.2855270    -0.4976230    -0.0923730
  C       -3.7126180    -0.2515540     0.4884160
  H        1.0494870     0.8996880    -1.1894520
  H        0.0515970    -1.2513350     0.3145600
  H        1.2660770     1.2028380     1.8451460
  H        2.1536960     2.1558630     0.6353850
  H        0.3800930     2.2967220     0.7589720
  H       -2.7387560    -1.2794370    -1.1416750
  H       -2.1327770    -1.7398080     0.4477120
  H       -3.4838230     0.1112750     1.4946450
  H       -4.0489630     0.5957980    -0.1116680
  H       -4.5299760    -0.9736440     0.5641870
units angstrom
no_reorient  #important for SAPT in psi4, default
symmetry c1  #important for SAPT in psi4, default
}

set PROPERTIES_ORIGIN ["COM"]
properties('MP2/aug-cc-pvtz', properties = ['dipole'])
--------------------------------------------------------------------------

    Molecular point group: c1
  Charge       = -1
  Multiplicity = 1
  Basis Set: AUG-CC-PVTZ
    Blend: AUG-CC-PVTZ
  Basis Set: (AUG-CC-PVTZ AUX)
    Blend: AUG-CC-PVTZ-JKFIT

    Orbital Energies [Eh]
    ---------------------

    Doubly Occupied:

       1A    -20.387324     2A    -20.323667     3A    -20.315145
       4A    -15.442168     5A    -11.222541     6A    -11.163310
       7A    -11.134551     8A    -11.127296     9A    -11.113288
      10A    -11.079483    11A     -1.238653    12A     -1.191966
      13A     -1.098814    14A     -1.083425    15A     -0.951099
      16A     -0.886426    17A     -0.783453    18A     -0.722127
      19A     -0.643294    20A     -0.589957    21A     -0.547495
      22A     -0.523722    23A     -0.515481    24A     -0.483479
      25A     -0.467365    26A     -0.442443    27A     -0.437565
      28A     -0.419619    29A     -0.410977    30A     -0.404576
      31A     -0.392346    32A     -0.373403    33A     -0.365066
      34A     -0.342217    35A     -0.296367    36A     -0.260555
      37A     -0.238184    38A     -0.223773    39A     -0.216703

  @DF-RHF Final Energy:  -512.33350116002475

   => Energetics <=

    Nuclear Repulsion Energy =            535.2807022133148394
    One-Electron Energy =               -1775.5097620594870023
    Two-Electron Energy =                 727.8955586861475240
    Total Energy =                       -512.3335011600247526
  Basis Set: (AUG-CC-PVTZ AUX)
    Blend: AUG-CC-PVTZ-RI
    Molecular point group: c1

    Geometry (in Angstrom), charge = -1, multiplicity = 1:

       Center              X                  Y                   Z               Mass
    ------------   -----------------  -----------------  -----------------  -----------------
         O           -1.669168905798     1.269354961998    -0.783696761154    15.994914619570
         O            1.947612094202    -1.675256038002     0.281946238846    15.994914619570
         O            3.325136094202     0.031191961998    -0.330858761154    15.994914619570
         N           -0.220680905798    -0.270051038002     0.073176238846    14.003074004430
         C            0.995887094202     0.490577961998    -0.150594761154    12.000000000000
         C            1.140302994202     1.590371961998     0.824523138846    12.000000000000
         C           -2.563965905798    -0.873646038002    -0.121147761154    12.000000000000
         C           -1.446438905798     0.138726961998    -0.306736761154    12.000000000000
         C            2.203200094202    -0.480633038002    -0.064740761154    12.000000000000
         C           -3.794944905798    -0.234564038002     0.516048238846    12.000000000000
         H            0.967160094202     0.916677961998    -1.161819761154     1.007825032230
         H           -0.030729905798    -1.234345038002     0.342192238846     1.007825032230
         H            1.183750094202     1.219827961998     1.872778238846     1.007825032230
         H            2.071369094202     2.172852961998     0.663017238846     1.007825032230
         H            0.297766094202     2.313711961998     0.786604238846     1.007825032230
         H           -2.821082905798    -1.262447038002    -1.114042761154     1.007825032230
         H           -2.215103905798    -1.722818038002     0.475344238846     1.007825032230
         H           -3.566149905798     0.128264961998     1.522277238846     1.007825032230
         H           -4.131289905798     0.612787961998    -0.084035761154     1.007825032230
         H           -4.612302905798    -0.956654038002     0.591819238846     1.007825032230

  Basis Set: AUG-CC-PVTZ
    Blend: AUG-CC-PVTZ
  Basis Set: (AUG-CC-PVTZ AUX)
    Blend: AUG-CC-PVTZ-JKFIT
	 Reference Energy          =    -512.3335011600247526 [Eh]
	 Singles Energy            =      -0.0000000000000000 [Eh]
	 Same-Spin Energy          =      -0.5208377910125539 [Eh]
	 Opposite-Spin Energy      =      -1.6222557354639708 [Eh]
	 Correlation Energy        =      -2.1430935264765250 [Eh]
	 Total Energy              =    -514.4765946865012438 [Eh]

	 ================> DF-SCS-MP2 Energies <==================
	-----------------------------------------------------------
	 SCS Same-Spin Scale       =       0.3333333333333333 [-]
	 SCS Opposite-Spin Scale   =       1.2000000000000000 [-]
	 SCS Same-Spin Energy      =      -0.1736125970041846 [Eh]
	 SCS Opposite-Spin Energy  =      -1.9467068825567648 [Eh]
	 SCS Correlation Energy    =      -2.1203194795609495 [Eh]
	 SCS Total Energy          =    -514.4538206395857287 [Eh]
	-----------------------------------------------------------

  Dipole Moment: [D]
     X:    -8.6317      Y:     0.3707      Z:     1.2123     Total:     8.7243

*** Psi4 exiting successfully. Buy a developer a beer!
