                               Psi4 1.3.2 release

  ==> Input File <==

--------------------------------------------------------------------------
#psi4
#
memory 32 gb

molecule  {
-1 1
  O       -1.6301224     1.2229602    -0.5877857
  O        2.0191420    -1.7287390     0.1939930
  O        3.3803020    -0.0587520    -0.5397320
  N       -0.1147610    -0.2476350     0.2334190
  C        1.1042147     0.4808849    -0.1633425
  C        1.3782960     1.6508690     0.7367710
  C       -2.4731170    -0.8032840     0.3122730
  C       -1.3649450     0.1785500    -0.0525630
  C        2.2731730    -0.5407160    -0.1753640
  C       -3.8468580    -0.3344400    -0.1480570
  H        0.9550610     0.8289670    -1.1997950
  H        0.0672430    -1.2232590     0.4643770
  H        1.5293690     1.3045580     1.7644240
  H        2.2851470     2.1591780     0.4026320
  H        0.5420990     2.3541860     0.7225810
  H       -2.2325720    -1.7800520    -0.1237300
  H       -2.4588320    -0.9441430     1.3993390
  H       -4.0995650     0.6270340     0.3028840
  H       -3.8738130    -0.2132220    -1.2332140
  H       -4.6116960    -1.0622230     0.1365660
units angstrom
no_reorient  #important for SAPT in psi4, default
symmetry c1  #important for SAPT in psi4, default
}

set PROPERTIES_ORIGIN ["COM"]
properties('MP2/aug-cc-pvtz', properties = ['dipole'])
--------------------------------------------------------------------------

    Molecular point group: c1
  Charge       = -1
  Multiplicity = 1
  Basis Set: AUG-CC-PVTZ
    Blend: AUG-CC-PVTZ
  Basis Set: (AUG-CC-PVTZ AUX)
    Blend: AUG-CC-PVTZ-JKFIT

    Orbital Energies [Eh]
    ---------------------

    Doubly Occupied:

       1A    -20.392093     2A    -20.322167     3A    -20.313382
       4A    -15.431654     5A    -11.215229     6A    -11.161761
       7A    -11.129150     8A    -11.121878     9A    -11.115332
      10A    -11.076502    11A     -1.265997    12A     -1.190448
      13A     -1.094597    14A     -1.078805    15A     -0.945281
      16A     -0.882414    17A     -0.780931    18A     -0.719367
      19A     -0.635278    20A     -0.587321    21A     -0.542217
      22A     -0.532011    23A     -0.513363    24A     -0.488062
      25A     -0.467427    26A     -0.441089    27A     -0.425127
      28A     -0.421070    29A     -0.412936    30A     -0.406551
      31A     -0.395289    32A     -0.379376    33A     -0.369537
      34A     -0.344127    35A     -0.297703    36A     -0.257844
      37A     -0.236593    38A     -0.222631    39A     -0.215245

  @DF-RHF Final Energy:  -512.33727327012627

   => Energetics <=

    Nuclear Repulsion Energy =            534.4426247295000394
    One-Electron Energy =               -1773.9042313360623666
    Two-Electron Energy =                 727.1243333364360524
    Total Energy =                       -512.3372732701262748
  Basis Set: (AUG-CC-PVTZ AUX)
    Blend: AUG-CC-PVTZ-RI
    Molecular point group: c1

    Geometry (in Angstrom), charge = -1, multiplicity = 1:

       Center              X                  Y                   Z               Mass
    ------------   -----------------  -----------------  -----------------  -----------------
         O           -1.710234789771     1.242727748904    -0.567727104028    15.994914619570
         O            1.939029610229    -1.708971451096     0.214051595972    15.994914619570
         O            3.300189610229    -0.038984451096    -0.519673404028    15.994914619570
         N           -0.194873389771    -0.227867451096     0.253477595972    14.003074004430
         C            1.024102310229     0.500652448904    -0.143283904028    12.000000000000
         C            1.298183610229     1.670636548904     0.756829595972    12.000000000000
         C           -2.553229389771    -0.783516451096     0.332331595972    12.000000000000
         C           -1.445057389771     0.198317548904    -0.032504404028    12.000000000000
         C            2.193060610229    -0.520948451096    -0.155305404028    12.000000000000
         C           -3.926970389771    -0.314672451096    -0.127998404028    12.000000000000
         H            0.874948610229     0.848734548904    -1.179736404028     1.007825032230
         H           -0.012869389771    -1.203491451096     0.484435595972     1.007825032230
         H            1.449256610229     1.324325548904     1.784482595972     1.007825032230
         H            2.205034610229     2.178945548904     0.422690595972     1.007825032230
         H            0.461986610229     2.373953548904     0.742639595972     1.007825032230
         H           -2.312684389771    -1.760284451096    -0.103671404028     1.007825032230
         H           -2.538944389771    -0.924375451096     1.419397595972     1.007825032230
         H           -4.179677389771     0.646801548904     0.322942595972     1.007825032230
         H           -3.953925389771    -0.193454451096    -1.213155404028     1.007825032230
         H           -4.691808389771    -1.042455451096     0.156624595972     1.007825032230

  Basis Set: AUG-CC-PVTZ
    Blend: AUG-CC-PVTZ
  Basis Set: (AUG-CC-PVTZ AUX)
    Blend: AUG-CC-PVTZ-JKFIT
	 Reference Energy          =    -512.3372732701262748 [Eh]
	 Singles Energy            =      -0.0000000000000000 [Eh]
	 Same-Spin Energy          =      -0.5192736236089792 [Eh]
	 Opposite-Spin Energy      =      -1.6191433220258147 [Eh]
	 Correlation Energy        =      -2.1384169456347939 [Eh]
	 Total Energy              =    -514.4756902157611194 [Eh]

	 ================> DF-SCS-MP2 Energies <==================
	-----------------------------------------------------------
	 SCS Same-Spin Scale       =       0.3333333333333333 [-]
	 SCS Opposite-Spin Scale   =       1.2000000000000000 [-]
	 SCS Same-Spin Energy      =      -0.1730912078696597 [Eh]
	 SCS Opposite-Spin Energy  =      -1.9429719864309776 [Eh]
	 SCS Correlation Energy    =      -2.1160631943006374 [Eh]
	 SCS Total Energy          =    -514.4533364644269113 [Eh]
	-----------------------------------------------------------

  Dipole Moment: [D]
     X:    -8.6194      Y:     0.8999      Z:     1.5764     Total:     8.8085

*** Psi4 exiting successfully. Buy a developer a beer!
