                               Psi4 1.3.2 release

  ==> Input File <==

--------------------------------------------------------------------------
#psi4
#
memory 32 gb

molecule  {
-1 1
  O       -1.6024110     1.2883820    -0.5634480
  O        2.0191420    -1.7287390     0.1939930
  O        3.3803020    -0.0587520    -0.5397320
  N       -0.1177683    -0.2311699     0.2524868
  C        1.0875530     0.4615680    -0.1724770
  C        1.3565720     1.6450111     0.7509901
  C       -2.4731170    -0.8032840     0.3122730
  C       -1.3649450     0.1785500    -0.0525630
  C        2.2731730    -0.5407160    -0.1753640
  C       -3.8468580    -0.3344400    -0.1480570
  H        0.9550610     0.8289670    -1.1997950
  H        0.0672430    -1.2232590     0.4643770
  H        1.5293690     1.3045580     1.7644240
  H        2.2851470     2.1591780     0.4026320
  H        0.5420990     2.3541860     0.7225810
  H       -2.2325720    -1.7800520    -0.1237300
  H       -2.4588320    -0.9441430     1.3993390
  H       -4.0995650     0.6270340     0.3028840
  H       -3.8738130    -0.2132220    -1.2332140
  H       -4.6116960    -1.0622230     0.1365660
units angstrom
no_reorient  #important for SAPT in psi4, default
symmetry c1  #important for SAPT in psi4, default
}

set PROPERTIES_ORIGIN ["COM"]
properties('MP2/aug-cc-pvtz', properties = ['dipole'])
--------------------------------------------------------------------------

    Molecular point group: c1
  Charge       = -1
  Multiplicity = 1
  Basis Set: AUG-CC-PVTZ
    Blend: AUG-CC-PVTZ
  Basis Set: (AUG-CC-PVTZ AUX)
    Blend: AUG-CC-PVTZ-JKFIT

    Orbital Energies [Eh]
    ---------------------

    Doubly Occupied:

       1A    -20.391072     2A    -20.323058     3A    -20.314388
       4A    -15.437998     5A    -11.222727     6A    -11.162774
       7A    -11.135372     8A    -11.124287     9A    -11.114934
      10A    -11.074962    11A     -1.241616    12A     -1.191040
      13A     -1.096600    14A     -1.081529    15A     -0.949313
      16A     -0.878391    17A     -0.783233    18A     -0.721443
      19A     -0.636691    20A     -0.588265    21A     -0.542692
      22A     -0.533198    23A     -0.511916    24A     -0.482218
      25A     -0.466108    26A     -0.438669    27A     -0.425636
      28A     -0.419888    29A     -0.413401    30A     -0.403471
      31A     -0.396696    32A     -0.373650    33A     -0.368062
      34A     -0.342580    35A     -0.299376    36A     -0.257220
      37A     -0.237440    38A     -0.223744    39A     -0.216323

  @DF-RHF Final Energy:  -512.33462615330234

   => Energetics <=

    Nuclear Repulsion Energy =            533.5133617957418437
    One-Electron Energy =               -1772.0520131212053911
    Two-Electron Energy =                 726.2040251721610957
    Total Energy =                       -512.3346261533023380
  Basis Set: (AUG-CC-PVTZ AUX)
    Blend: AUG-CC-PVTZ-RI
    Molecular point group: c1

    Geometry (in Angstrom), charge = -1, multiplicity = 1:

       Center              X                  Y                   Z               Mass
    ------------   -----------------  -----------------  -----------------  -----------------
         O           -1.682110396148     1.301382649999    -0.548368386637    15.994914619570
         O            1.939442603852    -1.715738350001     0.209072613363    15.994914619570
         O            3.300602603852    -0.045751350001    -0.524652386637    15.994914619570
         N           -0.197467696148    -0.218169250001     0.267566413363    14.003074004430
         C            1.007853603852     0.474568649999    -0.157397386637    12.000000000000
         C            1.276872603852     1.658011749999     0.766069713363    12.000000000000
         C           -2.552816396148    -0.790283350001     0.327352613363    12.000000000000
         C           -1.444644396148     0.191550649999    -0.037483386637    12.000000000000
         C            2.193473603852    -0.527715350001    -0.160284386637    12.000000000000
         C           -3.926557396148    -0.321439350001    -0.132977386637    12.000000000000
         H            0.875361603852     0.841967649999    -1.184715386637     1.007825032230
         H           -0.012456396148    -1.210258350001     0.479456613363     1.007825032230
         H            1.449669603852     1.317558649999     1.779503613363     1.007825032230
         H            2.205447603852     2.172178649999     0.417711613363     1.007825032230
         H            0.462399603852     2.367186649999     0.737660613363     1.007825032230
         H           -2.312271396148    -1.767051350001    -0.108650386637     1.007825032230
         H           -2.538531396148    -0.931142350001     1.414418613363     1.007825032230
         H           -4.179264396148     0.640034649999     0.317963613363     1.007825032230
         H           -3.953512396148    -0.200221350001    -1.218134386637     1.007825032230
         H           -4.691395396148    -1.049222350001     0.151645613363     1.007825032230

  Basis Set: AUG-CC-PVTZ
    Blend: AUG-CC-PVTZ
  Basis Set: (AUG-CC-PVTZ AUX)
    Blend: AUG-CC-PVTZ-JKFIT
	 Reference Energy          =    -512.3346261533023380 [Eh]
	 Singles Energy            =      -0.0000000000000000 [Eh]
	 Same-Spin Energy          =      -0.5203258618542208 [Eh]
	 Opposite-Spin Energy      =      -1.6216703006050506 [Eh]
	 Correlation Energy        =      -2.1419961624592716 [Eh]
	 Total Energy              =    -514.4766223157615741 [Eh]

	 ================> DF-SCS-MP2 Energies <==================
	-----------------------------------------------------------
	 SCS Same-Spin Scale       =       0.3333333333333333 [-]
	 SCS Opposite-Spin Scale   =       1.2000000000000000 [-]
	 SCS Same-Spin Energy      =      -0.1734419539514069 [Eh]
	 SCS Opposite-Spin Energy  =      -1.9460043607260606 [Eh]
	 SCS Correlation Energy    =      -2.1194463146774676 [Eh]
	 SCS Total Energy          =    -514.4540724679798132 [Eh]
	-----------------------------------------------------------

  Dipole Moment: [D]
     X:    -8.6689      Y:     0.5927      Z:     1.5904     Total:     8.8335

*** Psi4 exiting successfully. Buy a developer a beer!
