                               Psi4 1.3.2 release

  ==> Input File <==

--------------------------------------------------------------------------
#psi4
#
memory 32 gb

molecule  {
-1 1
  O       -1.6024110     1.2883820    -0.5634480
  O        2.0191420    -1.7287390     0.1939930
  O        3.3803020    -0.0587520    -0.5397320
  N       -0.1147610    -0.2476350     0.2334190
  C        1.0807090     0.4721244    -0.1741067
  C        1.3782960     1.6508690     0.7367710
  C       -2.4731170    -0.8032840     0.3122730
  C       -1.3649450     0.1785500    -0.0525630
  C        2.2731730    -0.5407160    -0.1753640
  C       -3.8468580    -0.3344400    -0.1480570
  H        0.9550610     0.8289670    -1.1997950
  H        0.0586180    -1.2243910     0.4662208
  H        1.5293690     1.3045580     1.7644240
  H        2.2851470     2.1591780     0.4026320
  H        0.5420990     2.3541860     0.7225810
  H       -2.2325720    -1.7800520    -0.1237300
  H       -2.4588320    -0.9441430     1.3993390
  H       -4.0995650     0.6270340     0.3028840
  H       -3.8738130    -0.2132220    -1.2332140
  H       -4.6116960    -1.0622230     0.1365660
units angstrom
no_reorient  #important for SAPT in psi4, default
symmetry c1  #important for SAPT in psi4, default
}

set PROPERTIES_ORIGIN ["COM"]
properties('MP2/aug-cc-pvtz', properties = ['dipole'])
--------------------------------------------------------------------------

    Molecular point group: c1
  Charge       = -1
  Multiplicity = 1
  Basis Set: AUG-CC-PVTZ
    Blend: AUG-CC-PVTZ
  Basis Set: (AUG-CC-PVTZ AUX)
    Blend: AUG-CC-PVTZ-JKFIT

    Orbital Energies [Eh]
    ---------------------

    Doubly Occupied:

       1A    -20.391639     2A    -20.322156     3A    -20.313647
       4A    -15.438053     5A    -11.223183     6A    -11.162169
       7A    -11.135351     8A    -11.124346     9A    -11.114225
      10A    -11.075232    11A     -1.241574    12A     -1.189876
      13A     -1.096305    14A     -1.081151    15A     -0.949322
      16A     -0.879068    17A     -0.783933    18A     -0.719655
      19A     -0.639267    20A     -0.587889    21A     -0.541146
      22A     -0.533088    23A     -0.512336    24A     -0.482864
      25A     -0.465398    26A     -0.438679    27A     -0.425723
      28A     -0.419001    29A     -0.413412    30A     -0.403829
      31A     -0.396552    32A     -0.376343    33A     -0.369980
      34A     -0.342737    35A     -0.299402    36A     -0.257750
      37A     -0.236423    38A     -0.221516    39A     -0.215273

  @DF-RHF Final Energy:  -512.33583353739550

   => Energetics <=

    Nuclear Repulsion Energy =            533.3490145961374083
    One-Electron Energy =               -1771.7307120160251088
    Two-Electron Energy =                 726.0458638824920854
    Total Energy =                       -512.3358335373955015
  Basis Set: (AUG-CC-PVTZ AUX)
    Blend: AUG-CC-PVTZ-RI
    Molecular point group: c1

    Geometry (in Angstrom), charge = -1, multiplicity = 1:

       Center              X                  Y                   Z               Mass
    ------------   -----------------  -----------------  -----------------  -----------------
         O           -1.683581797125     1.301623728778    -0.545207786834    15.994914619570
         O            1.937971202875    -1.715497271222     0.212233213166    15.994914619570
         O            3.299131202875    -0.045510271222    -0.521491786834    15.994914619570
         N           -0.195931797125    -0.234393271222     0.251659213166    14.003074004430
         C            0.999538202875     0.485366128778    -0.155866486834    12.000000000000
         C            1.297125202875     1.664110728778     0.755011213166    12.000000000000
         C           -2.554287797125    -0.790042271222     0.330513213166    12.000000000000
         C           -1.446115797125     0.191791728778    -0.034322786834    12.000000000000
         C            2.192002202875    -0.527474271222    -0.157123786834    12.000000000000
         C           -3.928028797125    -0.321198271222    -0.129816786834    12.000000000000
         H            0.873890202875     0.842208728778    -1.181554786834     1.007825032230
         H           -0.022552797125    -1.211149271222     0.484461013166     1.007825032230
         H            1.448198202875     1.317799728778     1.782664213166     1.007825032230
         H            2.203976202875     2.172419728778     0.420872213166     1.007825032230
         H            0.460928202875     2.367427728778     0.740821213166     1.007825032230
         H           -2.313742797125    -1.766810271222    -0.105489786834     1.007825032230
         H           -2.540002797125    -0.930901271222     1.417579213166     1.007825032230
         H           -4.180735797125     0.640275728778     0.321124213166     1.007825032230
         H           -3.954983797125    -0.199980271222    -1.214973786834     1.007825032230
         H           -4.692866797125    -1.048981271222     0.154806213166     1.007825032230

  Basis Set: AUG-CC-PVTZ
    Blend: AUG-CC-PVTZ
  Basis Set: (AUG-CC-PVTZ AUX)
    Blend: AUG-CC-PVTZ-JKFIT
	 Reference Energy          =    -512.3358335373955015 [Eh]
	 Singles Energy            =      -0.0000000000000000 [Eh]
	 Same-Spin Energy          =      -0.5201541003064983 [Eh]
	 Opposite-Spin Energy      =      -1.6213062365558690 [Eh]
	 Correlation Energy        =      -2.1414603368623673 [Eh]
	 Total Energy              =    -514.4772938742578390 [Eh]

	 ================> DF-SCS-MP2 Energies <==================
	-----------------------------------------------------------
	 SCS Same-Spin Scale       =       0.3333333333333333 [-]
	 SCS Opposite-Spin Scale   =       1.2000000000000000 [-]
	 SCS Same-Spin Energy      =      -0.1733847001021661 [Eh]
	 SCS Opposite-Spin Energy  =      -1.9455674838670427 [Eh]
	 SCS Correlation Energy    =      -2.1189521839692089 [Eh]
	 SCS Total Energy          =    -514.4547857213647148 [Eh]
	-----------------------------------------------------------

  Dipole Moment: [D]
     X:    -8.6877      Y:     0.6264      Z:     1.6023     Total:     8.8564

*** Psi4 exiting successfully. Buy a developer a beer!
