                               Psi4 1.3.2 release

  ==> Input File <==

--------------------------------------------------------------------------
#psi4
#
memory 32 gb

molecule  {
-1 1
  O       -1.6024110     1.2883820    -0.5634480
  O        2.0191420    -1.7287390     0.1939930
  O        3.3803020    -0.0587520    -0.5397320
  N       -0.1429147    -0.3074788     0.2585598
  C        1.0875530     0.4615680    -0.1724770
  C        1.3782960     1.6508690     0.7367710
  C       -2.4170412    -0.8533355     0.3391695
  C       -1.3649450     0.1785500    -0.0525630
  C        2.2731730    -0.5407160    -0.1753640
  C       -3.8468580    -0.3344400    -0.1480570
  H        0.9550610     0.8289670    -1.1997950
  H        0.0672430    -1.2232590     0.4643770
  H        1.5293690     1.3045580     1.7644240
  H        2.2851470     2.1591780     0.4026320
  H        0.5420990     2.3541860     0.7225810
  H       -2.2325720    -1.7800520    -0.1237300
  H       -2.4588320    -0.9441430     1.3993390
  H       -4.0995650     0.6270340     0.3028840
  H       -3.8738130    -0.2132220    -1.2332140
  H       -4.6116960    -1.0622230     0.1365660
units angstrom
no_reorient  #important for SAPT in psi4, default
symmetry c1  #important for SAPT in psi4, default
}

set PROPERTIES_ORIGIN ["COM"]
properties('MP2/aug-cc-pvtz', properties = ['dipole'])
--------------------------------------------------------------------------

    Molecular point group: c1
  Charge       = -1
  Multiplicity = 1
  Basis Set: AUG-CC-PVTZ
    Blend: AUG-CC-PVTZ
  Basis Set: (AUG-CC-PVTZ AUX)
    Blend: AUG-CC-PVTZ-JKFIT

    Orbital Energies [Eh]
    ---------------------

    Doubly Occupied:

       1A    -20.397136     2A    -20.321686     3A    -20.313908
       4A    -15.435409     5A    -11.225645     6A    -11.161776
       7A    -11.129127     8A    -11.124237     9A    -11.119009
      10A    -11.077919    11A     -1.241969    12A     -1.190312
      13A     -1.097043    14A     -1.081177    15A     -0.937936
      16A     -0.877319    17A     -0.783896    18A     -0.718926
      19A     -0.658920    20A     -0.586110    21A     -0.538396
      22A     -0.533987    23A     -0.511388    24A     -0.482315
      25A     -0.463937    26A     -0.439128    27A     -0.422061
      28A     -0.421001    29A     -0.408684    30A     -0.404775
      31A     -0.394804    32A     -0.377596    33A     -0.366715
      34A     -0.341700    35A     -0.300251    36A     -0.263140
      37A     -0.236934    38A     -0.222624    39A     -0.215979

  @DF-RHF Final Energy:  -512.32375743797934

   => Energetics <=

    Nuclear Repulsion Energy =            532.4381821471728244
    One-Electron Energy =               -1769.8741218343179753
    Two-Electron Energy =                 725.1121822491656985
    Total Energy =                       -512.3237574379793386
  Basis Set: (AUG-CC-PVTZ AUX)
    Blend: AUG-CC-PVTZ-RI
    Molecular point group: c1

    Geometry (in Angstrom), charge = -1, multiplicity = 1:

       Center              X                  Y                   Z               Mass
    ------------   -----------------  -----------------  -----------------  -----------------
         O           -1.686146535311     1.312480907861    -0.550014641522    15.994914619570
         O            1.935406464689    -1.704640092139     0.207426358478    15.994914619570
         O            3.296566464689    -0.034653092139    -0.526298641522    15.994914619570
         N           -0.226650235311    -0.283379892139     0.271993158478    14.003074004430
         C            1.003817464689     0.485666907861    -0.159043641522    12.000000000000
         C            1.294560464689     1.674967907861     0.750204358478    12.000000000000
         C           -2.500776735311    -0.829236592139     0.352602858478    12.000000000000
         C           -1.448680535311     0.202648907861    -0.039129641522    12.000000000000
         C            2.189437464689    -0.516617092139    -0.161930641522    12.000000000000
         C           -3.930593535311    -0.310341092139    -0.134623641522    12.000000000000
         H            0.871325464689     0.853065907861    -1.186361641522     1.007825032230
         H           -0.016492535311    -1.199160092139     0.477810358478     1.007825032230
         H            1.445633464689     1.328656907861     1.777857358478     1.007825032230
         H            2.201411464689     2.183276907861     0.416065358478     1.007825032230
         H            0.458363464689     2.378284907861     0.736014358478     1.007825032230
         H           -2.316307535311    -1.755953092139    -0.110296641522     1.007825032230
         H           -2.542567535311    -0.920044092139     1.412772358478     1.007825032230
         H           -4.183300535311     0.651132907861     0.316317358478     1.007825032230
         H           -3.957548535311    -0.189123092139    -1.219780641522     1.007825032230
         H           -4.695431535311    -1.038124092139     0.149999358478     1.007825032230

  Basis Set: AUG-CC-PVTZ
    Blend: AUG-CC-PVTZ
  Basis Set: (AUG-CC-PVTZ AUX)
    Blend: AUG-CC-PVTZ-JKFIT
	 Reference Energy          =    -512.3237574379793386 [Eh]
	 Singles Energy            =      -0.0000000000000000 [Eh]
	 Same-Spin Energy          =      -0.5195031066271975 [Eh]
	 Opposite-Spin Energy      =      -1.6214456572659857 [Eh]
	 Correlation Energy        =      -2.1409487638931832 [Eh]
	 Total Energy              =    -514.4647062018725592 [Eh]

	 ================> DF-SCS-MP2 Energies <==================
	-----------------------------------------------------------
	 SCS Same-Spin Scale       =       0.3333333333333333 [-]
	 SCS Opposite-Spin Scale   =       1.2000000000000000 [-]
	 SCS Same-Spin Energy      =      -0.1731677022090658 [Eh]
	 SCS Opposite-Spin Energy  =      -1.9457347887191827 [Eh]
	 SCS Correlation Energy    =      -2.1189024909282486 [Eh]
	 SCS Total Energy          =    -514.4426599289075739 [Eh]
	-----------------------------------------------------------

  Dipole Moment: [D]
     X:    -8.5398      Y:     0.7222      Z:     1.5904     Total:     8.7166

*** Psi4 exiting successfully. Buy a developer a beer!
