                               Psi4 1.4a3.dev225

  ==> Input File <==

--------------------------------------------------------------------------
#psi4
#
memory 32 gb

molecule  {
-1 1
  O       -1.5868420     1.2523650    -0.8113290
  O        2.0299390    -1.6922460     0.2543140
  O        3.4074630     0.0142020    -0.3584910
  N       -0.1383540    -0.2870410     0.0455440
  C        1.0614583     0.4631119    -0.1751450
  C        1.2275190     1.6106150     0.8299030
  C       -2.4816390    -0.8906360    -0.1487800
  C       -1.3641120     0.1217370    -0.3343690
  C        2.2855270    -0.4976230    -0.0923730
  C       -3.7126180    -0.2515540     0.4884160
  H        1.0494870     0.8996880    -1.1894520
  H        0.0515970    -1.2513350     0.3145600
  H        1.2660770     1.2028380     1.8451460
  H        2.1536960     2.1558630     0.6353850
  H        0.3800930     2.2967220     0.7589720
  H       -2.7387560    -1.2794370    -1.1416750
  H       -2.1327770    -1.7398080     0.4477120
  H       -3.4838230     0.1112750     1.4946450
  H       -4.0489630     0.5957980    -0.1116680
  H       -4.5299760    -0.9736440     0.5641870
units angstrom
no_reorient  #important for SAPT in psi4, default
symmetry c1  #important for SAPT in psi4, default
}

set PROPERTIES_ORIGIN ["COM"]
properties('MP2/aug-cc-pvtz', properties = ['dipole'])
--------------------------------------------------------------------------

    Molecular point group: c1
  Charge       = -1
  Multiplicity = 1
  Basis Set: AUG-CC-PVTZ
    Blend: AUG-CC-PVTZ
  Basis Set: (AUG-CC-PVTZ AUX)
    Blend: AUG-CC-PVTZ-JKFIT

    Orbital Energies [Eh]
    ---------------------

    Doubly Occupied:

       1A    -20.388437     2A    -20.322942     3A    -20.314933
       4A    -15.443331     5A    -11.223478     6A    -11.163002
       7A    -11.135194     8A    -11.127785     9A    -11.114638
      10A    -11.076929    11A     -1.239946    12A     -1.191160
      13A     -1.100871    14A     -1.084106    15A     -0.951248
      16A     -0.877499    17A     -0.785035    18A     -0.725025
      19A     -0.644282    20A     -0.590394    21A     -0.548511
      22A     -0.523397    23A     -0.514033    24A     -0.484038
      25A     -0.463475    26A     -0.443164    27A     -0.434864
      28A     -0.418939    29A     -0.412281    30A     -0.404145
      31A     -0.396217    32A     -0.377441    33A     -0.369184
      34A     -0.339945    35A     -0.297853    36A     -0.257956
      37A     -0.237725    38A     -0.222884    39A     -0.216056

  @DF-RHF Final Energy:  -512.33598049319176

   => Energetics <=

    Nuclear Repulsion Energy =            534.5101703781808737
    One-Electron Energy =               -1773.9676109535798787
    Two-Electron Energy =                 727.1214600822072498
    Total Energy =                       -512.3359804931917552
  Basis Set: (AUG-CC-PVTZ AUX)
    Blend: AUG-CC-PVTZ-RI
    Molecular point group: c1

    Geometry (in Angstrom), charge = -1, multiplicity = 1:

       Center              X                  Y                   Z               Mass
    ------------   -----------------  -----------------  -----------------  -----------------
         O           -1.668180475964     1.267126242882    -0.786703223435    15.994914619570
         O            1.948600524036    -1.677484757118     0.278939776565    15.994914619570
         O            3.326124524036     0.028963242882    -0.333865223435    15.994914619570
         N           -0.219692475964    -0.272279757118     0.070169776565    14.003074004430
         C            0.980119824036     0.477873142882    -0.150519223435    12.000000000000
         C            1.146180524036     1.625376242882     0.854528776565    12.000000000000
         C           -2.562977475964    -0.875874757118    -0.124154223435    12.000000000000
         C           -1.445450475964     0.136498242882    -0.309743223435    12.000000000000
         C            2.204188524036    -0.482861757118    -0.067747223435    12.000000000000
         C           -3.793956475964    -0.236792757118     0.513041776565    12.000000000000
         H            0.968148524036     0.914449242882    -1.164826223435     1.007825032230
         H           -0.029741475964    -1.236573757118     0.339185776565     1.007825032230
         H            1.184738524036     1.217599242882     1.869771776565     1.007825032230
         H            2.072357524036     2.170624242882     0.660010776565     1.007825032230
         H            0.298754524036     2.311483242882     0.783597776565     1.007825032230
         H           -2.820094475964    -1.264675757118    -1.117049223435     1.007825032230
         H           -2.214115475964    -1.725046757118     0.472337776565     1.007825032230
         H           -3.565161475964     0.126036242882     1.519270776565     1.007825032230
         H           -4.130301475964     0.610559242882    -0.087042223435     1.007825032230
         H           -4.611314475964    -0.958882757118     0.588812776565     1.007825032230

  Basis Set: AUG-CC-PVTZ
    Blend: AUG-CC-PVTZ
  Basis Set: (AUG-CC-PVTZ AUX)
    Blend: AUG-CC-PVTZ-JKFIT
	 Reference Energy          =    -512.3359804931917552 [Eh]
	 Singles Energy            =      -0.0000000000000000 [Eh]
	 Same-Spin Energy          =      -0.5205505318139925 [Eh]
	 Opposite-Spin Energy      =      -1.6218088106439414 [Eh]
	 Correlation Energy        =      -2.1423593424579339 [Eh]
	 Total Energy              =    -514.4783398356496491 [Eh]

	 ================> DF-SCS-MP2 Energies <==================
	-----------------------------------------------------------
	 SCS Same-Spin Scale       =       0.3333333333333333 [-]
	 SCS Opposite-Spin Scale   =       1.2000000000000000 [-]
	 SCS Same-Spin Energy      =      -0.1735168439379975 [Eh]
	 SCS Opposite-Spin Energy  =      -1.9461705727727296 [Eh]
	 SCS Correlation Energy    =      -2.1196874167107271 [Eh]
	 SCS Total Energy          =    -514.4556679099024450 [Eh]
	-----------------------------------------------------------

  Dipole Moment: [D]
     X:    -8.7052      Y:     0.3497      Z:     1.2207     Total:     8.7974

*** Psi4 exiting successfully. Buy a developer a beer!
