                               Psi4 1.4a3.dev225

  ==> Input File <==

--------------------------------------------------------------------------
#psi4
#
memory 32 gb

molecule  {
-1 1
  O       -1.5868420     1.2523650    -0.8113290
  O        2.0299390    -1.6922460     0.2543140
  O        3.4074630     0.0142020    -0.3584910
  N       -0.1383540    -0.2870410     0.0455440
  C        1.0782140     0.4735880    -0.1782270
  C        1.2275190     1.6106150     0.8299030
  C       -2.4816390    -0.8906360    -0.1487800
  C       -1.4096177     0.1369127    -0.3484731
  C        2.2855270    -0.4976230    -0.0923730
  C       -3.7126180    -0.2515540     0.4884160
  H        1.0494870     0.8996880    -1.1894520
  H        0.0515970    -1.2513350     0.3145600
  H        1.2660770     1.2028380     1.8451460
  H        2.1536960     2.1558630     0.6353850
  H        0.3800930     2.2967220     0.7589720
  H       -2.7387560    -1.2794370    -1.1416750
  H       -2.1327770    -1.7398080     0.4477120
  H       -3.4838230     0.1112750     1.4946450
  H       -4.0489630     0.5957980    -0.1116680
  H       -4.5299760    -0.9736440     0.5641870
units angstrom
no_reorient  #important for SAPT in psi4, default
symmetry c1  #important for SAPT in psi4, default
}

set PROPERTIES_ORIGIN ["COM"]
properties('MP2/aug-cc-pvtz', properties = ['dipole'])
--------------------------------------------------------------------------

    Molecular point group: c1
  Charge       = -1
  Multiplicity = 1
  Basis Set: AUG-CC-PVTZ
    Blend: AUG-CC-PVTZ
  Basis Set: (AUG-CC-PVTZ AUX)
    Blend: AUG-CC-PVTZ-JKFIT

    Orbital Energies [Eh]
    ---------------------

    Doubly Occupied:

       1A    -20.397089     2A    -20.319693     3A    -20.311808
       4A    -15.433285     5A    -11.225816     6A    -11.159486
       7A    -11.136044     8A    -11.129854     9A    -11.110905
      10A    -11.074392    11A     -1.256905    12A     -1.188219
      13A     -1.091150    14A     -1.071225    15A     -0.956280
      16A     -0.872280    17A     -0.786937    18A     -0.718614
      19A     -0.635997    20A     -0.588571    21A     -0.548276
      22A     -0.525068    23A     -0.511780    24A     -0.490189
      25A     -0.459638    26A     -0.446277    27A     -0.434507
      28A     -0.419657    29A     -0.414277    30A     -0.403285
      31A     -0.395809    32A     -0.377280    33A     -0.367181
      34A     -0.340691    35A     -0.303080    36A     -0.252507
      37A     -0.234525    38A     -0.220092    39A     -0.212556

  @DF-RHF Final Energy:  -512.33324136240003

   => Energetics <=

    Nuclear Repulsion Energy =            534.0534196805954252
    One-Electron Energy =               -1773.1308740804486206
    Two-Electron Energy =                 726.7442130374531644
    Total Energy =                       -512.3332413624000310
  Basis Set: (AUG-CC-PVTZ AUX)
    Blend: AUG-CC-PVTZ-RI
    Molecular point group: c1

    Geometry (in Angstrom), charge = -1, multiplicity = 1:

       Center              X                  Y                   Z               Mass
    ------------   -----------------  -----------------  -----------------  -----------------
         O           -1.665785741351     1.264989573201    -0.785271705225    15.994914619570
         O            1.950995258649    -1.679621426799     0.280371294775    15.994914619570
         O            3.328519258649     0.026826573201    -0.332433705225    15.994914619570
         N           -0.217297741351    -0.274416426799     0.071601294775    14.003074004430
         C            0.999270258649     0.486212573201    -0.152169705225    12.000000000000
         C            1.148575258649     1.623239573201     0.855960294775    12.000000000000
         C           -2.560582741351    -0.878011426799    -0.122722705225    12.000000000000
         C           -1.488561441351     0.149537273201    -0.322415805225    12.000000000000
         C            2.206583258649    -0.484998426799    -0.066315705225    12.000000000000
         C           -3.791561741351    -0.238929426799     0.514473294775    12.000000000000
         H            0.970543258649     0.912312573201    -1.163394705225     1.007825032230
         H           -0.027346741351    -1.238710426799     0.340617294775     1.007825032230
         H            1.187133258649     1.215462573201     1.871203294775     1.007825032230
         H            2.074752258649     2.168487573201     0.661442294775     1.007825032230
         H            0.301149258649     2.309346573201     0.785029294775     1.007825032230
         H           -2.817699741351    -1.266812426799    -1.115617705225     1.007825032230
         H           -2.211720741351    -1.727183426799     0.473769294775     1.007825032230
         H           -3.562766741351     0.123899573201     1.520702294775     1.007825032230
         H           -4.127906741351     0.608422573201    -0.085610705225     1.007825032230
         H           -4.608919741351    -0.961019426799     0.590244294775     1.007825032230

  Basis Set: AUG-CC-PVTZ
    Blend: AUG-CC-PVTZ
  Basis Set: (AUG-CC-PVTZ AUX)
    Blend: AUG-CC-PVTZ-JKFIT
	 Reference Energy          =    -512.3332413624000310 [Eh]
	 Singles Energy            =      -0.0000000000000000 [Eh]
	 Same-Spin Energy          =      -0.5203674386778505 [Eh]
	 Opposite-Spin Energy      =      -1.6215892496659450 [Eh]
	 Correlation Energy        =      -2.1419566883437957 [Eh]
	 Total Energy              =    -514.4751980507438702 [Eh]

	 ================> DF-SCS-MP2 Energies <==================
	-----------------------------------------------------------
	 SCS Same-Spin Scale       =       0.3333333333333333 [-]
	 SCS Opposite-Spin Scale   =       1.2000000000000000 [-]
	 SCS Same-Spin Energy      =      -0.1734558128926168 [Eh]
	 SCS Opposite-Spin Energy  =      -1.9459070995991339 [Eh]
	 SCS Correlation Energy    =      -2.1193629124917508 [Eh]
	 SCS Total Energy          =    -514.4526042748917689 [Eh]
	-----------------------------------------------------------

  Dipole Moment: [D]
     X:    -9.1031      Y:     0.5024      Z:     1.0844     Total:     9.1812

*** Psi4 exiting successfully. Buy a developer a beer!
