                               Psi4 1.3.2 release

  ==> Input File <==

--------------------------------------------------------------------------
#psi4
#
memory 32 gb

molecule  {
-1 1
  O       -1.6024110     1.2883820    -0.5634480
  O        2.0191420    -1.7287390     0.1939930
  O        3.3803020    -0.0587520    -0.5397320
  N       -0.1226805    -0.1976118     0.2902284
  C        1.0875530     0.4615680    -0.1724770
  C        1.3128848     1.6322156     0.7785803
  C       -2.4731170    -0.8032840     0.3122730
  C       -1.3649450     0.1785500    -0.0525630
  C        2.2731730    -0.5407160    -0.1753640
  C       -3.8468580    -0.3344400    -0.1480570
  H        0.9550610     0.8289670    -1.1997950
  H        0.0672430    -1.2232590     0.4643770
  H        1.5293690     1.3045580     1.7644240
  H        2.2851470     2.1591780     0.4026320
  H        0.5420990     2.3541860     0.7225810
  H       -2.2325720    -1.7800520    -0.1237300
  H       -2.4588320    -0.9441430     1.3993390
  H       -4.0995650     0.6270340     0.3028840
  H       -3.8738130    -0.2132220    -1.2332140
  H       -4.6116960    -1.0622230     0.1365660
units angstrom
no_reorient  #important for SAPT in psi4, default
symmetry c1  #important for SAPT in psi4, default
}

set PROPERTIES_ORIGIN ["COM"]
properties('MP2/aug-cc-pvtz', properties = ['dipole'])
--------------------------------------------------------------------------

    Molecular point group: c1
  Charge       = -1
  Multiplicity = 1
  Basis Set: AUG-CC-PVTZ
    Blend: AUG-CC-PVTZ
  Basis Set: (AUG-CC-PVTZ AUX)
    Blend: AUG-CC-PVTZ-JKFIT

    Orbital Energies [Eh]
    ---------------------

    Doubly Occupied:

       1A    -20.390372     2A    -20.324601     3A    -20.315639
       4A    -15.438370     5A    -11.221593     6A    -11.164435
       7A    -11.135620     8A    -11.124349     9A    -11.115596
      10A    -11.074527    11A     -1.242024    12A     -1.192008
      13A     -1.096611    14A     -1.082066    15A     -0.949563
      16A     -0.878437    17A     -0.781978    18A     -0.722622
      19A     -0.631370    20A     -0.587566    21A     -0.544113
      22A     -0.533540    23A     -0.512853    24A     -0.481520
      25A     -0.467925    26A     -0.440100    27A     -0.425675
      28A     -0.421744    29A     -0.413451    30A     -0.404054
      31A     -0.396437    32A     -0.376408    33A     -0.352277
      34A     -0.344591    35A     -0.299289    36A     -0.257232
      37A     -0.238387    38A     -0.225033    39A     -0.217726

  @DF-RHF Final Energy:  -512.32517365458637

   => Energetics <=

    Nuclear Repulsion Energy =            533.6905612785874382
    One-Electron Energy =               -1772.3880623249362998
    Two-Electron Energy =                 726.3723273917624965
    Total Energy =                       -512.3251736545863650
  Basis Set: (AUG-CC-PVTZ AUX)
    Blend: AUG-CC-PVTZ-RI
    Molecular point group: c1

    Geometry (in Angstrom), charge = -1, multiplicity = 1:

       Center              X                  Y                   Z               Mass
    ------------   -----------------  -----------------  -----------------  -----------------
         O           -1.677994004914     1.299186639782    -0.554334960367    15.994914619570
         O            1.943558995086    -1.717934360218     0.203106039633    15.994914619570
         O            3.304718995086    -0.047947360218    -0.530618960367    15.994914619570
         N           -0.198263504914    -0.186807160218     0.299341439633    14.003074004430
         C            1.011969995086     0.472372639782    -0.163363960367    12.000000000000
         C            1.237301795086     1.643020239782     0.787693339633    12.000000000000
         C           -2.548700004914    -0.792479360218     0.321386039633    12.000000000000
         C           -1.440528004914     0.189354639782    -0.043449960367    12.000000000000
         C            2.197589995086    -0.529911360218    -0.166250960367    12.000000000000
         C           -3.922441004914    -0.323635360218    -0.138943960367    12.000000000000
         H            0.879477995086     0.839771639782    -1.190681960367     1.007825032230
         H           -0.008340004914    -1.212454360218     0.473490039633     1.007825032230
         H            1.453785995086     1.315362639782     1.773537039633     1.007825032230
         H            2.209563995086     2.169982639782     0.411745039633     1.007825032230
         H            0.466515995086     2.364990639782     0.731694039633     1.007825032230
         H           -2.308155004914    -1.769247360218    -0.114616960367     1.007825032230
         H           -2.534415004914    -0.933338360218     1.408452039633     1.007825032230
         H           -4.175148004914     0.637838639782     0.311997039633     1.007825032230
         H           -3.949396004914    -0.202417360218    -1.224100960367     1.007825032230
         H           -4.687279004914    -1.051418360218     0.145679039633     1.007825032230

  Basis Set: AUG-CC-PVTZ
    Blend: AUG-CC-PVTZ
  Basis Set: (AUG-CC-PVTZ AUX)
    Blend: AUG-CC-PVTZ-JKFIT
	 Reference Energy          =    -512.3251736545863650 [Eh]
	 Singles Energy            =      -0.0000000000000000 [Eh]
	 Same-Spin Energy          =      -0.5208426532658318 [Eh]
	 Opposite-Spin Energy      =      -1.6228039840651014 [Eh]
	 Correlation Energy        =      -2.1436466373309333 [Eh]
	 Total Energy              =    -514.4688202919172682 [Eh]

	 ================> DF-SCS-MP2 Energies <==================
	-----------------------------------------------------------
	 SCS Same-Spin Scale       =       0.3333333333333333 [-]
	 SCS Opposite-Spin Scale   =       1.2000000000000000 [-]
	 SCS Same-Spin Energy      =      -0.1736142177552772 [Eh]
	 SCS Opposite-Spin Energy  =      -1.9473647808781216 [Eh]
	 SCS Correlation Energy    =      -2.1209789986333987 [Eh]
	 SCS Total Energy          =    -514.4461526532197695 [Eh]
	-----------------------------------------------------------

  Dipole Moment: [D]
     X:    -8.6638      Y:     0.5216      Z:     1.5638     Total:     8.8192

*** Psi4 exiting successfully. Buy a developer a beer!
