                               Psi4 1.3.2 release

  ==> Input File <==

--------------------------------------------------------------------------
#psi4
#
memory 32 gb

molecule  {
-1 1
  O       -1.6024110     1.2883820    -0.5634480
  O        2.0191420    -1.7287390     0.1939930
  O        3.3803020    -0.0587520    -0.5397320
  N       -0.1147610    -0.2476350     0.2334190
  C        1.0767308     0.4587673    -0.1652557
  C        1.3782960     1.6508690     0.7367710
  C       -2.4731170    -0.8032840     0.3122730
  C       -1.3649450     0.1785500    -0.0525630
  C        2.2731730    -0.5407160    -0.1753640
  C       -3.8468580    -0.3344400    -0.1480570
  H        0.9550610     0.8289670    -1.1997950
  H        0.0672430    -1.2232590     0.4643770
  H        1.5293690     1.3045580     1.7644240
  H        2.2841928     2.1654596     0.4097339
  H        0.5420990     2.3541860     0.7225810
  H       -2.2325720    -1.7800520    -0.1237300
  H       -2.4588320    -0.9441430     1.3993390
  H       -4.0995650     0.6270340     0.3028840
  H       -3.8738130    -0.2132220    -1.2332140
  H       -4.6116960    -1.0622230     0.1365660
units angstrom
no_reorient  #important for SAPT in psi4, default
symmetry c1  #important for SAPT in psi4, default
}

set PROPERTIES_ORIGIN ["COM"]
properties('MP2/aug-cc-pvtz', properties = ['dipole'])
--------------------------------------------------------------------------

    Molecular point group: c1
  Charge       = -1
  Multiplicity = 1
  Basis Set: AUG-CC-PVTZ
    Blend: AUG-CC-PVTZ
  Basis Set: (AUG-CC-PVTZ AUX)
    Blend: AUG-CC-PVTZ-JKFIT

    Orbital Energies [Eh]
    ---------------------

    Doubly Occupied:

       1A    -20.392395     2A    -20.322033     3A    -20.313732
       4A    -15.438608     5A    -11.224164     6A    -11.161986
       7A    -11.135780     8A    -11.124634     9A    -11.114240
      10A    -11.075176    11A     -1.242404    12A     -1.190216
      13A     -1.098001    14A     -1.082245    15A     -0.949823
      16A     -0.877762    17A     -0.784735    18A     -0.720554
      19A     -0.640028    20A     -0.589250    21A     -0.543049
      22A     -0.533231    23A     -0.511152    24A     -0.483463
      25A     -0.465901    26A     -0.438341    27A     -0.425923
      28A     -0.419452    29A     -0.413748    30A     -0.402371
      31A     -0.397209    32A     -0.377248    33A     -0.369672
      34A     -0.340723    35A     -0.300170    36A     -0.256990
      37A     -0.236450    38A     -0.222224    39A     -0.215377

  @DF-RHF Final Energy:  -512.33570484041013

   => Energetics <=

    Nuclear Repulsion Energy =            533.5153887054757433
    One-Electron Energy =               -1772.0412632379213846
    Two-Electron Energy =                 726.1901696920355107
    Total Energy =                       -512.3357048404101306
  Basis Set: (AUG-CC-PVTZ AUX)
    Blend: AUG-CC-PVTZ-RI
    Molecular point group: c1

    Geometry (in Angstrom), charge = -1, multiplicity = 1:

       Center              X                  Y                   Z               Mass
    ------------   -----------------  -----------------  -----------------  -----------------
         O           -1.683304094150     1.302684447587    -0.545981815349    15.994914619570
         O            1.938248905850    -1.714436552413     0.211459184651    15.994914619570
         O            3.299408905850    -0.044449552413    -0.522265815349    15.994914619570
         N           -0.195654094150    -0.233332552413     0.250885184651    14.003074004430
         C            0.995837705850     0.473069747587    -0.147789515349    12.000000000000
         C            1.297402905850     1.665171447587     0.754237184651    12.000000000000
         C           -2.554010094150    -0.788981552413     0.329739184651    12.000000000000
         C           -1.445838094150     0.192852447587    -0.035096815349    12.000000000000
         C            2.192279905850    -0.526413552413    -0.157897815349    12.000000000000
         C           -3.927751094150    -0.320137552413    -0.130590815349    12.000000000000
         H            0.874167905850     0.843269447587    -1.182328815349     1.007825032230
         H           -0.013650094150    -1.208956552413     0.481843184651     1.007825032230
         H            1.448475905850     1.318860447587     1.781890184651     1.007825032230
         H            2.203299705850     2.179762047587     0.427200084651     1.007825032230
         H            0.461205905850     2.368488447587     0.740047184651     1.007825032230
         H           -2.313465094150    -1.765749552413    -0.106263815349     1.007825032230
         H           -2.539725094150    -0.929840552413     1.416805184651     1.007825032230
         H           -4.180458094150     0.641336447587     0.320350184651     1.007825032230
         H           -3.954706094150    -0.198919552413    -1.215747815349     1.007825032230
         H           -4.692589094150    -1.047920552413     0.154032184651     1.007825032230

  Basis Set: AUG-CC-PVTZ
    Blend: AUG-CC-PVTZ
  Basis Set: (AUG-CC-PVTZ AUX)
    Blend: AUG-CC-PVTZ-JKFIT
	 Reference Energy          =    -512.3357048404101306 [Eh]
	 Singles Energy            =      -0.0000000000000000 [Eh]
	 Same-Spin Energy          =      -0.5202444623095683 [Eh]
	 Opposite-Spin Energy      =      -1.6213544520657888 [Eh]
	 Correlation Energy        =      -2.1415989143753569 [Eh]
	 Total Energy              =    -514.4773037547854528 [Eh]

	 ================> DF-SCS-MP2 Energies <==================
	-----------------------------------------------------------
	 SCS Same-Spin Scale       =       0.3333333333333333 [-]
	 SCS Opposite-Spin Scale   =       1.2000000000000000 [-]
	 SCS Same-Spin Energy      =      -0.1734148207698561 [Eh]
	 SCS Opposite-Spin Energy  =      -1.9456253424789465 [Eh]
	 SCS Correlation Energy    =      -2.1190401632488025 [Eh]
	 SCS Total Energy          =    -514.4547450036588998 [Eh]
	-----------------------------------------------------------

  Dipole Moment: [D]
     X:    -8.7189      Y:     0.6126      Z:     1.6110     Total:     8.8876

*** Psi4 exiting successfully. Buy a developer a beer!
