                               Psi4 1.3.2 release

  ==> Input File <==

--------------------------------------------------------------------------
#psi4
#
memory 32 gb

molecule  {
-1 1
  O       -1.6024110     1.2883820    -0.5634480
  O        2.0191420    -1.7287390     0.1939930
  O        3.3803020    -0.0587520    -0.5397320
  N       -0.1147610    -0.2476350     0.2334190
  C        1.0875530     0.4615680    -0.1724770
  C        1.3782960     1.6508690     0.7367710
  C       -2.4731170    -0.8032840     0.3122730
  C       -1.3284646     0.1194842    -0.0919773
  C        2.2731730    -0.5407160    -0.1753640
  C       -3.8468580    -0.3344400    -0.1480570
  H        0.9550610     0.8289670    -1.1997950
  H        0.0672430    -1.2232590     0.4643770
  H        1.5293690     1.3045580     1.7644240
  H        2.2851470     2.1591780     0.4026320
  H        0.5420990     2.3541860     0.7225810
  H       -2.1846636    -1.7569389    -0.1453001
  H       -2.4588320    -0.9441430     1.3993390
  H       -4.0995650     0.6270340     0.3028840
  H       -3.8738130    -0.2132220    -1.2332140
  H       -4.6116960    -1.0622230     0.1365660
units angstrom
no_reorient  #important for SAPT in psi4, default
symmetry c1  #important for SAPT in psi4, default
}

set PROPERTIES_ORIGIN ["COM"]
properties('MP2/aug-cc-pvtz', properties = ['dipole'])
--------------------------------------------------------------------------

    Molecular point group: c1
  Charge       = -1
  Multiplicity = 1
  Basis Set: AUG-CC-PVTZ
    Blend: AUG-CC-PVTZ
  Basis Set: (AUG-CC-PVTZ AUX)
    Blend: AUG-CC-PVTZ-JKFIT

    Orbital Energies [Eh]
    ---------------------

    Doubly Occupied:

       1A    -20.380028     2A    -20.325566     3A    -20.316579
       4A    -15.447109     5A    -11.220950     6A    -11.165101
       7A    -11.135903     8A    -11.123684     9A    -11.119385
      10A    -11.077736    11A     -1.219217    12A     -1.192315
      13A     -1.102793    14A     -1.087331    15A     -0.947959
      16A     -0.885197    17A     -0.786064    18A     -0.726694
      19A     -0.645855    20A     -0.588587    21A     -0.541437
      22A     -0.534512    23A     -0.511979    24A     -0.473250
      25A     -0.467758    26A     -0.439770    27A     -0.428889
      28A     -0.419399    29A     -0.409730    30A     -0.403702
      31A     -0.394546    32A     -0.375282    33A     -0.369179
      34A     -0.338818    35A     -0.290767    36A     -0.261159
      37A     -0.240030    38A     -0.226014    39A     -0.218707

  @DF-RHF Final Energy:  -512.32758456394185

   => Energetics <=

    Nuclear Repulsion Energy =            533.5955811554746333
    One-Electron Energy =               -1772.1683708962814308
    Two-Electron Energy =                 726.2452051768650563
    Total Energy =                       -512.3275845639418549
  Basis Set: (AUG-CC-PVTZ AUX)
    Blend: AUG-CC-PVTZ-RI
    Molecular point group: c1

    Geometry (in Angstrom), charge = -1, multiplicity = 1:

       Center              X                  Y                   Z               Mass
    ------------   -----------------  -----------------  -----------------  -----------------
         O           -1.687585991749     1.307253309647    -0.541896720457    15.994914619570
         O            1.933967008251    -1.709867690353     0.215544279543    15.994914619570
         O            3.295127008251    -0.039880690353    -0.518180720457    15.994914619570
         N           -0.199935991749    -0.228763690353     0.254970279543    14.003074004430
         C            1.002378008251     0.480439309647    -0.150925720457    12.000000000000
         C            1.293121008251     1.669740309647     0.758322279543    12.000000000000
         C           -2.558291991749    -0.784412690353     0.333824279543    12.000000000000
         C           -1.413639591749     0.138355509647    -0.070426020457    12.000000000000
         C            2.187998008251    -0.521844690353    -0.153812720457    12.000000000000
         C           -3.932032991749    -0.315568690353    -0.126505720457    12.000000000000
         H            0.869886008251     0.847838309647    -1.178243720457     1.007825032230
         H           -0.017931991749    -1.204387690353     0.485928279543     1.007825032230
         H            1.444194008251     1.323429309647     1.785975279543     1.007825032230
         H            2.199972008251     2.178049309647     0.424183279543     1.007825032230
         H            0.456924008251     2.373057309647     0.744132279543     1.007825032230
         H           -2.269838591749    -1.738067590353    -0.123748820457     1.007825032230
         H           -2.544006991749    -0.925271690353     1.420890279543     1.007825032230
         H           -4.184739991749     0.645905309647     0.324435279543     1.007825032230
         H           -3.958987991749    -0.194350690353    -1.211662720457     1.007825032230
         H           -4.696870991749    -1.043351690353     0.158117279543     1.007825032230

  Basis Set: AUG-CC-PVTZ
    Blend: AUG-CC-PVTZ
  Basis Set: (AUG-CC-PVTZ AUX)
    Blend: AUG-CC-PVTZ-JKFIT
	 Reference Energy          =    -512.3275845639418549 [Eh]
	 Singles Energy            =      -0.0000000000000000 [Eh]
	 Same-Spin Energy          =      -0.5209344334564359 [Eh]
	 Opposite-Spin Energy      =      -1.6229921879631211 [Eh]
	 Correlation Energy        =      -2.1439266214195571 [Eh]
	 Total Energy              =    -514.4715111853614644 [Eh]

	 ================> DF-SCS-MP2 Energies <==================
	-----------------------------------------------------------
	 SCS Same-Spin Scale       =       0.3333333333333333 [-]
	 SCS Opposite-Spin Scale   =       1.2000000000000000 [-]
	 SCS Same-Spin Energy      =      -0.1736448111521453 [Eh]
	 SCS Opposite-Spin Energy  =      -1.9475906255557451 [Eh]
	 SCS Correlation Energy    =      -2.1212354367078903 [Eh]
	 SCS Total Energy          =    -514.4488200006497891 [Eh]
	-----------------------------------------------------------

  Dipole Moment: [D]
     X:    -8.2968      Y:     0.4104      Z:     1.6914     Total:     8.4773

*** Psi4 exiting successfully. Buy a developer a beer!
