                               Psi4 1.3.2 release

  ==> Input File <==

--------------------------------------------------------------------------
#psi4
#
memory 32 gb

molecule  {
-1 1
  O       -1.6024110     1.2883820    -0.5634480
  O        2.0191420    -1.7287390     0.1939930
  O        3.3803020    -0.0587520    -0.5397320
  N       -0.1147610    -0.2476350     0.2334190
  C        1.0875530     0.4615680    -0.1724770
  C        1.3664201     1.6560372     0.7337111
  C       -2.4731170    -0.8032840     0.3122730
  C       -1.3649450     0.1785500    -0.0525630
  C        2.2663811    -0.5486338    -0.1840086
  C       -3.8468580    -0.3344400    -0.1480570
  H        0.9550610     0.8289670    -1.1997950
  H        0.0672430    -1.2232590     0.4643770
  H        1.5293690     1.3045580     1.7644240
  H        2.2851470     2.1591780     0.4026320
  H        0.5420990     2.3541860     0.7225810
  H       -2.2325720    -1.7800520    -0.1237300
  H       -2.4588320    -0.9441430     1.3993390
  H       -4.0995650     0.6270340     0.3028840
  H       -3.8738130    -0.2132220    -1.2332140
  H       -4.6116960    -1.0622230     0.1365660
units angstrom
no_reorient  #important for SAPT in psi4, default
symmetry c1  #important for SAPT in psi4, default
}

set PROPERTIES_ORIGIN ["COM"]
properties('MP2/aug-cc-pvtz', properties = ['dipole'])
--------------------------------------------------------------------------

    Molecular point group: c1
  Charge       = -1
  Multiplicity = 1
  Basis Set: AUG-CC-PVTZ
    Blend: AUG-CC-PVTZ
  Basis Set: (AUG-CC-PVTZ AUX)
    Blend: AUG-CC-PVTZ-JKFIT

    Orbital Energies [Eh]
    ---------------------

    Doubly Occupied:

       1A    -20.391891     2A    -20.324105     3A    -20.312186
       4A    -15.437921     5A    -11.223641     6A    -11.162222
       7A    -11.135484     8A    -11.124442     9A    -11.114754
      10A    -11.075624    11A     -1.241746    12A     -1.191133
      13A     -1.095409    14A     -1.081959    15A     -0.949421
      16A     -0.878129    17A     -0.784057    18A     -0.721489
      19A     -0.639631    20A     -0.588505    21A     -0.541985
      22A     -0.533094    23A     -0.511349    24A     -0.483084
      25A     -0.466398    26A     -0.438479    27A     -0.425353
      28A     -0.419635    29A     -0.413388    30A     -0.403906
      31A     -0.397398    32A     -0.375173    33A     -0.370233
      34A     -0.340992    35A     -0.299693    36A     -0.256918
      37A     -0.237582    38A     -0.222789    39A     -0.215315

  @DF-RHF Final Energy:  -512.33556423366656

   => Energetics <=

    Nuclear Repulsion Energy =            533.4366889351334748
    One-Electron Energy =               -1771.8914738649821174
    Two-Electron Energy =                 726.1192206961821967
    Total Energy =                       -512.3355642336665596
  Basis Set: (AUG-CC-PVTZ AUX)
    Blend: AUG-CC-PVTZ-RI
    Molecular point group: c1

    Geometry (in Angstrom), charge = -1, multiplicity = 1:

       Center              X                  Y                   Z               Mass
    ------------   -----------------  -----------------  -----------------  -----------------
         O           -1.682657269159     1.302724134613    -0.544355706748    15.994914619570
         O            1.938895730841    -1.714396865387     0.213085293252    15.994914619570
         O            3.300055730841    -0.044409865387    -0.520639706748    15.994914619570
         N           -0.195007269159    -0.233292865387     0.252511293252    14.003074004430
         C            1.007306730841     0.475910134613    -0.153384706748    12.000000000000
         C            1.286173830841     1.670379334613     0.752803393252    12.000000000000
         C           -2.553363269159    -0.788941865387     0.331365293252    12.000000000000
         C           -1.445191269159     0.192892134613    -0.033470706748    12.000000000000
         C            2.186134830841    -0.534291665387    -0.164916306748    12.000000000000
         C           -3.927104269159    -0.320097865387    -0.128964706748    12.000000000000
         H            0.874814730841     0.843309134613    -1.180702706748     1.007825032230
         H           -0.013003269159    -1.208916865387     0.483469293252     1.007825032230
         H            1.449122730841     1.318900134613     1.783516293252     1.007825032230
         H            2.204900730841     2.173520134613     0.421724293252     1.007825032230
         H            0.461852730841     2.368528134613     0.741673293252     1.007825032230
         H           -2.312818269159    -1.765709865387    -0.104637706748     1.007825032230
         H           -2.539078269159    -0.929800865387     1.418431293252     1.007825032230
         H           -4.179811269159     0.641376134613     0.321976293252     1.007825032230
         H           -3.954059269159    -0.198879865387    -1.214121706748     1.007825032230
         H           -4.691942269159    -1.047880865387     0.155658293252     1.007825032230

  Basis Set: AUG-CC-PVTZ
    Blend: AUG-CC-PVTZ
  Basis Set: (AUG-CC-PVTZ AUX)
    Blend: AUG-CC-PVTZ-JKFIT
	 Reference Energy          =    -512.3355642336665596 [Eh]
	 Singles Energy            =      -0.0000000000000000 [Eh]
	 Same-Spin Energy          =      -0.5201827107407142 [Eh]
	 Opposite-Spin Energy      =      -1.6213959126273463 [Eh]
	 Correlation Energy        =      -2.1415786233680603 [Eh]
	 Total Energy              =    -514.4771428570346643 [Eh]

	 ================> DF-SCS-MP2 Energies <==================
	-----------------------------------------------------------
	 SCS Same-Spin Scale       =       0.3333333333333333 [-]
	 SCS Opposite-Spin Scale   =       1.2000000000000000 [-]
	 SCS Same-Spin Energy      =      -0.1733942369135714 [Eh]
	 SCS Opposite-Spin Energy  =      -1.9456750951528154 [Eh]
	 SCS Correlation Energy    =      -2.1190693320663869 [Eh]
	 SCS Total Energy          =    -514.4546335657329337 [Eh]
	-----------------------------------------------------------

  Dipole Moment: [D]
     X:    -8.7383      Y:     0.5781      Z:     1.6160     Total:     8.9053

*** Psi4 exiting successfully. Buy a developer a beer!
