                               Psi4 1.3.2 release

  ==> Input File <==

--------------------------------------------------------------------------
#psi4
#
memory 32 gb

molecule  {
-1 1
  O       -1.6024110     1.2883820    -0.5634480
  O        2.0191420    -1.7287390     0.1939930
  O        3.3803020    -0.0587520    -0.5397320
  N       -0.1147610    -0.2476350     0.2334190
  C        1.0875530     0.4615680    -0.1724770
  C        1.3782960     1.6508690     0.7367710
  C       -2.4731170    -0.8032840     0.3122730
  C       -1.3649450     0.1785500    -0.0525630
  C        2.2731730    -0.5407160    -0.1753640
  C       -3.8481992    -0.3455677    -0.1551962
  H        0.9550610     0.8289670    -1.1997950
  H        0.0672430    -1.2232590     0.4643770
  H        1.5293690     1.3045580     1.7644240
  H        2.2851470     2.1591780     0.4026320
  H        0.5420990     2.3541860     0.7225810
  H       -2.2410130    -1.7800733    -0.1282343
  H       -2.4588320    -0.9441430     1.3993390
  H       -4.0995650     0.6270340     0.3028840
  H       -3.8738130    -0.2132220    -1.2332140
  H       -4.6116960    -1.0622230     0.1365660
units angstrom
no_reorient  #important for SAPT in psi4, default
symmetry c1  #important for SAPT in psi4, default
}

set PROPERTIES_ORIGIN ["COM"]
properties('MP2/aug-cc-pvtz', properties = ['dipole'])
--------------------------------------------------------------------------

    Molecular point group: c1
  Charge       = -1
  Multiplicity = 1
  Basis Set: AUG-CC-PVTZ
    Blend: AUG-CC-PVTZ
  Basis Set: (AUG-CC-PVTZ AUX)
    Blend: AUG-CC-PVTZ-JKFIT

    Orbital Energies [Eh]
    ---------------------

    Doubly Occupied:

       1A    -20.391828     2A    -20.322274     3A    -20.313749
       4A    -15.437996     5A    -11.223764     6A    -11.161932
       7A    -11.135374     8A    -11.124216     9A    -11.114737
      10A    -11.075598    11A     -1.241639    12A     -1.190560
      13A     -1.096623    14A     -1.081194    15A     -0.949348
      16A     -0.878479    17A     -0.783891    18A     -0.720956
      19A     -0.639508    20A     -0.588656    21A     -0.542169
      22A     -0.533020    23A     -0.511215    24A     -0.483693
      25A     -0.465595    26A     -0.438413    27A     -0.426081
      28A     -0.420682    29A     -0.411693    30A     -0.403559
      31A     -0.396536    32A     -0.375630    33A     -0.370020
      34A     -0.341477    35A     -0.299705    36A     -0.257135
      37A     -0.236891    38A     -0.223041    39A     -0.215582

  @DF-RHF Final Energy:  -512.33583012332349

   => Energetics <=

    Nuclear Repulsion Energy =            533.3672955857754232
    One-Electron Energy =               -1771.7573374080743633
    Two-Electron Energy =                 726.0542116989753367
    Total Energy =                       -512.3358301233234897
  Basis Set: (AUG-CC-PVTZ AUX)
    Blend: AUG-CC-PVTZ-RI
    Molecular point group: c1

    Geometry (in Angstrom), charge = -1, multiplicity = 1:

       Center              X                  Y                   Z               Mass
    ------------   -----------------  -----------------  -----------------  -----------------
         O           -1.684041440681     1.303422138438    -0.544704463776    15.994914619570
         O            1.937511559319    -1.713698861562     0.212736536224    15.994914619570
         O            3.298671559319    -0.043711861562    -0.520988463776    15.994914619570
         N           -0.196391440681    -0.232594861562     0.252162536224    14.003074004430
         C            1.005922559319     0.476608138438    -0.153733463776    12.000000000000
         C            1.296665559319     1.665909138438     0.755514536224    12.000000000000
         C           -2.554747440681    -0.788243861562     0.331016536224    12.000000000000
         C           -1.446575440681     0.193590138438    -0.033819463776    12.000000000000
         C            2.191542559319    -0.525675861562    -0.156620463776    12.000000000000
         C           -3.929829640681    -0.330527561562    -0.136452663776    12.000000000000
         H            0.873430559319     0.844007138438    -1.181051463776     1.007825032230
         H           -0.014387440681    -1.208218861562     0.483120536224     1.007825032230
         H            1.447738559319     1.319598138438     1.783167536224     1.007825032230
         H            2.203516559319     2.174218138438     0.421375536224     1.007825032230
         H            0.460468559319     2.369226138438     0.741324536224     1.007825032230
         H           -2.322643440681    -1.765033161562    -0.109490763776     1.007825032230
         H           -2.540462440681    -0.929102861562     1.418082536224     1.007825032230
         H           -4.181195440681     0.642074138438     0.321627536224     1.007825032230
         H           -3.955443440681    -0.198181861562    -1.214470463776     1.007825032230
         H           -4.693326440681    -1.047182861562     0.155309536224     1.007825032230

  Basis Set: AUG-CC-PVTZ
    Blend: AUG-CC-PVTZ
  Basis Set: (AUG-CC-PVTZ AUX)
    Blend: AUG-CC-PVTZ-JKFIT
	 Reference Energy          =    -512.3358301233234897 [Eh]
	 Singles Energy            =      -0.0000000000000000 [Eh]
	 Same-Spin Energy          =      -0.5201627831100467 [Eh]
	 Opposite-Spin Energy      =      -1.6213543864067557 [Eh]
	 Correlation Energy        =      -2.1415171695168023 [Eh]
	 Total Energy              =    -514.4773472928402498 [Eh]

	 ================> DF-SCS-MP2 Energies <==================
	-----------------------------------------------------------
	 SCS Same-Spin Scale       =       0.3333333333333333 [-]
	 SCS Opposite-Spin Scale   =       1.2000000000000000 [-]
	 SCS Same-Spin Energy      =      -0.1733875943700156 [Eh]
	 SCS Opposite-Spin Energy  =      -1.9456252636881066 [Eh]
	 SCS Correlation Energy    =      -2.1190128580581220 [Eh]
	 SCS Total Energy          =    -514.4548429813816028 [Eh]
	-----------------------------------------------------------

  Dipole Moment: [D]
     X:    -8.6842      Y:     0.6155      Z:     1.5939     Total:     8.8507

*** Psi4 exiting successfully. Buy a developer a beer!
