                               Psi4 1.3.2 release

  ==> Input File <==

--------------------------------------------------------------------------
#psi4
#
memory 32 gb

molecule  {
-1 1
  O       -1.6024110     1.2883820    -0.5634480
  O        2.0191420    -1.7287390     0.1939930
  O        3.3803020    -0.0587520    -0.5397320
  N       -0.1192173    -0.2576946     0.2376655
  C        1.0875530     0.4615680    -0.1724770
  C        1.3782960     1.6508690     0.7367710
  C       -2.4639779    -0.8118166     0.3168272
  C       -1.3649450     0.1785500    -0.0525630
  C        2.2731730    -0.5407160    -0.1753640
  C       -3.8468580    -0.3344400    -0.1480570
  H        0.9550610     0.8289670    -1.1997950
  H        0.0672430    -1.2232590     0.4643770
  H        1.5293690     1.3045580     1.7644240
  H        2.2851470     2.1591780     0.4026320
  H        0.5420990     2.3541860     0.7225810
  H       -2.2325720    -1.7800520    -0.1237300
  H       -2.4588320    -0.9441430     1.3993390
  H       -4.0995650     0.6270340     0.3028840
  H       -3.8738130    -0.2132220    -1.2332140
  H       -4.6116960    -1.0622230     0.1365660
units angstrom
no_reorient  #important for SAPT in psi4, default
symmetry c1  #important for SAPT in psi4, default
}

set PROPERTIES_ORIGIN ["COM"]
properties('MP2/aug-cc-pvtz', properties = ['dipole'])
--------------------------------------------------------------------------

    Molecular point group: c1
  Charge       = -1
  Multiplicity = 1
  Basis Set: AUG-CC-PVTZ
    Blend: AUG-CC-PVTZ
  Basis Set: (AUG-CC-PVTZ AUX)
    Blend: AUG-CC-PVTZ-JKFIT

    Orbital Energies [Eh]
    ---------------------

    Doubly Occupied:

       1A    -20.392633     2A    -20.322151     3A    -20.313744
       4A    -15.437492     5A    -11.223788     6A    -11.161870
       7A    -11.134179     8A    -11.124379     9A    -11.115406
      10A    -11.075959    11A     -1.241592    12A     -1.190492
      13A     -1.096558    14A     -1.081033    15A     -0.947222
      16A     -0.878238    17A     -0.783928    18A     -0.720577
      19A     -0.642532    20A     -0.588111    21A     -0.540614
      22A     -0.533567    23A     -0.511472    24A     -0.482898
      25A     -0.465159    26A     -0.438304    27A     -0.423690
      28A     -0.419693    29A     -0.413122    30A     -0.404149
      31A     -0.397079    32A     -0.376493    33A     -0.370078
      34A     -0.341502    35A     -0.299876    36A     -0.258129
      37A     -0.236879    38A     -0.222962    39A     -0.215637

  @DF-RHF Final Energy:  -512.33597550278967

   => Energetics <=

    Nuclear Repulsion Energy =            533.2476108940498989
    One-Electron Energy =               -1771.5207917026084488
    Two-Electron Energy =                 725.9372053057689982
    Total Energy =                       -512.3359755027896654
  Basis Set: (AUG-CC-PVTZ AUX)
    Blend: AUG-CC-PVTZ-RI
    Molecular point group: c1

    Geometry (in Angstrom), charge = -1, multiplicity = 1:

       Center              X                  Y                   Z               Mass
    ------------   -----------------  -----------------  -----------------  -----------------
         O           -1.684540300359     1.304183613072    -0.546122732509    15.994914619570
         O            1.937012699641    -1.712937386928     0.211318267491    15.994914619570
         O            3.298172699641    -0.042950386928    -0.522406732509    15.994914619570
         N           -0.201346600359    -0.241892986928     0.254990767491    14.003074004430
         C            1.005423699641     0.477369613072    -0.155151732509    12.000000000000
         C            1.296166699641     1.666670613072     0.754096267491    12.000000000000
         C           -2.546107200359    -0.796014986928     0.334152467491    12.000000000000
         C           -1.447074300359     0.194351613072    -0.035237732509    12.000000000000
         C            2.191043699641    -0.524914386928    -0.158038732509    12.000000000000
         C           -3.928987300359    -0.318638386928    -0.130731732509    12.000000000000
         H            0.872931699641     0.844768613072    -1.182469732509     1.007825032230
         H           -0.014886300359    -1.207457386928     0.481702267491     1.007825032230
         H            1.447239699641     1.320359613072     1.781749267491     1.007825032230
         H            2.203017699641     2.174979613072     0.419957267491     1.007825032230
         H            0.459969699641     2.369987613072     0.739906267491     1.007825032230
         H           -2.314701300359    -1.764250386928    -0.106404732509     1.007825032230
         H           -2.540961300359    -0.928341386928     1.416664267491     1.007825032230
         H           -4.181694300359     0.642835613072     0.320209267491     1.007825032230
         H           -3.955942300359    -0.197420386928    -1.215888732509     1.007825032230
         H           -4.693825300359    -1.046421386928     0.153891267491     1.007825032230

  Basis Set: AUG-CC-PVTZ
    Blend: AUG-CC-PVTZ
  Basis Set: (AUG-CC-PVTZ AUX)
    Blend: AUG-CC-PVTZ-JKFIT
	 Reference Energy          =    -512.3359755027896654 [Eh]
	 Singles Energy            =      -0.0000000000000000 [Eh]
	 Same-Spin Energy          =      -0.5199771475671042 [Eh]
	 Opposite-Spin Energy      =      -1.6212017983956235 [Eh]
	 Correlation Energy        =      -2.1411789459627277 [Eh]
	 Total Energy              =    -514.4771544487523443 [Eh]

	 ================> DF-SCS-MP2 Energies <==================
	-----------------------------------------------------------
	 SCS Same-Spin Scale       =       0.3333333333333333 [-]
	 SCS Opposite-Spin Scale   =       1.2000000000000000 [-]
	 SCS Same-Spin Energy      =      -0.1733257158557014 [Eh]
	 SCS Opposite-Spin Energy  =      -1.9454421580747481 [Eh]
	 SCS Correlation Energy    =      -2.1187678739304494 [Eh]
	 SCS Total Energy          =    -514.4547433767201028 [Eh]
	-----------------------------------------------------------

  Dipole Moment: [D]
     X:    -8.6620      Y:     0.6404      Z:     1.5992     Total:     8.8316

*** Psi4 exiting successfully. Buy a developer a beer!
