                               Psi4 1.3.2 release

  ==> Input File <==

--------------------------------------------------------------------------
#psi4
#
memory 32 gb

molecule  {
-1 1
  O       -1.6024110     1.2883820    -0.5634480
  O        2.0191420    -1.7287390     0.1939930
  O        3.3803020    -0.0587520    -0.5397320
  N       -0.1147610    -0.2476350     0.2334190
  C        1.0875530     0.4615680    -0.1724770
  C        1.3782960     1.6508690     0.7367710
  C       -2.4731170    -0.8032840     0.3122730
  C       -1.4015029     0.2100010    -0.0750838
  C        2.2731730    -0.5407160    -0.1753640
  C       -3.8241742    -0.2908210    -0.1682568
  H        0.9550610     0.8289670    -1.1997950
  H        0.0672430    -1.2232590     0.4643770
  H        1.5293690     1.3045580     1.7644240
  H        2.2851470     2.1591780     0.4026320
  H        0.5420990     2.3541860     0.7225810
  H       -2.2325720    -1.7800520    -0.1237300
  H       -2.4588320    -0.9441430     1.3993390
  H       -4.0995650     0.6270340     0.3028840
  H       -3.8738130    -0.2132220    -1.2332140
  H       -4.6116960    -1.0622230     0.1365660
units angstrom
no_reorient  #important for SAPT in psi4, default
symmetry c1  #important for SAPT in psi4, default
}

set PROPERTIES_ORIGIN ["COM"]
properties('MP2/aug-cc-pvtz', properties = ['dipole'])
--------------------------------------------------------------------------

    Molecular point group: c1
  Charge       = -1
  Multiplicity = 1
  Basis Set: AUG-CC-PVTZ
    Blend: AUG-CC-PVTZ
  Basis Set: (AUG-CC-PVTZ AUX)
    Blend: AUG-CC-PVTZ-JKFIT

    Orbital Energies [Eh]
    ---------------------

    Doubly Occupied:

       1A    -20.404063     2A    -20.318591     3A    -20.310517
       4A    -15.427359     5A    -11.224590     6A    -11.158192
       7A    -11.135982     8A    -11.126428     9A    -11.109432
      10A    -11.072794    11A     -1.272591    12A     -1.187179
      13A     -1.089809    14A     -1.069824    15A     -0.951817
      16A     -0.870798    17A     -0.782594    18A     -0.714137
      19A     -0.633666    20A     -0.588698    21A     -0.540880
      22A     -0.537150    23A     -0.515585    24A     -0.488608
      25A     -0.463402    26A     -0.440292    27A     -0.425303
      28A     -0.419709    29A     -0.413330    30A     -0.401231
      31A     -0.400286    32A     -0.381285    33A     -0.367096
      34A     -0.341515    35A     -0.303899    36A     -0.251334
      37A     -0.233100    38A     -0.219104    39A     -0.211789

  @DF-RHF Final Energy:  -512.33021983881770

   => Energetics <=

    Nuclear Repulsion Energy =            533.6776748107931780
    One-Electron Energy =               -1772.4078720077288835
    Two-Electron Energy =                 726.3999773581180079
    Total Energy =                       -512.3302198388176976
  Basis Set: (AUG-CC-PVTZ AUX)
    Blend: AUG-CC-PVTZ-RI
    Molecular point group: c1

    Geometry (in Angstrom), charge = -1, multiplicity = 1:

       Center              X                  Y                   Z               Mass
    ------------   -----------------  -----------------  -----------------  -----------------
         O           -1.683056560961     1.296242141929    -0.541772217071    15.994914619570
         O            1.938496439039    -1.720878858071     0.215668782929    15.994914619570
         O            3.299656439039    -0.050891858071    -0.518056217071    15.994914619570
         N           -0.195406560961    -0.239774858071     0.255094782929    14.003074004430
         C            1.006907439039     0.469428141929    -0.150801217071    12.000000000000
         C            1.297650439039     1.658729141929     0.758446782929    12.000000000000
         C           -2.553762560961    -0.795423858071     0.333948782929    12.000000000000
         C           -1.482148460961     0.217861141929    -0.053408017071    12.000000000000
         C            2.192527439039    -0.532855858071    -0.153688217071    12.000000000000
         C           -3.904819760961    -0.282960858071    -0.146581017071    12.000000000000
         H            0.874415439039     0.836827141929    -1.178119217071     1.007825032230
         H           -0.013402560961    -1.215398858071     0.486052782929     1.007825032230
         H            1.448723439039     1.312418141929     1.786099782929     1.007825032230
         H            2.204501439039     2.167038141929     0.424307782929     1.007825032230
         H            0.461453439039     2.362046141929     0.744256782929     1.007825032230
         H           -2.313217560961    -1.772191858071    -0.102054217071     1.007825032230
         H           -2.539477560961    -0.936282858071     1.421014782929     1.007825032230
         H           -4.180210560961     0.634894141929     0.324559782929     1.007825032230
         H           -3.954458560961    -0.205361858071    -1.211538217071     1.007825032230
         H           -4.692341560961    -1.054362858071     0.158241782929     1.007825032230

  Basis Set: AUG-CC-PVTZ
    Blend: AUG-CC-PVTZ
  Basis Set: (AUG-CC-PVTZ AUX)
    Blend: AUG-CC-PVTZ-JKFIT
	 Reference Energy          =    -512.3302198388176976 [Eh]
	 Singles Energy            =      -0.0000000000000000 [Eh]
	 Same-Spin Energy          =      -0.5196070846930849 [Eh]
	 Opposite-Spin Energy      =      -1.6203250711838202 [Eh]
	 Correlation Energy        =      -2.1399321558769051 [Eh]
	 Total Energy              =    -514.4701519946945609 [Eh]

	 ================> DF-SCS-MP2 Energies <==================
	-----------------------------------------------------------
	 SCS Same-Spin Scale       =       0.3333333333333333 [-]
	 SCS Opposite-Spin Scale   =       1.2000000000000000 [-]
	 SCS Same-Spin Energy      =      -0.1732023615643616 [Eh]
	 SCS Opposite-Spin Energy  =      -1.9443900854205842 [Eh]
	 SCS Correlation Energy    =      -2.1175924469849461 [Eh]
	 SCS Total Energy          =    -514.4478122858026836 [Eh]
	-----------------------------------------------------------

  Dipole Moment: [D]
     X:    -9.1016      Y:     0.8937      Z:     1.4277     Total:     9.2562

*** Psi4 exiting successfully. Buy a developer a beer!
