                               Psi4 1.3.2 release

  ==> Input File <==

--------------------------------------------------------------------------
#psi4
#
memory 32 gb

molecule  {
-1 1
  O       -1.6024110     1.2883820    -0.5634480
  O        2.0355732    -1.7004735     0.1847814
  O        3.3803020    -0.0587520    -0.5397320
  N       -0.1147610    -0.2476350     0.2334190
  C        1.0875530     0.4615680    -0.1724770
  C        1.3782960     1.6508690     0.7367710
  C       -2.4821527    -0.7937027     0.3103696
  C       -1.3649450     0.1785500    -0.0525630
  C        2.2731730    -0.5407160    -0.1753640
  C       -3.8468580    -0.3344400    -0.1480570
  H        0.9550610     0.8289670    -1.1997950
  H        0.0672430    -1.2232590     0.4643770
  H        1.5293690     1.3045580     1.7644240
  H        2.2851470     2.1591780     0.4026320
  H        0.5420990     2.3541860     0.7225810
  H       -2.2325720    -1.7800520    -0.1237300
  H       -2.4588320    -0.9441430     1.3993390
  H       -4.0995650     0.6270340     0.3028840
  H       -3.8738130    -0.2132220    -1.2332140
  H       -4.6116960    -1.0622230     0.1365660
units angstrom
no_reorient  #important for SAPT in psi4, default
symmetry c1  #important for SAPT in psi4, default
}

set PROPERTIES_ORIGIN ["COM"]
properties('MP2/aug-cc-pvtz', properties = ['dipole'])
--------------------------------------------------------------------------

    Molecular point group: c1
  Charge       = -1
  Multiplicity = 1
  Basis Set: AUG-CC-PVTZ
    Blend: AUG-CC-PVTZ
  Basis Set: (AUG-CC-PVTZ AUX)
    Blend: AUG-CC-PVTZ-JKFIT

    Orbital Energies [Eh]
    ---------------------

    Doubly Occupied:

       1A    -20.391559     2A    -20.322207     3A    -20.306394
       4A    -15.438474     5A    -11.223706     6A    -11.155317
       7A    -11.136276     8A    -11.124197     9A    -11.112454
      10A    -11.074321    11A     -1.241726    12A     -1.201468
      13A     -1.096311    14A     -1.084655    15A     -0.951070
      16A     -0.877667    17A     -0.783675    18A     -0.719831
      19A     -0.639327    20A     -0.587893    21A     -0.541539
      22A     -0.532540    23A     -0.511217    24A     -0.484118
      25A     -0.466805    26A     -0.439417    27A     -0.427825
      28A     -0.420239    29A     -0.413965    30A     -0.405305
      31A     -0.396223    32A     -0.375330    33A     -0.371284
      34A     -0.343774    35A     -0.299256    36A     -0.256920
      37A     -0.235927    38A     -0.220596    39A     -0.214426

  @DF-RHF Final Energy:  -512.33762709585869

   => Energetics <=

    Nuclear Repulsion Energy =            534.3568263110933003
    One-Electron Energy =               -1773.7384444016033740
    Two-Electron Energy =                 727.0439909946513808
    Total Energy =                       -512.3376270958586929
  Basis Set: (AUG-CC-PVTZ AUX)
    Blend: AUG-CC-PVTZ-RI
    Molecular point group: c1

    Geometry (in Angstrom), charge = -1, multiplicity = 1:

       Center              X                  Y                   Z               Mass
    ------------   -----------------  -----------------  -----------------  -----------------
         O           -1.685283847685     1.298558857759    -0.544149373946    15.994914619570
         O            1.952700352315    -1.690296642241     0.204080026054    15.994914619570
         O            3.297429152315    -0.048575142241    -0.520433373946    15.994914619570
         N           -0.197633847685    -0.237458142241     0.252717626054    14.003074004430
         C            1.004680152315     0.471744857759    -0.153178373946    12.000000000000
         C            1.295423152315     1.661045857759     0.756069626054    12.000000000000
         C           -2.565025547685    -0.783525842241     0.329668226054    12.000000000000
         C           -1.447817847685     0.188726857759    -0.033264373946    12.000000000000
         C            2.190300152315    -0.530539142241    -0.156065373946    12.000000000000
         C           -3.929730847685    -0.324263142241    -0.128758373946    12.000000000000
         H            0.872188152315     0.839143857759    -1.180496373946     1.007825032230
         H           -0.015629847685    -1.213082142241     0.483675626054     1.007825032230
         H            1.446496152315     1.314734857759     1.783722626054     1.007825032230
         H            2.202274152315     2.169354857759     0.421930626054     1.007825032230
         H            0.459226152315     2.364362857759     0.741879626054     1.007825032230
         H           -2.315444847685    -1.769875142241    -0.104431373946     1.007825032230
         H           -2.541704847685    -0.933966142241     1.418637626054     1.007825032230
         H           -4.182437847685     0.637210857759     0.322182626054     1.007825032230
         H           -3.956685847685    -0.203045142241    -1.213915373946     1.007825032230
         H           -4.694568847685    -1.052046142241     0.155864626054     1.007825032230

  Basis Set: AUG-CC-PVTZ
    Blend: AUG-CC-PVTZ
  Basis Set: (AUG-CC-PVTZ AUX)
    Blend: AUG-CC-PVTZ-JKFIT
	 Reference Energy          =    -512.3376270958586929 [Eh]
	 Singles Energy            =      -0.0000000000000000 [Eh]
	 Same-Spin Energy          =      -0.5195792259446577 [Eh]
	 Opposite-Spin Energy      =      -1.6196492554003956 [Eh]
	 Correlation Energy        =      -2.1392284813450533 [Eh]
	 Total Energy              =    -514.4768555772037644 [Eh]

	 ================> DF-SCS-MP2 Energies <==================
	-----------------------------------------------------------
	 SCS Same-Spin Scale       =       0.3333333333333333 [-]
	 SCS Opposite-Spin Scale   =       1.2000000000000000 [-]
	 SCS Same-Spin Energy      =      -0.1731930753148859 [Eh]
	 SCS Opposite-Spin Energy  =      -1.9435791064804746 [Eh]
	 SCS Correlation Energy    =      -2.1167721817953606 [Eh]
	 SCS Total Energy          =    -514.4543992776540335 [Eh]
	-----------------------------------------------------------

  Dipole Moment: [D]
     X:    -8.8134      Y:     0.4375      Z:     1.6637     Total:     8.9797

*** Psi4 exiting successfully. Buy a developer a beer!
