                               Psi4 1.4a3.dev225

  ==> Input File <==

--------------------------------------------------------------------------
#psi4
#
memory 32 gb

molecule  {
-1 1
  O       -1.5868420     1.2523650    -0.8113290
  O        2.0299390    -1.6922460     0.2543140
  O        3.4074630     0.0142020    -0.3584910
  N       -0.1383540    -0.2870410     0.0455440
  C        1.0782140     0.4735880    -0.1782270
  C        1.2255633     1.5957218     0.8166981
  C       -2.4816390    -0.8906360    -0.1487800
  C       -1.3641120     0.1217370    -0.3343690
  C        2.2855270    -0.4976230    -0.0923730
  C       -3.7126180    -0.2515540     0.4884160
  H        1.0494870     0.8996880    -1.1894520
  H        0.0515970    -1.2513350     0.3145600
  H        1.2660770     1.2028380     1.8451460
  H        2.1536960     2.1558630     0.6353850
  H        0.3800930     2.2967220     0.7589720
  H       -2.7387560    -1.2794370    -1.1416750
  H       -2.1327770    -1.7398080     0.4477120
  H       -3.4838230     0.1112750     1.4946450
  H       -4.0489630     0.5957980    -0.1116680
  H       -4.5299760    -0.9736440     0.5641870
units angstrom
no_reorient  #important for SAPT in psi4, default
symmetry c1  #important for SAPT in psi4, default
}

set PROPERTIES_ORIGIN ["COM"]
properties('MP2/aug-cc-pvtz', properties = ['dipole'])
--------------------------------------------------------------------------

    Molecular point group: c1
  Charge       = -1
  Multiplicity = 1
  Basis Set: AUG-CC-PVTZ
    Blend: AUG-CC-PVTZ
  Basis Set: (AUG-CC-PVTZ AUX)
    Blend: AUG-CC-PVTZ-JKFIT

    Orbital Energies [Eh]
    ---------------------

    Doubly Occupied:

       1A    -20.387363     2A    -20.323474     3A    -20.314978
       4A    -15.442267     5A    -11.222498     6A    -11.163105
       7A    -11.134552     8A    -11.127317     9A    -11.114666
      10A    -11.078157    11A     -1.238612    12A     -1.191671
      13A     -1.098465    14A     -1.082931    15A     -0.950682
      16A     -0.882142    17A     -0.783793    18A     -0.723934
      19A     -0.643258    20A     -0.589347    21A     -0.547132
      22A     -0.523298    23A     -0.514567    24A     -0.483394
      25A     -0.464939    26A     -0.442661    27A     -0.435880
      28A     -0.419275    29A     -0.411291    30A     -0.405242
      31A     -0.394294    32A     -0.375123    33A     -0.367766
      34A     -0.341908    35A     -0.296662    36A     -0.259376
      37A     -0.238233    38A     -0.223739    39A     -0.216497

  @DF-RHF Final Energy:  -512.33593257832990

   => Energetics <=

    Nuclear Repulsion Energy =            534.7063094740875613
    One-Electron Energy =               -1774.3754986780113541
    Two-Electron Energy =                 727.3332566255940037
    Total Energy =                       -512.3359325783299028
  Basis Set: (AUG-CC-PVTZ AUX)
    Blend: AUG-CC-PVTZ-RI
    Molecular point group: c1

    Geometry (in Angstrom), charge = -1, multiplicity = 1:

       Center              X                  Y                   Z               Mass
    ------------   -----------------  -----------------  -----------------  -----------------
         O           -1.669413243695     1.267494165744    -0.785346604194    15.994914619570
         O            1.947367756305    -1.677116834256     0.280296395806    15.994914619570
         O            3.324891756305     0.029331165744    -0.332508604194    15.994914619570
         N           -0.220925243695    -0.271911834256     0.071526395806    14.003074004430
         C            0.995642756305     0.488717165744    -0.152244604194    12.000000000000
         C            1.142992056305     1.610850965744     0.842680495806    12.000000000000
         C           -2.564210243695    -0.875506834256    -0.122797604194    12.000000000000
         C           -1.446683243695     0.136866165744    -0.308386604194    12.000000000000
         C            2.202955756305    -0.482493834256    -0.066390604194    12.000000000000
         C           -3.795189243695    -0.236424834256     0.514398395806    12.000000000000
         H            0.966915756305     0.914817165744    -1.163469604194     1.007825032230
         H           -0.030974243695    -1.236205834256     0.340542395806     1.007825032230
         H            1.183505756305     1.217967165744     1.871128395806     1.007825032230
         H            2.071124756305     2.170992165744     0.661367395806     1.007825032230
         H            0.297521756305     2.311851165744     0.784954395806     1.007825032230
         H           -2.821327243695    -1.264307834256    -1.115692604194     1.007825032230
         H           -2.215348243695    -1.724678834256     0.473694395806     1.007825032230
         H           -3.566394243695     0.126404165744     1.520627395806     1.007825032230
         H           -4.131534243695     0.610927165744    -0.085685604194     1.007825032230
         H           -4.612547243695    -0.958514834256     0.590169395806     1.007825032230

  Basis Set: AUG-CC-PVTZ
    Blend: AUG-CC-PVTZ
  Basis Set: (AUG-CC-PVTZ AUX)
    Blend: AUG-CC-PVTZ-JKFIT
	 Reference Energy          =    -512.3359325783299028 [Eh]
	 Singles Energy            =      -0.0000000000000000 [Eh]
	 Same-Spin Energy          =      -0.5205664303541453 [Eh]
	 Opposite-Spin Energy      =      -1.6219290356445979 [Eh]
	 Correlation Energy        =      -2.1424954659987430 [Eh]
	 Total Energy              =    -514.4784280443286661 [Eh]

	 ================> DF-SCS-MP2 Energies <==================
	-----------------------------------------------------------
	 SCS Same-Spin Scale       =       0.3333333333333333 [-]
	 SCS Opposite-Spin Scale   =       1.2000000000000000 [-]
	 SCS Same-Spin Energy      =      -0.1735221434513818 [Eh]
	 SCS Opposite-Spin Energy  =      -1.9463148427735173 [Eh]
	 SCS Correlation Energy    =      -2.1198369862248989 [Eh]
	 SCS Total Energy          =    -514.4557695645547710 [Eh]
	-----------------------------------------------------------

  Dipole Moment: [D]
     X:    -8.6413      Y:     0.3771      Z:     1.2216     Total:     8.7354

*** Psi4 exiting successfully. Buy a developer a beer!
