                               Psi4 1.3.2 release

  ==> Input File <==

--------------------------------------------------------------------------
#psi4
#
memory 32 gb

molecule  {
-1 1
  O       -1.6024110     1.2883820    -0.5634480
  O        2.0191420    -1.7287390     0.1939930
  O        3.3803020    -0.0587520    -0.5397320
  N       -0.1103999    -0.2375430     0.2291508
  C        1.0875530     0.4615680    -0.1724770
  C        1.3782960     1.6508690     0.7367710
  C       -2.4821717    -0.7946766     0.3076910
  C       -1.3649450     0.1785500    -0.0525630
  C        2.2731730    -0.5407160    -0.1753640
  C       -3.8468580    -0.3344400    -0.1480570
  H        0.9550610     0.8289670    -1.1997950
  H        0.0672430    -1.2232590     0.4643770
  H        1.5293690     1.3045580     1.7644240
  H        2.2851470     2.1591780     0.4026320
  H        0.5420990     2.3541860     0.7225810
  H       -2.2325720    -1.7800520    -0.1237300
  H       -2.4588320    -0.9441430     1.3993390
  H       -4.0995650     0.6270340     0.3028840
  H       -3.8738130    -0.2132220    -1.2332140
  H       -4.6116960    -1.0622230     0.1365660
units angstrom
no_reorient  #important for SAPT in psi4, default
symmetry c1  #important for SAPT in psi4, default
}

set PROPERTIES_ORIGIN ["COM"]
properties('MP2/aug-cc-pvtz', properties = ['dipole'])
--------------------------------------------------------------------------

    Molecular point group: c1
  Charge       = -1
  Multiplicity = 1
  Basis Set: AUG-CC-PVTZ
    Blend: AUG-CC-PVTZ
  Basis Set: (AUG-CC-PVTZ AUX)
    Blend: AUG-CC-PVTZ-JKFIT

    Orbital Energies [Eh]
    ---------------------

    Doubly Occupied:

       1A    -20.390896     2A    -20.322396     3A    -20.313733
       4A    -15.438327     5A    -11.223385     6A    -11.161968
       7A    -11.136639     8A    -11.124309     9A    -11.113991
      10A    -11.075197    11A     -1.241643    12A     -1.190612
      13A     -1.096682    14A     -1.081354    15A     -0.951471
      16A     -0.878620    17A     -0.784035    18A     -0.721357
      19A     -0.636513    20A     -0.588931    21A     -0.543647
      22A     -0.532590    23A     -0.511444    24A     -0.482905
      25A     -0.466099    26A     -0.438770    27A     -0.428210
      28A     -0.419068    29A     -0.413458    30A     -0.403462
      31A     -0.396266    32A     -0.374969    33A     -0.369594
      34A     -0.341392    35A     -0.299254    36A     -0.256097
      37A     -0.236890    38A     -0.223068    39A     -0.215502

  @DF-RHF Final Energy:  -512.33532581071256

   => Energetics <=

    Nuclear Repulsion Energy =            533.5939053045161700
    One-Electron Energy =               -1772.2089736941013598
    Two-Electron Energy =                 726.2797425788727423
    Total Energy =                       -512.3353258107125612
  Basis Set: (AUG-CC-PVTZ AUX)
    Blend: AUG-CC-PVTZ-RI
    Molecular point group: c1

    Geometry (in Angstrom), charge = -1, multiplicity = 1:

       Center              X                  Y                   Z               Mass
    ------------   -----------------  -----------------  -----------------  -----------------
         O           -1.683881887893     1.300797219925    -0.544534111558    15.994914619570
         O            1.937671112107    -1.716323780075     0.212906888442    15.994914619570
         O            3.298831112107    -0.046336780075    -0.520818111558    15.994914619570
         N           -0.191870787893    -0.225127780075     0.248064688442    14.003074004430
         C            1.006082112107     0.473983219925    -0.153563111558    12.000000000000
         C            1.296825112107     1.663284219925     0.755684888442    12.000000000000
         C           -2.563642587893    -0.782261380075     0.326604888442    12.000000000000
         C           -1.446415887893     0.190965219925    -0.033649111558    12.000000000000
         C            2.191702112107    -0.528300780075    -0.156450111558    12.000000000000
         C           -3.928328887893    -0.322024780075    -0.129143111558    12.000000000000
         H            0.873590112107     0.841382219925    -1.180881111558     1.007825032230
         H           -0.014227887893    -1.210843780075     0.483290888442     1.007825032230
         H            1.447898112107     1.316973219925     1.783337888442     1.007825032230
         H            2.203676112107     2.171593219925     0.421545888442     1.007825032230
         H            0.460628112107     2.366601219925     0.741494888442     1.007825032230
         H           -2.314042887893    -1.767636780075    -0.104816111558     1.007825032230
         H           -2.540302887893    -0.931727780075     1.418252888442     1.007825032230
         H           -4.181035887893     0.639449219925     0.321797888442     1.007825032230
         H           -3.955283887893    -0.200806780075    -1.214300111558     1.007825032230
         H           -4.693166887893    -1.049807780075     0.155479888442     1.007825032230

  Basis Set: AUG-CC-PVTZ
    Blend: AUG-CC-PVTZ
  Basis Set: (AUG-CC-PVTZ AUX)
    Blend: AUG-CC-PVTZ-JKFIT
	 Reference Energy          =    -512.3353258107125612 [Eh]
	 Singles Energy            =      -0.0000000000000000 [Eh]
	 Same-Spin Energy          =      -0.5203693710165211 [Eh]
	 Opposite-Spin Energy      =      -1.6215268053291894 [Eh]
	 Correlation Energy        =      -2.1418961763457105 [Eh]
	 Total Energy              =    -514.4772219870583285 [Eh]

	 ================> DF-SCS-MP2 Energies <==================
	-----------------------------------------------------------
	 SCS Same-Spin Scale       =       0.3333333333333333 [-]
	 SCS Opposite-Spin Scale   =       1.2000000000000000 [-]
	 SCS Same-Spin Energy      =      -0.1734564570055070 [Eh]
	 SCS Opposite-Spin Energy  =      -1.9458321663950271 [Eh]
	 SCS Correlation Energy    =      -2.1192886234005339 [Eh]
	 SCS Total Energy          =    -514.4546144341130685 [Eh]
	-----------------------------------------------------------

  Dipole Moment: [D]
     X:    -8.7061      Y:     0.6104      Z:     1.6013     Total:     8.8732

*** Psi4 exiting successfully. Buy a developer a beer!
