                               Psi4 1.3.2 release

  ==> Input File <==

--------------------------------------------------------------------------
#psi4
#
memory 32 gb

molecule  {
-1 1
  O       -1.6024110     1.2883820    -0.5634480
  O        2.0191420    -1.7287390     0.1939930
  O        3.3803020    -0.0587520    -0.5397320
  N       -0.1147610    -0.2476350     0.2334190
  C        1.0875530     0.4615680    -0.1724770
  C        1.3782960     1.6508690     0.7367710
  C       -2.4731170    -0.8032840     0.3122730
  C       -1.3649450     0.1785500    -0.0525630
  C        2.2731730    -0.5407160    -0.1753640
  C       -3.8454122    -0.3233480    -0.1408828
  H        0.9550610     0.8289670    -1.1997950
  H        0.0672430    -1.2232590     0.4643770
  H        1.5293690     1.3045580     1.7644240
  H        2.2851470     2.1591780     0.4026320
  H        0.5420990     2.3541860     0.7225810
  H       -2.2241493    -1.7799563    -0.1191925
  H       -2.4588320    -0.9441430     1.3993390
  H       -4.0995650     0.6270340     0.3028840
  H       -3.8738130    -0.2132220    -1.2332140
  H       -4.6116960    -1.0622230     0.1365660
units angstrom
no_reorient  #important for SAPT in psi4, default
symmetry c1  #important for SAPT in psi4, default
}

set PROPERTIES_ORIGIN ["COM"]
properties('MP2/aug-cc-pvtz', properties = ['dipole'])
--------------------------------------------------------------------------

    Molecular point group: c1
  Charge       = -1
  Multiplicity = 1
  Basis Set: AUG-CC-PVTZ
    Blend: AUG-CC-PVTZ
  Basis Set: (AUG-CC-PVTZ AUX)
    Blend: AUG-CC-PVTZ-JKFIT

    Orbital Energies [Eh]
    ---------------------

    Doubly Occupied:

       1A    -20.391700     2A    -20.322267     3A    -20.313724
       4A    -15.437831     5A    -11.223369     6A    -11.161901
       7A    -11.135416     8A    -11.124557     9A    -11.114658
      10A    -11.075559    11A     -1.241575    12A     -1.190541
      13A     -1.096576    14A     -1.081146    15A     -0.949303
      16A     -0.878390    17A     -0.784110    18A     -0.720984
      19A     -0.639454    20A     -0.588414    21A     -0.542035
      22A     -0.533094    23A     -0.511763    24A     -0.482179
      25A     -0.465572    26A     -0.438467    27A     -0.426072
      28A     -0.418613    29A     -0.414538    30A     -0.403957
      31A     -0.396556    32A     -0.375905    33A     -0.369795
      34A     -0.341431    35A     -0.299485    36A     -0.257099
      37A     -0.236875    38A     -0.222998    39A     -0.215561

  @DF-RHF Final Energy:  -512.33583719604610

   => Energetics <=

    Nuclear Repulsion Energy =            533.4721326606647835
    One-Electron Energy =               -1771.9690049340506448
    Two-Electron Energy =                 726.1610350773397613
    Total Energy =                       -512.3358371960461000
  Basis Set: (AUG-CC-PVTZ AUX)
    Blend: AUG-CC-PVTZ-RI
    Molecular point group: c1

    Geometry (in Angstrom), charge = -1, multiplicity = 1:

       Center              X                  Y                   Z               Mass
    ------------   -----------------  -----------------  -----------------  -----------------
         O           -1.684391555456     1.301570527445    -0.545959952696    15.994914619570
         O            1.937161444544    -1.715550472555     0.211481047304    15.994914619570
         O            3.298321444544    -0.045563472555    -0.522243952696    15.994914619570
         N           -0.196741555456    -0.234446472555     0.250907047304    14.003074004430
         C            1.005572444544     0.474756527445    -0.154988952696    12.000000000000
         C            1.296315444544     1.664057527445     0.754259047304    12.000000000000
         C           -2.555097555456    -0.790095472555     0.329761047304    12.000000000000
         C           -1.446925555456     0.191738527445    -0.035074952696    12.000000000000
         C            2.191192444544    -0.527527472555    -0.157875952696    12.000000000000
         C           -3.927392755456    -0.310159472555    -0.123394752696    12.000000000000
         H            0.873080444544     0.842155527445    -1.182306952696     1.007825032230
         H           -0.014737555456    -1.210070472555     0.481865047304     1.007825032230
         H            1.447388444544     1.317746527445     1.781912047304     1.007825032230
         H            2.203166444544     2.172366527445     0.420120047304     1.007825032230
         H            0.460118444544     2.367374527445     0.740069047304     1.007825032230
         H           -2.306129855456    -1.766767772555    -0.101704452696     1.007825032230
         H           -2.540812555456    -0.930954472555     1.416827047304     1.007825032230
         H           -4.181545555456     0.640222527445     0.320372047304     1.007825032230
         H           -3.955793555456    -0.200033472555    -1.215725952696     1.007825032230
         H           -4.693676555456    -1.049034472555     0.154054047304     1.007825032230

  Basis Set: AUG-CC-PVTZ
    Blend: AUG-CC-PVTZ
  Basis Set: (AUG-CC-PVTZ AUX)
    Blend: AUG-CC-PVTZ-JKFIT
	 Reference Energy          =    -512.3358371960461000 [Eh]
	 Singles Energy            =      -0.0000000000000000 [Eh]
	 Same-Spin Energy          =      -0.5201633102220695 [Eh]
	 Opposite-Spin Energy      =      -1.6213350220168197 [Eh]
	 Correlation Energy        =      -2.1414983322388892 [Eh]
	 Total Energy              =    -514.4773355282850389 [Eh]

	 ================> DF-SCS-MP2 Energies <==================
	-----------------------------------------------------------
	 SCS Same-Spin Scale       =       0.3333333333333333 [-]
	 SCS Opposite-Spin Scale   =       1.2000000000000000 [-]
	 SCS Same-Spin Energy      =      -0.1733877700740232 [Eh]
	 SCS Opposite-Spin Energy  =      -1.9456020264201834 [Eh]
	 SCS Correlation Energy    =      -2.1189897964942066 [Eh]
	 SCS Total Energy          =    -514.4548269925403474 [Eh]
	-----------------------------------------------------------

  Dipole Moment: [D]
     X:    -8.6837      Y:     0.6346      Z:     1.6067     Total:     8.8539

*** Psi4 exiting successfully. Buy a developer a beer!
