                               Psi4 1.4a3.dev225

  ==> Input File <==

--------------------------------------------------------------------------
#psi4
#
memory 32 gb

molecule  {
-1 1
  O       -1.5868420     1.2523650    -0.8113290
  O        2.0299390    -1.6922460     0.2543140
  O        3.4074630     0.0142020    -0.3584910
  N       -0.1383540    -0.2870410     0.0455440
  C        1.0782140     0.4735880    -0.1782270
  C        1.2275190     1.6106150     0.8299030
  C       -2.4816390    -0.8906360    -0.1487800
  C       -1.3641120     0.1217370    -0.3343690
  C        2.2855270    -0.4976230    -0.0923730
  C       -3.7126180    -0.2515540     0.4884160
  H        1.0507955     0.8802794    -1.1433912
  H        0.0515970    -1.2513350     0.3145600
  H        1.2660770     1.2028380     1.8451460
  H        2.1536960     2.1558630     0.6353850
  H        0.3800930     2.2967220     0.7589720
  H       -2.7387560    -1.2794370    -1.1416750
  H       -2.1327770    -1.7398080     0.4477120
  H       -3.4838230     0.1112750     1.4946450
  H       -4.0489630     0.5957980    -0.1116680
  H       -4.5299760    -0.9736440     0.5641870
units angstrom
no_reorient  #important for SAPT in psi4, default
symmetry c1  #important for SAPT in psi4, default
}

set PROPERTIES_ORIGIN ["COM"]
properties('MP2/aug-cc-pvtz', properties = ['dipole'])
--------------------------------------------------------------------------

    Molecular point group: c1
  Charge       = -1
  Multiplicity = 1
  Basis Set: AUG-CC-PVTZ
    Blend: AUG-CC-PVTZ
  Basis Set: (AUG-CC-PVTZ AUX)
    Blend: AUG-CC-PVTZ-JKFIT

    Orbital Energies [Eh]
    ---------------------

    Doubly Occupied:

       1A    -20.387263     2A    -20.323160     3A    -20.315027
       4A    -15.441865     5A    -11.222381     6A    -11.162720
       7A    -11.134453     8A    -11.127261     9A    -11.109517
      10A    -11.076974    11A     -1.238546    12A     -1.191477
      13A     -1.098220    14A     -1.082695    15A     -0.950558
      16A     -0.881063    17A     -0.783910    18A     -0.726764
      19A     -0.645551    20A     -0.589208    21A     -0.546736
      22A     -0.524066    23A     -0.517889    24A     -0.483273
      25A     -0.463951    26A     -0.443264    27A     -0.434868
      28A     -0.418988    29A     -0.411528    30A     -0.405976
      31A     -0.395687    32A     -0.375943    33A     -0.370791
      34A     -0.343500    35A     -0.296845    36A     -0.258818
      37A     -0.238308    38A     -0.223595    39A     -0.216380

  @DF-RHF Final Energy:  -512.33592919316288

   => Energetics <=

    Nuclear Repulsion Energy =            534.6062766435388767
    One-Electron Energy =               -1774.1663676059922636
    Two-Electron Energy =                 727.2241617692905038
    Total Energy =                       -512.3359291931628832
  Basis Set: (AUG-CC-PVTZ AUX)
    Blend: AUG-CC-PVTZ-RI
    Molecular point group: c1

    Geometry (in Angstrom), charge = -1, multiplicity = 1:

       Center              X                  Y                   Z               Mass
    ------------   -----------------  -----------------  -----------------  -----------------
         O           -1.669585297665     1.266389409231    -0.786768729681    15.994914619570
         O            1.947195702335    -1.678221590769     0.278874270319    15.994914619570
         O            3.324719702335     0.028226409231    -0.333930729681    15.994914619570
         N           -0.221097297665    -0.273016590769     0.070104270319    14.003074004430
         C            0.995470702335     0.487612409231    -0.153666729681    12.000000000000
         C            1.144775702335     1.624639409231     0.854463270319    12.000000000000
         C           -2.564382297665    -0.876611590769    -0.124219729681    12.000000000000
         C           -1.446855297665     0.135761409231    -0.309808729681    12.000000000000
         C            2.202783702335    -0.483598590769    -0.067812729681    12.000000000000
         C           -3.795361297665    -0.237529590769     0.512976270319    12.000000000000
         H            0.968052202335     0.894303809231    -1.118830929681     1.007825032230
         H           -0.031146297665    -1.237310590769     0.339120270319     1.007825032230
         H            1.183333702335     1.216862409231     1.869706270319     1.007825032230
         H            2.070952702335     2.169887409231     0.659945270319     1.007825032230
         H            0.297349702335     2.310746409231     0.783532270319     1.007825032230
         H           -2.821499297665    -1.265412590769    -1.117114729681     1.007825032230
         H           -2.215520297665    -1.725783590769     0.472272270319     1.007825032230
         H           -3.566566297665     0.125299409231     1.519205270319     1.007825032230
         H           -4.131706297665     0.609822409231    -0.087107729681     1.007825032230
         H           -4.612719297665    -0.959619590769     0.588747270319     1.007825032230

  Basis Set: AUG-CC-PVTZ
    Blend: AUG-CC-PVTZ
  Basis Set: (AUG-CC-PVTZ AUX)
    Blend: AUG-CC-PVTZ-JKFIT
	 Reference Energy          =    -512.3359291931628832 [Eh]
	 Singles Energy            =      -0.0000000000000000 [Eh]
	 Same-Spin Energy          =      -0.5203278616556130 [Eh]
	 Opposite-Spin Energy      =      -1.6214278195139245 [Eh]
	 Correlation Energy        =      -2.1417556811695375 [Eh]
	 Total Energy              =    -514.4776848743324535 [Eh]

	 ================> DF-SCS-MP2 Energies <==================
	-----------------------------------------------------------
	 SCS Same-Spin Scale       =       0.3333333333333333 [-]
	 SCS Opposite-Spin Scale   =       1.2000000000000000 [-]
	 SCS Same-Spin Energy      =      -0.1734426205518710 [Eh]
	 SCS Opposite-Spin Energy  =      -1.9457133834167093 [Eh]
	 SCS Correlation Energy    =      -2.1191560039685804 [Eh]
	 SCS Total Energy          =    -514.4550851971314387 [Eh]
	-----------------------------------------------------------

  Dipole Moment: [D]
     X:    -8.6386      Y:     0.3841      Z:     1.2081     Total:     8.7311

*** Psi4 exiting successfully. Buy a developer a beer!
