                               Psi4 1.3.2 release

  ==> Input File <==

--------------------------------------------------------------------------
#psi4
#
memory 32 gb

molecule  {
-1 1
  O       -1.6024110     1.2883820    -0.5634480
  O        2.0191420    -1.7287390     0.1939930
  O        3.3803020    -0.0587520    -0.5397320
  N       -0.1147610    -0.2476350     0.2334190
  C        1.0875530     0.4615680    -0.1724770
  C        1.3782960     1.6508690     0.7367710
  C       -2.4731170    -0.8032840     0.3122730
  C       -1.2724372     0.1470143    -0.0314017
  C        2.2731730    -0.5407160    -0.1753640
  C       -3.8468580    -0.3344400    -0.1480570
  H        0.9550610     0.8289670    -1.1997950
  H        0.0672430    -1.2232590     0.4643770
  H        1.5293690     1.3045580     1.7644240
  H        2.2851470     2.1591780     0.4026320
  H        0.5420990     2.3541860     0.7225810
  H       -2.2325720    -1.7800520    -0.1237300
  H       -2.4588320    -0.9441430     1.3993390
  H       -4.0995650     0.6270340     0.3028840
  H       -3.8738130    -0.2132220    -1.2332140
  H       -4.6116960    -1.0622230     0.1365660
units angstrom
no_reorient  #important for SAPT in psi4, default
symmetry c1  #important for SAPT in psi4, default
}

set PROPERTIES_ORIGIN ["COM"]
properties('MP2/aug-cc-pvtz', properties = ['dipole'])
--------------------------------------------------------------------------

    Molecular point group: c1
  Charge       = -1
  Multiplicity = 1
  Basis Set: AUG-CC-PVTZ
    Blend: AUG-CC-PVTZ
  Basis Set: (AUG-CC-PVTZ AUX)
    Blend: AUG-CC-PVTZ-JKFIT

    Orbital Energies [Eh]
    ---------------------

    Doubly Occupied:

       1A    -20.371691     2A    -20.329712     3A    -20.319991
       4A    -15.454544     5A    -11.215727     6A    -11.169030
       7A    -11.133098     8A    -11.124118     9A    -11.119745
      10A    -11.081646    11A     -1.221478    12A     -1.194596
      13A     -1.113559    14A     -1.093707    15A     -0.939071
      16A     -0.892813    17A     -0.780876    18A     -0.733008
      19A     -0.658658    20A     -0.591745    21A     -0.537483
      22A     -0.532687    23A     -0.513745    24A     -0.474371
      25A     -0.468686    26A     -0.443960    27A     -0.426593
      28A     -0.419243    29A     -0.410598    30A     -0.402732
      31A     -0.394209    32A     -0.374389    33A     -0.371449
      34A     -0.340491    35A     -0.280937    36A     -0.264468
      37A     -0.244263    38A     -0.230036    39A     -0.222721

  @DF-RHF Final Energy:  -512.32127761040783

   => Energetics <=

    Nuclear Repulsion Energy =            534.0879915891441669
    One-Electron Energy =               -1773.0347851227604679
    Two-Electron Energy =                 726.6255159232084679
    Total Energy =                       -512.3212776104078330
  Basis Set: (AUG-CC-PVTZ AUX)
    Blend: AUG-CC-PVTZ-RI
    Molecular point group: c1

    Geometry (in Angstrom), charge = -1, multiplicity = 1:

       Center              X                  Y                   Z               Mass
    ------------   -----------------  -----------------  -----------------  -----------------
         O           -1.691917653764     1.305121876179    -0.547093267403    15.994914619570
         O            1.929635346236    -1.711999123821     0.210347732597    15.994914619570
         O            3.290795346236    -0.042012123821    -0.523377267403    15.994914619570
         N           -0.204267653764    -0.230895123821     0.249773732597    14.003074004430
         C            0.998046346236     0.478307876179    -0.156122267403    12.000000000000
         C            1.288789346236     1.667608876179     0.753125732597    12.000000000000
         C           -2.562623653764    -0.786544123821     0.328627732597    12.000000000000
         C           -1.361943853764     0.163754176179    -0.015046967403    12.000000000000
         C            2.183666346236    -0.523976123821    -0.159009267403    12.000000000000
         C           -3.936364653764    -0.317700123821    -0.131702267403    12.000000000000
         H            0.865554346236     0.845706876179    -1.183440267403     1.007825032230
         H           -0.022263653764    -1.206519123821     0.480731732597     1.007825032230
         H            1.439862346236     1.321297876179     1.780778732597     1.007825032230
         H            2.195640346236     2.175917876179     0.418986732597     1.007825032230
         H            0.452592346236     2.370925876179     0.738935732597     1.007825032230
         H           -2.322078653764    -1.763312123821    -0.107375267403     1.007825032230
         H           -2.548338653764    -0.927403123821     1.415693732597     1.007825032230
         H           -4.189071653764     0.643773876179     0.319238732597     1.007825032230
         H           -3.963319653764    -0.196482123821    -1.216859267403     1.007825032230
         H           -4.701202653764    -1.045483123821     0.152920732597     1.007825032230

  Basis Set: AUG-CC-PVTZ
    Blend: AUG-CC-PVTZ
  Basis Set: (AUG-CC-PVTZ AUX)
    Blend: AUG-CC-PVTZ-JKFIT
	 Reference Energy          =    -512.3212776104078330 [Eh]
	 Singles Energy            =      -0.0000000000000000 [Eh]
	 Same-Spin Energy          =      -0.5206494677374034 [Eh]
	 Opposite-Spin Energy      =      -1.6223659176217309 [Eh]
	 Correlation Energy        =      -2.1430153853591341 [Eh]
	 Total Energy              =    -514.4642929957669821 [Eh]

	 ================> DF-SCS-MP2 Energies <==================
	-----------------------------------------------------------
	 SCS Same-Spin Scale       =       0.3333333333333333 [-]
	 SCS Opposite-Spin Scale   =       1.2000000000000000 [-]
	 SCS Same-Spin Energy      =      -0.1735498225791345 [Eh]
	 SCS Opposite-Spin Energy  =      -1.9468391011460771 [Eh]
	 SCS Correlation Energy    =      -2.1203889237252116 [Eh]
	 SCS Total Energy          =    -514.4416665341329917 [Eh]
	-----------------------------------------------------------

  Dipole Moment: [D]
     X:    -7.7708      Y:     0.3603      Z:     1.8110     Total:     7.9872

*** Psi4 exiting successfully. Buy a developer a beer!
