                               Psi4 1.3.2 release

  ==> Input File <==

--------------------------------------------------------------------------
#psi4
#
memory 32 gb

molecule  {
-1 1
  O       -1.6024110     1.2883820    -0.5634480
  O        2.0191420    -1.7287390     0.1939930
  O        3.3803020    -0.0587520    -0.5397320
  N       -0.1041492    -0.2522486     0.2559984
  C        1.0875530     0.4615680    -0.1724770
  C        1.3782960     1.6508690     0.7367710
  C       -2.4731170    -0.8032840     0.3122730
  C       -1.3649450     0.1785500    -0.0525630
  C        2.2731730    -0.5407160    -0.1753640
  C       -3.8468580    -0.3344400    -0.1480570
  H        0.9726449     0.8366048    -1.1991522
  H        0.0672430    -1.2232590     0.4643770
  H        1.5293690     1.3045580     1.7644240
  H        2.2851470     2.1591780     0.4026320
  H        0.5420990     2.3541860     0.7225810
  H       -2.2325720    -1.7800520    -0.1237300
  H       -2.4588320    -0.9441430     1.3993390
  H       -4.0995650     0.6270340     0.3028840
  H       -3.8738130    -0.2132220    -1.2332140
  H       -4.6116960    -1.0622230     0.1365660
units angstrom
no_reorient  #important for SAPT in psi4, default
symmetry c1  #important for SAPT in psi4, default
}

set PROPERTIES_ORIGIN ["COM"]
properties('MP2/aug-cc-pvtz', properties = ['dipole'])
--------------------------------------------------------------------------

    Molecular point group: c1
  Charge       = -1
  Multiplicity = 1
  Basis Set: AUG-CC-PVTZ
    Blend: AUG-CC-PVTZ
  Basis Set: (AUG-CC-PVTZ AUX)
    Blend: AUG-CC-PVTZ-JKFIT

    Orbital Energies [Eh]
    ---------------------

    Doubly Occupied:

       1A    -20.395580     2A    -20.321156     3A    -20.312753
       4A    -15.437023     5A    -11.226620     6A    -11.160702
       7A    -11.136150     8A    -11.125029     9A    -11.113746
      10A    -11.074548    11A     -1.242497    12A     -1.189721
      13A     -1.095488    14A     -1.079441    15A     -0.949933
      16A     -0.876911    17A     -0.784290    18A     -0.719011
      19A     -0.640383    20A     -0.588160    21A     -0.540798
      22A     -0.533214    23A     -0.512811    24A     -0.484721
      25A     -0.464133    26A     -0.437579    27A     -0.426303
      28A     -0.419412    29A     -0.414064    30A     -0.403152
      31A     -0.396162    32A     -0.376136    33A     -0.370252
      34A     -0.340825    35A     -0.301281    36A     -0.257542
      37A     -0.235885    38A     -0.221804    39A     -0.214701

  @DF-RHF Final Energy:  -512.33502793491084

   => Energetics <=

    Nuclear Repulsion Energy =            533.1954033251255396
    One-Electron Energy =               -1771.4210242217870928
    Two-Electron Energy =                 725.8905929617505990
    Total Energy =                       -512.3350279349108405
  Basis Set: (AUG-CC-PVTZ AUX)
    Blend: AUG-CC-PVTZ-RI
    Molecular point group: c1

    Geometry (in Angstrom), charge = -1, multiplicity = 1:

       Center              X                  Y                   Z               Mass
    ------------   -----------------  -----------------  -----------------  -----------------
         O           -1.685366671312     1.302890112740    -0.547529825712    15.994914619570
         O            1.936186328688    -1.714230887260     0.209911174288    15.994914619570
         O            3.297346328688    -0.044243887260    -0.523813825712    15.994914619570
         N           -0.187104871312    -0.237740487260     0.271916574288    14.003074004430
         C            1.004597328688     0.476076112740    -0.156558825712    12.000000000000
         C            1.295340328688     1.665377112740     0.752689174288    12.000000000000
         C           -2.556072671312    -0.788775887260     0.328191174288    12.000000000000
         C           -1.447900671312     0.193058112740    -0.036644825712    12.000000000000
         C            2.190217328688    -0.526207887260    -0.159445825712    12.000000000000
         C           -3.929813671312    -0.319931887260    -0.132138825712    12.000000000000
         H            0.889689228688     0.851112912740    -1.183234025712     1.007825032230
         H           -0.015712671312    -1.208750887260     0.480295174288     1.007825032230
         H            1.446413328688     1.319066112740     1.780342174288     1.007825032230
         H            2.202191328688     2.173686112740     0.418550174288     1.007825032230
         H            0.459143328688     2.368694112740     0.738499174288     1.007825032230
         H           -2.315527671312    -1.765543887260    -0.107811825712     1.007825032230
         H           -2.541787671312    -0.929634887260     1.415257174288     1.007825032230
         H           -4.182520671312     0.641542112740     0.318802174288     1.007825032230
         H           -3.956768671312    -0.198713887260    -1.217295825712     1.007825032230
         H           -4.694651671312    -1.047714887260     0.152484174288     1.007825032230

  Basis Set: AUG-CC-PVTZ
    Blend: AUG-CC-PVTZ
  Basis Set: (AUG-CC-PVTZ AUX)
    Blend: AUG-CC-PVTZ-JKFIT
	 Reference Energy          =    -512.3350279349108405 [Eh]
	 Singles Energy            =      -0.0000000000000000 [Eh]
	 Same-Spin Energy          =      -0.5201225938545962 [Eh]
	 Opposite-Spin Energy      =      -1.6214225670294686 [Eh]
	 Correlation Energy        =      -2.1415451608840650 [Eh]
	 Total Energy              =    -514.4765730957949472 [Eh]

	 ================> DF-SCS-MP2 Energies <==================
	-----------------------------------------------------------
	 SCS Same-Spin Scale       =       0.3333333333333333 [-]
	 SCS Opposite-Spin Scale   =       1.2000000000000000 [-]
	 SCS Same-Spin Energy      =      -0.1733741979515321 [Eh]
	 SCS Opposite-Spin Energy  =      -1.9457070804353622 [Eh]
	 SCS Correlation Energy    =      -2.1190812783868944 [Eh]
	 SCS Total Energy          =    -514.4541092132977838 [Eh]
	-----------------------------------------------------------

  Dipole Moment: [D]
     X:    -8.8038      Y:     0.6557      Z:     1.5529     Total:     8.9637

*** Psi4 exiting successfully. Buy a developer a beer!
