                               Psi4 1.3.2 release

  ==> Input File <==

--------------------------------------------------------------------------
#psi4
#
memory 32 gb

molecule  {
-1 1
  O       -1.6024110     1.2883820    -0.5634480
  O        2.0305947    -1.7053035     0.2157505
  O        3.3803020    -0.0587520    -0.5397320
  N       -0.1163175    -0.2568579     0.2262356
  C        1.0875530     0.4615680    -0.1724770
  C        1.3782960     1.6508690     0.7367710
  C       -2.4731170    -0.8032840     0.3122730
  C       -1.3649450     0.1785500    -0.0525630
  C        2.2731730    -0.5407160    -0.1753640
  C       -3.8468580    -0.3344400    -0.1480570
  H        0.9550610     0.8289670    -1.1997950
  H        0.0672430    -1.2232590     0.4643770
  H        1.5293690     1.3045580     1.7644240
  H        2.2851470     2.1591780     0.4026320
  H        0.5420990     2.3541860     0.7225810
  H       -2.2325720    -1.7800520    -0.1237300
  H       -2.4588320    -0.9441430     1.3993390
  H       -4.0995650     0.6270340     0.3028840
  H       -3.8738130    -0.2132220    -1.2332140
  H       -4.6116960    -1.0622230     0.1365660
units angstrom
no_reorient  #important for SAPT in psi4, default
symmetry c1  #important for SAPT in psi4, default
}

set PROPERTIES_ORIGIN ["COM"]
properties('MP2/aug-cc-pvtz', properties = ['dipole'])
--------------------------------------------------------------------------

    Molecular point group: c1
  Charge       = -1
  Multiplicity = 1
  Basis Set: AUG-CC-PVTZ
    Blend: AUG-CC-PVTZ
  Basis Set: (AUG-CC-PVTZ AUX)
    Blend: AUG-CC-PVTZ-JKFIT

    Orbital Energies [Eh]
    ---------------------

    Doubly Occupied:

       1A    -20.391820     2A    -20.322185     3A    -20.309893
       4A    -15.437753     5A    -11.223599     6A    -11.158337
       7A    -11.135167     8A    -11.124253     9A    -11.113556
      10A    -11.075235    11A     -1.241466    12A     -1.196046
      13A     -1.096769    14A     -1.083216    15A     -0.949084
      16A     -0.877846    17A     -0.783916    18A     -0.720237
      19A     -0.641371    20A     -0.587979    21A     -0.541020
      22A     -0.532828    23A     -0.511009    24A     -0.483378
      25A     -0.466103    26A     -0.438791    27A     -0.425763
      28A     -0.419829    29A     -0.413672    30A     -0.405067
      31A     -0.396895    32A     -0.376183    33A     -0.370573
      34A     -0.342668    35A     -0.299405    36A     -0.257100
      37A     -0.236616    38A     -0.221630    39A     -0.215002

  @DF-RHF Final Energy:  -512.33744277957396

   => Energetics <=

    Nuclear Repulsion Energy =            533.9081935181103518
    One-Electron Energy =               -1772.8447497701336033
    Two-Electron Energy =                 726.5991134724494032
    Total Energy =                       -512.3374427795739621
  Basis Set: (AUG-CC-PVTZ AUX)
    Blend: AUG-CC-PVTZ-RI
    Molecular point group: c1

    Geometry (in Angstrom), charge = -1, multiplicity = 1:

       Center              X                  Y                   Z               Mass
    ------------   -----------------  -----------------  -----------------  -----------------
         O           -1.685332449920     1.300789639739    -0.547048038662    15.994914619570
         O            1.947673250080    -1.692895860261     0.232150461338    15.994914619570
         O            3.297380550080    -0.046344360261    -0.523332038662    15.994914619570
         N           -0.199238949920    -0.244450260261     0.242635561338    14.003074004430
         C            1.004631550080     0.473975639739    -0.156077038662    12.000000000000
         C            1.295374550080     1.663276639739     0.753170961338    12.000000000000
         C           -2.556038449920    -0.790876360261     0.328672961338    12.000000000000
         C           -1.447866449920     0.190957639739    -0.036163038662    12.000000000000
         C            2.190251550080    -0.528308360261    -0.158964038662    12.000000000000
         C           -3.929779449920    -0.322032360261    -0.131657038662    12.000000000000
         H            0.872139550080     0.841374639739    -1.183395038662     1.007825032230
         H           -0.015678449920    -1.210851360261     0.480776961338     1.007825032230
         H            1.446447550080     1.316965639739     1.780823961338     1.007825032230
         H            2.202225550080     2.171585639739     0.419031961338     1.007825032230
         H            0.459177550080     2.366593639739     0.738980961338     1.007825032230
         H           -2.315493449920    -1.767644360261    -0.107330038662     1.007825032230
         H           -2.541753449920    -0.931735360261     1.415738961338     1.007825032230
         H           -4.182486449920     0.639441639739     0.319283961338     1.007825032230
         H           -3.956734449920    -0.200814360261    -1.216814038662     1.007825032230
         H           -4.694617449920    -1.049815360261     0.152965961338     1.007825032230

  Basis Set: AUG-CC-PVTZ
    Blend: AUG-CC-PVTZ
  Basis Set: (AUG-CC-PVTZ AUX)
    Blend: AUG-CC-PVTZ-JKFIT
	 Reference Energy          =    -512.3374427795739621 [Eh]
	 Singles Energy            =      -0.0000000000000000 [Eh]
	 Same-Spin Energy          =      -0.5197520381718481 [Eh]
	 Opposite-Spin Energy      =      -1.6203129504039695 [Eh]
	 Correlation Energy        =      -2.1400649885758174 [Eh]
	 Total Energy              =    -514.4775077681497351 [Eh]

	 ================> DF-SCS-MP2 Energies <==================
	-----------------------------------------------------------
	 SCS Same-Spin Scale       =       0.3333333333333333 [-]
	 SCS Opposite-Spin Scale   =       1.2000000000000000 [-]
	 SCS Same-Spin Energy      =      -0.1732506793906160 [Eh]
	 SCS Opposite-Spin Energy  =      -1.9443755404847634 [Eh]
	 SCS Correlation Energy    =      -2.1176262198753792 [Eh]
	 SCS Total Energy          =    -514.4550689994493951 [Eh]
	-----------------------------------------------------------

  Dipole Moment: [D]
     X:    -8.7387      Y:     0.5184      Z:     1.6043     Total:     8.8999

*** Psi4 exiting successfully. Buy a developer a beer!
