                               Psi4 1.3.2 release

  ==> Input File <==

--------------------------------------------------------------------------
#psi4
#
memory 32 gb

molecule  {
-1 1
  O       -1.6024110     1.2883820    -0.5634480
  O        2.0517455    -1.6720650     0.1755516
  O        3.3803020    -0.0587520    -0.5397320
  N       -0.1147610    -0.2476350     0.2334190
  C        1.0875530     0.4615680    -0.1724770
  C        1.3782960     1.6508690     0.7367710
  C       -2.4911034    -0.7840473     0.3084386
  C       -1.3649450     0.1785500    -0.0525630
  C        2.2731730    -0.5407160    -0.1753640
  C       -3.8468580    -0.3344400    -0.1480570
  H        0.9550610     0.8289670    -1.1997950
  H        0.0672430    -1.2232590     0.4643770
  H        1.5293690     1.3045580     1.7644240
  H        2.2851470     2.1591780     0.4026320
  H        0.5420990     2.3541860     0.7225810
  H       -2.2325720    -1.7800520    -0.1237300
  H       -2.4588320    -0.9441430     1.3993390
  H       -4.0995650     0.6270340     0.3028840
  H       -3.8738130    -0.2132220    -1.2332140
  H       -4.6116960    -1.0622230     0.1365660
units angstrom
no_reorient  #important for SAPT in psi4, default
symmetry c1  #important for SAPT in psi4, default
}

set PROPERTIES_ORIGIN ["COM"]
properties('MP2/aug-cc-pvtz', properties = ['dipole'])
--------------------------------------------------------------------------

    Molecular point group: c1
  Charge       = -1
  Multiplicity = 1
  Basis Set: AUG-CC-PVTZ
    Blend: AUG-CC-PVTZ
  Basis Set: (AUG-CC-PVTZ AUX)
    Blend: AUG-CC-PVTZ-JKFIT

    Orbital Energies [Eh]
    ---------------------

    Doubly Occupied:

       1A    -20.391366     2A    -20.322055     3A    -20.298906
       4A    -15.439049     5A    -11.223876     6A    -11.148428
       7A    -11.137221     8A    -11.124038     9A    -11.110121
      10A    -11.073048    11A     -1.241980    12A     -1.215519
      13A     -1.095200    14A     -1.086819    15A     -0.952934
      16A     -0.876883    17A     -0.783367    18A     -0.718771
      19A     -0.639197    20A     -0.587400    21A     -0.541084
      22A     -0.532115    23A     -0.511181    24A     -0.485701
      25A     -0.468261    26A     -0.441258    27A     -0.429680
      28A     -0.421448    29A     -0.414373    30A     -0.407006
      31A     -0.395519    32A     -0.375470    33A     -0.372466
      34A     -0.345858    35A     -0.298916    36A     -0.256715
      37A     -0.234367    38A     -0.217821    39A     -0.212765

  @DF-RHF Final Energy:  -512.33610172824240

   => Energetics <=

    Nuclear Repulsion Energy =            535.3330389170971557
    One-Electron Energy =               -1775.6819193389658267
    Two-Electron Energy =                 728.0127786936262737
    Total Energy =                       -512.3361017282423973
  Basis Set: (AUG-CC-PVTZ AUX)
    Blend: AUG-CC-PVTZ-RI
    Molecular point group: c1

    Geometry (in Angstrom), charge = -1, multiplicity = 1:

       Center              X                  Y                   Z               Mass
    ------------   -----------------  -----------------  -----------------  -----------------
         O           -1.686333825377     1.294600560437    -0.542963793850    15.994914619570
         O            1.967822674623    -1.665846439563     0.196035806150    15.994914619570
         O            3.296379174623    -0.052533439563    -0.519247793850    15.994914619570
         N           -0.198683825377    -0.241416439563     0.253903206150    14.003074004430
         C            1.003630174623     0.467786560437    -0.151992793850    12.000000000000
         C            1.294373174623     1.657087560437     0.757255206150    12.000000000000
         C           -2.575026225377    -0.777828739563     0.328922806150    12.000000000000
         C           -1.448867825377     0.184768560437    -0.032078793850    12.000000000000
         C            2.189250174623    -0.534497439563    -0.154879793850    12.000000000000
         C           -3.930780825377    -0.328221439563    -0.127572793850    12.000000000000
         H            0.871138174623     0.835185560437    -1.179310793850     1.007825032230
         H           -0.016679825377    -1.217040439563     0.484861206150     1.007825032230
         H            1.445446174623     1.310776560437     1.784908206150     1.007825032230
         H            2.201224174623     2.165396560437     0.423116206150     1.007825032230
         H            0.458176174623     2.360404560437     0.743065206150     1.007825032230
         H           -2.316494825377    -1.773833439563    -0.103245793850     1.007825032230
         H           -2.542754825377    -0.937924439563     1.419823206150     1.007825032230
         H           -4.183487825377     0.633252560437     0.323368206150     1.007825032230
         H           -3.957735825377    -0.207003439563    -1.212729793850     1.007825032230
         H           -4.695618825377    -1.056004439563     0.157050206150     1.007825032230

  Basis Set: AUG-CC-PVTZ
    Blend: AUG-CC-PVTZ
  Basis Set: (AUG-CC-PVTZ AUX)
    Blend: AUG-CC-PVTZ-JKFIT
	 Reference Energy          =    -512.3361017282423973 [Eh]
	 Singles Energy            =      -0.0000000000000000 [Eh]
	 Same-Spin Energy          =      -0.5190146928184568 [Eh]
	 Opposite-Spin Energy      =      -1.6180079621617454 [Eh]
	 Correlation Energy        =      -2.1370226549802021 [Eh]
	 Total Energy              =    -514.4731243832226255 [Eh]

	 ================> DF-SCS-MP2 Energies <==================
	-----------------------------------------------------------
	 SCS Same-Spin Scale       =       0.3333333333333333 [-]
	 SCS Opposite-Spin Scale   =       1.2000000000000000 [-]
	 SCS Same-Spin Energy      =      -0.1730048976061523 [Eh]
	 SCS Opposite-Spin Energy  =      -1.9416095545940943 [Eh]
	 SCS Correlation Energy    =      -2.1146144522002466 [Eh]
	 SCS Total Energy          =    -514.4507161804426687 [Eh]
	-----------------------------------------------------------

  Dipole Moment: [D]
     X:    -8.9437      Y:     0.2473      Z:     1.7283     Total:     9.1125

*** Psi4 exiting successfully. Buy a developer a beer!
