                               Psi4 1.3.2 release

  ==> Input File <==

--------------------------------------------------------------------------
#psi4
#
memory 32 gb

molecule  {
-1 1
  O       -1.6024110     1.2883820    -0.5634480
  O        2.0191420    -1.7287390     0.1939930
  O        3.3803020    -0.0587520    -0.5397320
  N       -0.1443866    -0.2325040     0.1649666
  C        1.0875530     0.4615680    -0.1724770
  C        1.3782960     1.6508690     0.7367710
  C       -2.4731170    -0.8032840     0.3122730
  C       -1.3649450     0.1785500    -0.0525630
  C        2.2731730    -0.5407160    -0.1753640
  C       -3.8468580    -0.3344400    -0.1480570
  H        0.9025728     0.8053915    -1.1998455
  H        0.0672430    -1.2232590     0.4643770
  H        1.5293690     1.3045580     1.7644240
  H        2.2851470     2.1591780     0.4026320
  H        0.5420990     2.3541860     0.7225810
  H       -2.2325720    -1.7800520    -0.1237300
  H       -2.4588320    -0.9441430     1.3993390
  H       -4.0995650     0.6270340     0.3028840
  H       -3.8738130    -0.2132220    -1.2332140
  H       -4.6116960    -1.0622230     0.1365660
units angstrom
no_reorient  #important for SAPT in psi4, default
symmetry c1  #important for SAPT in psi4, default
}

set PROPERTIES_ORIGIN ["COM"]
properties('MP2/aug-cc-pvtz', properties = ['dipole'])
--------------------------------------------------------------------------

    Molecular point group: c1
  Charge       = -1
  Multiplicity = 1
  Basis Set: AUG-CC-PVTZ
    Blend: AUG-CC-PVTZ
  Basis Set: (AUG-CC-PVTZ AUX)
    Blend: AUG-CC-PVTZ-JKFIT

    Orbital Energies [Eh]
    ---------------------

    Doubly Occupied:

       1A    -20.380666     2A    -20.325538     3A    -20.316609
       4A    -15.440643     5A    -11.214336     6A    -11.165471
       7A    -11.133336     8A    -11.122463     9A    -11.117545
      10A    -11.078641    11A     -1.240263    12A     -1.192948
      13A     -1.099674    14A     -1.085794    15A     -0.947682
      16A     -0.883129    17A     -0.783499    18A     -0.726870
      19A     -0.634844    20A     -0.590200    21A     -0.545609
      22A     -0.532602    23A     -0.507210    24A     -0.478745
      25A     -0.469744    26A     -0.440164    27A     -0.424843
      28A     -0.419713    29A     -0.411989    30A     -0.405328
      31A     -0.398420    32A     -0.375468    33A     -0.367189
      34A     -0.342378    35A     -0.294338    36A     -0.255597
      37A     -0.239726    38A     -0.226498    39A     -0.218111

  @DF-RHF Final Energy:  -512.33237556488712

   => Energetics <=

    Nuclear Repulsion Energy =            534.0730448451480470
    One-Electron Energy =               -1773.1431996445221557
    Two-Electron Energy =                 726.7377792344868794
    Total Energy =                       -512.3323755648871156
  Basis Set: (AUG-CC-PVTZ AUX)
    Blend: AUG-CC-PVTZ-RI
    Molecular point group: c1

    Geometry (in Angstrom), charge = -1, multiplicity = 1:

       Center              X                  Y                   Z               Mass
    ------------   -----------------  -----------------  -----------------  -----------------
         O           -1.680965442664     1.301189312871    -0.538676778126    15.994914619570
         O            1.940587557336    -1.715931687129     0.218764221874    15.994914619570
         O            3.301747557336    -0.045944687129    -0.514960778126    15.994914619570
         N           -0.222941042664    -0.219696687129     0.189737821874    14.003074004430
         C            1.008998557336     0.474375312871    -0.147705778126    12.000000000000
         C            1.299741557336     1.663676312871     0.761542221874    12.000000000000
         C           -2.551671442664    -0.790476687129     0.337044221874    12.000000000000
         C           -1.443499442664     0.191357312871    -0.027791778126    12.000000000000
         C            2.194618557336    -0.527908687129    -0.150592778126    12.000000000000
         C           -3.925412442664    -0.321632687129    -0.123285778126    12.000000000000
         H            0.824018357336     0.818198812871    -1.175074278126     1.007825032230
         H           -0.011311442664    -1.210451687129     0.489148221874     1.007825032230
         H            1.450814557336     1.317365312871     1.789195221874     1.007825032230
         H            2.206592557336     2.171985312871     0.427403221874     1.007825032230
         H            0.463544557336     2.366993312871     0.747352221874     1.007825032230
         H           -2.311126442664    -1.767244687129    -0.098958778126     1.007825032230
         H           -2.537386442664    -0.931335687129     1.424110221874     1.007825032230
         H           -4.178119442664     0.639841312871     0.327655221874     1.007825032230
         H           -3.952367442664    -0.200414687129    -1.208442778126     1.007825032230
         H           -4.690250442664    -1.049415687129     0.161337221874     1.007825032230

  Basis Set: AUG-CC-PVTZ
    Blend: AUG-CC-PVTZ
  Basis Set: (AUG-CC-PVTZ AUX)
    Blend: AUG-CC-PVTZ-JKFIT
	 Reference Energy          =    -512.3323755648871156 [Eh]
	 Singles Energy            =      -0.0000000000000000 [Eh]
	 Same-Spin Energy          =      -0.5204467945639878 [Eh]
	 Opposite-Spin Energy      =      -1.6215215782025723 [Eh]
	 Correlation Energy        =      -2.1419683727665602 [Eh]
	 Total Energy              =    -514.4743439376536571 [Eh]

	 ================> DF-SCS-MP2 Energies <==================
	-----------------------------------------------------------
	 SCS Same-Spin Scale       =       0.3333333333333333 [-]
	 SCS Opposite-Spin Scale   =       1.2000000000000000 [-]
	 SCS Same-Spin Energy      =      -0.1734822648546626 [Eh]
	 SCS Opposite-Spin Energy  =      -1.9458258938430866 [Eh]
	 SCS Correlation Energy    =      -2.1193081586977494 [Eh]
	 SCS Total Energy          =    -514.4516837235848925 [Eh]
	-----------------------------------------------------------

  Dipole Moment: [D]
     X:    -8.3505      Y:     0.5372      Z:     1.7320     Total:     8.5451

*** Psi4 exiting successfully. Buy a developer a beer!
