                               Psi4 1.3.2 release

  ==> Input File <==

--------------------------------------------------------------------------
#psi4
#
memory 32 gb

molecule  {
-1 1
  O       -1.6024110     1.2883820    -0.5634480
  O        2.0191420    -1.7287390     0.1939930
  O        3.3803020    -0.0587520    -0.5397320
  N       -0.1147610    -0.2476350     0.2334190
  C        1.0596330     0.5034617    -0.1788091
  C        1.3782960     1.6508690     0.7367710
  C       -2.4731170    -0.8032840     0.3122730
  C       -1.3649450     0.1785500    -0.0525630
  C        2.2731730    -0.5407160    -0.1753640
  C       -3.8468580    -0.3344400    -0.1480570
  H        0.9550610     0.8289670    -1.1997950
  H        0.0326665    -1.2273404     0.4716451
  H        1.5293690     1.3045580     1.7644240
  H        2.2851470     2.1591780     0.4026320
  H        0.5420990     2.3541860     0.7225810
  H       -2.2325720    -1.7800520    -0.1237300
  H       -2.4588320    -0.9441430     1.3993390
  H       -4.0995650     0.6270340     0.3028840
  H       -3.8738130    -0.2132220    -1.2332140
  H       -4.6116960    -1.0622230     0.1365660
units angstrom
no_reorient  #important for SAPT in psi4, default
symmetry c1  #important for SAPT in psi4, default
}

set PROPERTIES_ORIGIN ["COM"]
properties('MP2/aug-cc-pvtz', properties = ['dipole'])
--------------------------------------------------------------------------

    Molecular point group: c1
  Charge       = -1
  Multiplicity = 1
  Basis Set: AUG-CC-PVTZ
    Blend: AUG-CC-PVTZ
  Basis Set: (AUG-CC-PVTZ AUX)
    Blend: AUG-CC-PVTZ-JKFIT

    Orbital Energies [Eh]
    ---------------------

    Doubly Occupied:

       1A    -20.391281     2A    -20.321885     3A    -20.313436
       4A    -15.438528     5A    -11.222052     6A    -11.162848
       7A    -11.135271     8A    -11.124333     9A    -11.112985
      10A    -11.074317    11A     -1.241516    12A     -1.188001
      13A     -1.095545    14A     -1.081108    15A     -0.949390
      16A     -0.881118    17A     -0.783815    18A     -0.716073
      19A     -0.638833    20A     -0.586009    21A     -0.538780
      22A     -0.532895    23A     -0.514934    24A     -0.482762
      25A     -0.464826    26A     -0.439810    27A     -0.425429
      28A     -0.418100    29A     -0.413175    30A     -0.404415
      31A     -0.395280    32A     -0.377913    33A     -0.369884
      34A     -0.346297    35A     -0.298835    36A     -0.259478
      37A     -0.235226    38A     -0.217536    39A     -0.213311

  @DF-RHF Final Energy:  -512.33303691869878

   => Energetics <=

    Nuclear Repulsion Energy =            533.1486213472999225
    One-Electron Energy =               -1771.3488592228570724
    Two-Electron Energy =                 725.8672009568583690
    Total Energy =                       -512.3330369186987809
  Basis Set: (AUG-CC-PVTZ AUX)
    Blend: AUG-CC-PVTZ-RI
    Molecular point group: c1

    Geometry (in Angstrom), charge = -1, multiplicity = 1:

       Center              X                  Y                   Z               Mass
    ------------   -----------------  -----------------  -----------------  -----------------
         O           -1.681644723567     1.299034117459    -0.544854045976    15.994914619570
         O            1.939908276433    -1.718086882541     0.212586954024    15.994914619570
         O            3.301068276433    -0.048099882541    -0.521138045976    15.994914619570
         N           -0.193994723567    -0.236982882541     0.252012954024    14.003074004430
         C            0.980399276433     0.514113817459    -0.160215145976    12.000000000000
         C            1.299062276433     1.661521117459     0.755364954024    12.000000000000
         C           -2.552350723567    -0.792631882541     0.330866954024    12.000000000000
         C           -1.444178723567     0.189202117459    -0.033969045976    12.000000000000
         C            2.193939276433    -0.530063882541    -0.156770045976    12.000000000000
         C           -3.926091723567    -0.323787882541    -0.129463045976    12.000000000000
         H            0.875827276433     0.839619117459    -1.181201045976     1.007825032230
         H           -0.046567223567    -1.216688282541     0.490239054024     1.007825032230
         H            1.450135276433     1.315210117459     1.783017954024     1.007825032230
         H            2.205913276433     2.169830117459     0.421225954024     1.007825032230
         H            0.462865276433     2.364838117459     0.741174954024     1.007825032230
         H           -2.311805723567    -1.769399882541    -0.105136045976     1.007825032230
         H           -2.538065723567    -0.933490882541     1.417932954024     1.007825032230
         H           -4.178798723567     0.637686117459     0.321477954024     1.007825032230
         H           -3.953046723567    -0.202569882541    -1.214620045976     1.007825032230
         H           -4.690929723567    -1.051570882541     0.155159954024     1.007825032230

  Basis Set: AUG-CC-PVTZ
    Blend: AUG-CC-PVTZ
  Basis Set: (AUG-CC-PVTZ AUX)
    Blend: AUG-CC-PVTZ-JKFIT
	 Reference Energy          =    -512.3330369186987809 [Eh]
	 Singles Energy            =      -0.0000000000000000 [Eh]
	 Same-Spin Energy          =      -0.5202649677875771 [Eh]
	 Opposite-Spin Energy      =      -1.6214475537140207 [Eh]
	 Correlation Energy        =      -2.1417125215015980 [Eh]
	 Total Energy              =    -514.4747494402004122 [Eh]

	 ================> DF-SCS-MP2 Energies <==================
	-----------------------------------------------------------
	 SCS Same-Spin Scale       =       0.3333333333333333 [-]
	 SCS Opposite-Spin Scale   =       1.2000000000000000 [-]
	 SCS Same-Spin Energy      =      -0.1734216559291924 [Eh]
	 SCS Opposite-Spin Energy  =      -1.9457370644568248 [Eh]
	 SCS Correlation Energy    =      -2.1191587203860172 [Eh]
	 SCS Total Energy          =    -514.4521956390848345 [Eh]
	-----------------------------------------------------------

  Dipole Moment: [D]
     X:    -8.6944      Y:     0.6263      Z:     1.6082     Total:     8.8640

*** Psi4 exiting successfully. Buy a developer a beer!
