                               Psi4 1.3.2 release

  ==> Input File <==

--------------------------------------------------------------------------
#psi4
#
memory 32 gb

molecule  {
-1 1
  O       -1.6024110     1.2883820    -0.5634480
  O        2.0191420    -1.7287390     0.1939930
  O        3.3803020    -0.0587520    -0.5397320
  N       -0.1076488    -0.2799121     0.1949183
  C        1.0875530     0.4615680    -0.1724770
  C        1.4214717     1.6614964     0.7075062
  C       -2.4731170    -0.8032840     0.3122730
  C       -1.3649450     0.1785500    -0.0525630
  C        2.2731730    -0.5407160    -0.1753640
  C       -3.8468580    -0.3344400    -0.1480570
  H        0.9550610     0.8289670    -1.1997950
  H        0.0672430    -1.2232590     0.4643770
  H        1.5293690     1.3045580     1.7644240
  H        2.2851470     2.1591780     0.4026320
  H        0.5420990     2.3541860     0.7225810
  H       -2.2325720    -1.7800520    -0.1237300
  H       -2.4588320    -0.9441430     1.3993390
  H       -4.0995650     0.6270340     0.3028840
  H       -3.8738130    -0.2132220    -1.2332140
  H       -4.6116960    -1.0622230     0.1365660
units angstrom
no_reorient  #important for SAPT in psi4, default
symmetry c1  #important for SAPT in psi4, default
}

set PROPERTIES_ORIGIN ["COM"]
properties('MP2/aug-cc-pvtz', properties = ['dipole'])
--------------------------------------------------------------------------

    Molecular point group: c1
  Charge       = -1
  Multiplicity = 1
  Basis Set: AUG-CC-PVTZ
    Blend: AUG-CC-PVTZ
  Basis Set: (AUG-CC-PVTZ AUX)
    Blend: AUG-CC-PVTZ-JKFIT

    Orbital Energies [Eh]
    ---------------------

    Doubly Occupied:

       1A    -20.393793     2A    -20.320661     3A    -20.312385
       4A    -15.437887     5A    -11.225716     6A    -11.160152
       7A    -11.135653     8A    -11.124664     9A    -11.114419
      10A    -11.077541    11A     -1.241957    12A     -1.189561
      13A     -1.096547    14A     -1.080252    15A     -0.949526
      16A     -0.878671    17A     -0.785671    18A     -0.720311
      19A     -0.644997    20A     -0.588893    21A     -0.541077
      22A     -0.532699    23A     -0.510514    24A     -0.485000
      25A     -0.466015    26A     -0.438767    27A     -0.426452
      28A     -0.420449    29A     -0.414311    30A     -0.404242
      31A     -0.398440    32A     -0.382455    33A     -0.363633
      34A     -0.338874    35A     -0.300365    36A     -0.256855
      37A     -0.235625    38A     -0.221463    39A     -0.213953

  @DF-RHF Final Energy:  -512.33180117873098

   => Energetics <=

    Nuclear Repulsion Energy =            533.2205699018421683
    One-Electron Energy =               -1771.4438502002108180
    Two-Electron Energy =                 725.8914791196375518
    Total Energy =                       -512.3318011787309842
  Basis Set: (AUG-CC-PVTZ AUX)
    Blend: AUG-CC-PVTZ-RI
    Molecular point group: c1

    Geometry (in Angstrom), charge = -1, multiplicity = 1:

       Center              X                  Y                   Z               Mass
    ------------   -----------------  -----------------  -----------------  -----------------
         O           -1.688499829267     1.304747196834    -0.539150790971    15.994914619570
         O            1.933053170733    -1.712373803166     0.218290209029    15.994914619570
         O            3.294213170733    -0.042386803166    -0.515434790971    15.994914619570
         N           -0.193737629267    -0.263546903166     0.219215509029    14.003074004430
         C            1.001464170733     0.477933196834    -0.148179790971    12.000000000000
         C            1.335382870733     1.677861596834     0.731803409029    12.000000000000
         C           -2.559205829267    -0.786918803166     0.336570209029    12.000000000000
         C           -1.451033829267     0.194915196834    -0.028265790971    12.000000000000
         C            2.187084170733    -0.524350803166    -0.151066790971    12.000000000000
         C           -3.932946829267    -0.318074803166    -0.123759790971    12.000000000000
         H            0.868972170733     0.845332196834    -1.175497790971     1.007825032230
         H           -0.018845829267    -1.206893803166     0.488674209029     1.007825032230
         H            1.443280170733     1.320923196834     1.788721209029     1.007825032230
         H            2.199058170733     2.175543196834     0.426929209029     1.007825032230
         H            0.456010170733     2.370551196834     0.746878209029     1.007825032230
         H           -2.318660829267    -1.763686803166    -0.099432790971     1.007825032230
         H           -2.544920829267    -0.927777803166     1.423636209029     1.007825032230
         H           -4.185653829267     0.643399196834     0.327181209029     1.007825032230
         H           -3.959901829267    -0.196856803166    -1.208916790971     1.007825032230
         H           -4.697784829267    -1.045857803166     0.160863209029     1.007825032230

  Basis Set: AUG-CC-PVTZ
    Blend: AUG-CC-PVTZ
  Basis Set: (AUG-CC-PVTZ AUX)
    Blend: AUG-CC-PVTZ-JKFIT
	 Reference Energy          =    -512.3318011787309842 [Eh]
	 Singles Energy            =      -0.0000000000000000 [Eh]
	 Same-Spin Energy          =      -0.5200013322670920 [Eh]
	 Opposite-Spin Energy      =      -1.6211272737647473 [Eh]
	 Correlation Energy        =      -2.1411286060318391 [Eh]
	 Total Energy              =    -514.4729297847628686 [Eh]

	 ================> DF-SCS-MP2 Energies <==================
	-----------------------------------------------------------
	 SCS Same-Spin Scale       =       0.3333333333333333 [-]
	 SCS Opposite-Spin Scale   =       1.2000000000000000 [-]
	 SCS Same-Spin Energy      =      -0.1733337774223640 [Eh]
	 SCS Opposite-Spin Energy  =      -1.9453527285176966 [Eh]
	 SCS Correlation Energy    =      -2.1186865059400608 [Eh]
	 SCS Total Energy          =    -514.4504876846710886 [Eh]
	-----------------------------------------------------------

  Dipole Moment: [D]
     X:    -8.7402      Y:     0.6841      Z:     1.6134     Total:     8.9142

*** Psi4 exiting successfully. Buy a developer a beer!
