                               Psi4 1.3.2 release

  ==> Input File <==

--------------------------------------------------------------------------
#psi4
#
memory 32 gb

molecule  {
-1 1
  O       -1.6024110     1.2883820    -0.5634480
  O        2.0191420    -1.7287390     0.1939930
  O        3.3803020    -0.0587520    -0.5397320
  N       -0.1147610    -0.2476350     0.2334190
  C        1.0875530     0.4615680    -0.1724770
  C        1.3782960     1.6508690     0.7367710
  C       -2.4731170    -0.8032840     0.3122730
  C       -1.3565563     0.2003619    -0.0557569
  C        2.2731730    -0.5407160    -0.1753640
  C       -3.8468580    -0.3344400    -0.1480570
  H        0.9550610     0.8289670    -1.1997950
  H        0.0845000    -1.2194200     0.4663099
  H        1.5293690     1.3045580     1.7644240
  H        2.2851470     2.1591780     0.4026320
  H        0.5420990     2.3541860     0.7225810
  H       -2.2325720    -1.7800520    -0.1237300
  H       -2.4588320    -0.9441430     1.3993390
  H       -4.0995650     0.6270340     0.3028840
  H       -3.8738130    -0.2132220    -1.2332140
  H       -4.6116960    -1.0622230     0.1365660
units angstrom
no_reorient  #important for SAPT in psi4, default
symmetry c1  #important for SAPT in psi4, default
}

set PROPERTIES_ORIGIN ["COM"]
properties('MP2/aug-cc-pvtz', properties = ['dipole'])
--------------------------------------------------------------------------

    Molecular point group: c1
  Charge       = -1
  Multiplicity = 1
  Basis Set: AUG-CC-PVTZ
    Blend: AUG-CC-PVTZ
  Basis Set: (AUG-CC-PVTZ AUX)
    Blend: AUG-CC-PVTZ-JKFIT

    Orbital Energies [Eh]
    ---------------------

    Doubly Occupied:

       1A    -20.394689     2A    -20.322776     3A    -20.313827
       4A    -15.436015     5A    -11.222817     6A    -11.161975
       7A    -11.133614     8A    -11.123160     9A    -11.113842
      10A    -11.075697    11A     -1.253306    12A     -1.191041
      13A     -1.097395    14A     -1.081825    15A     -0.945494
      16A     -0.877525    17A     -0.780535    18A     -0.720147
      19A     -0.641124    20A     -0.587791    21A     -0.541320
      22A     -0.531311    23A     -0.512364    24A     -0.486350
      25A     -0.466027    26A     -0.439538    27A     -0.424479
      28A     -0.419903    29A     -0.414001    30A     -0.404004
      31A     -0.396670    32A     -0.377974    33A     -0.370007
      34A     -0.342968    35A     -0.298750    36A     -0.257680
      37A     -0.237344    38A     -0.223022    39A     -0.215845

  @DF-RHF Final Energy:  -512.33709245451678

   => Energetics <=

    Nuclear Repulsion Energy =            533.5957466807622041
    One-Electron Energy =               -1772.1973837988823561
    Two-Electron Energy =                 726.2645446636033739
    Total Energy =                       -512.3370924545167782
  Basis Set: (AUG-CC-PVTZ AUX)
    Blend: AUG-CC-PVTZ-RI
    Molecular point group: c1

    Geometry (in Angstrom), charge = -1, multiplicity = 1:

       Center              X                  Y                   Z               Mass
    ------------   -----------------  -----------------  -----------------  -----------------
         O           -1.685031666134     1.300651425584    -0.545078119918    15.994914619570
         O            1.936521333866    -1.716469574416     0.212362880082    15.994914619570
         O            3.297681333866    -0.046482574416    -0.521362119918    15.994914619570
         N           -0.197381666134    -0.235365574416     0.251788880082    14.003074004430
         C            1.004932333866     0.473837425584    -0.154107119918    12.000000000000
         C            1.295675333866     1.663138425584     0.755140880082    12.000000000000
         C           -2.555737666134    -0.791014574416     0.330642880082    12.000000000000
         C           -1.439176966134     0.212631325584    -0.037387019918    12.000000000000
         C            2.190552333866    -0.528446574416    -0.156994119918    12.000000000000
         C           -3.929478666134    -0.322170574416    -0.129687119918    12.000000000000
         H            0.872440333866     0.841236425584    -1.181425119918     1.007825032230
         H            0.001879333866    -1.207150574416     0.484679780082     1.007825032230
         H            1.446748333866     1.316827425584     1.782793880082     1.007825032230
         H            2.202526333866     2.171447425584     0.421001880082     1.007825032230
         H            0.459478333866     2.366455425584     0.740950880082     1.007825032230
         H           -2.315192666134    -1.767782574416    -0.105360119918     1.007825032230
         H           -2.541452666134    -0.931873574416     1.417708880082     1.007825032230
         H           -4.182185666134     0.639303425584     0.321253880082     1.007825032230
         H           -3.956433666134    -0.200952574416    -1.214844119918     1.007825032230
         H           -4.694316666134    -1.049953574416     0.154935880082     1.007825032230

  Basis Set: AUG-CC-PVTZ
    Blend: AUG-CC-PVTZ
  Basis Set: (AUG-CC-PVTZ AUX)
    Blend: AUG-CC-PVTZ-JKFIT
	 Reference Energy          =    -512.3370924545167782 [Eh]
	 Singles Energy            =      -0.0000000000000000 [Eh]
	 Same-Spin Energy          =      -0.5197986721520353 [Eh]
	 Opposite-Spin Energy      =      -1.6205600297111384 [Eh]
	 Correlation Energy        =      -2.1403587018631738 [Eh]
	 Total Energy              =    -514.4774511563799706 [Eh]

	 ================> DF-SCS-MP2 Energies <==================
	-----------------------------------------------------------
	 SCS Same-Spin Scale       =       0.3333333333333333 [-]
	 SCS Opposite-Spin Scale   =       1.2000000000000000 [-]
	 SCS Same-Spin Energy      =      -0.1732662240506784 [Eh]
	 SCS Opposite-Spin Energy  =      -1.9446720356533660 [Eh]
	 SCS Correlation Energy    =      -2.1179382597040446 [Eh]
	 SCS Total Energy          =    -514.4550307142208112 [Eh]
	-----------------------------------------------------------

  Dipole Moment: [D]
     X:    -8.6341      Y:     0.7340      Z:     1.5549     Total:     8.8036

*** Psi4 exiting successfully. Buy a developer a beer!
