                               Psi4 1.4a3.dev225

  ==> Input File <==

--------------------------------------------------------------------------
#psi4
#
memory 32 gb

molecule  {
-1 1
  O       -1.5868420     1.2523650    -0.8113290
  O        2.0299390    -1.6922460     0.2543140
  O        3.4074630     0.0142020    -0.3584910
  N       -0.1383540    -0.2870410     0.0455440
  C        1.0782140     0.4735880    -0.1782270
  C        1.2275190     1.6106150     0.8299030
  C       -2.4816390    -0.8906360    -0.1487800
  C       -1.3641120     0.1217370    -0.3343690
  C        2.2466278    -0.4663309    -0.0951392
  C       -3.7126180    -0.2515540     0.4884160
  H        1.0494870     0.8996880    -1.1894520
  H        0.0515970    -1.2513350     0.3145600
  H        1.2660770     1.2028380     1.8451460
  H        2.1536960     2.1558630     0.6353850
  H        0.3800930     2.2967220     0.7589720
  H       -2.7387560    -1.2794370    -1.1416750
  H       -2.1327770    -1.7398080     0.4477120
  H       -3.4838230     0.1112750     1.4946450
  H       -4.0489630     0.5957980    -0.1116680
  H       -4.5299760    -0.9736440     0.5641870
units angstrom
no_reorient  #important for SAPT in psi4, default
symmetry c1  #important for SAPT in psi4, default
}

set PROPERTIES_ORIGIN ["COM"]
properties('MP2/aug-cc-pvtz', properties = ['dipole'])
--------------------------------------------------------------------------

    Molecular point group: c1
  Charge       = -1
  Multiplicity = 1
  Basis Set: AUG-CC-PVTZ
    Blend: AUG-CC-PVTZ
  Basis Set: (AUG-CC-PVTZ AUX)
    Blend: AUG-CC-PVTZ-JKFIT

    Orbital Energies [Eh]
    ---------------------

    Doubly Occupied:

       1A    -20.389527     2A    -20.321570     3A    -20.312996
       4A    -15.444771     5A    -11.224635     6A    -11.164285
       7A    -11.135907     8A    -11.128407     9A    -11.120190
      10A    -11.080923    11A     -1.240815    12A     -1.179924
      13A     -1.096107    14A     -1.070883    15A     -0.952370
      16A     -0.886638    17A     -0.786196    18A     -0.734221
      19A     -0.646722    20A     -0.594927    21A     -0.549926
      22A     -0.524346    23A     -0.516910    24A     -0.483714
      25A     -0.465050    26A     -0.444777    27A     -0.436013
      28A     -0.416318    29A     -0.411996    30A     -0.402947
      31A     -0.396566    32A     -0.376828    33A     -0.367840
      34A     -0.334724    35A     -0.298456    36A     -0.260679
      37A     -0.237213    38A     -0.224944    39A     -0.210383

  @DF-RHF Final Energy:  -512.32944747855015

   => Energetics <=

    Nuclear Repulsion Energy =            534.5923333571211060
    One-Electron Energy =               -1774.1002738749980381
    Two-Electron Energy =                 727.1784930393267814
    Total Energy =                       -512.3294474785501507
  Basis Set: (AUG-CC-PVTZ AUX)
    Blend: AUG-CC-PVTZ-RI
    Molecular point group: c1

    Geometry (in Angstrom), charge = -1, multiplicity = 1:

       Center              X                  Y                   Z               Mass
    ------------   -----------------  -----------------  -----------------  -----------------
         O           -1.666336030541     1.263647155778    -0.786216096932    15.994914619570
         O            1.950444969459    -1.680963844222     0.279426903068    15.994914619570
         O            3.327968969459     0.025484155778    -0.333378096932    15.994914619570
         N           -0.217848030541    -0.275758844222     0.070656903068    14.003074004430
         C            0.998719969459     0.484870155778    -0.153114096932    12.000000000000
         C            1.148024969459     1.621897155778     0.855015903068    12.000000000000
         C           -2.561133030541    -0.879353844222    -0.123667096932    12.000000000000
         C           -1.443606030541     0.133019155778    -0.309256096932    12.000000000000
         C            2.167133769459    -0.455048744222    -0.070026296932    12.000000000000
         C           -3.792112030541    -0.240271844222     0.513528903068    12.000000000000
         H            0.969992969459     0.910970155778    -1.164339096932     1.007825032230
         H           -0.027897030541    -1.240052844222     0.339672903068     1.007825032230
         H            1.186582969459     1.214120155778     1.870258903068     1.007825032230
         H            2.074201969459     2.167145155778     0.660497903068     1.007825032230
         H            0.300598969459     2.308004155778     0.784084903068     1.007825032230
         H           -2.818250030541    -1.268154844222    -1.116562096932     1.007825032230
         H           -2.212271030541    -1.728525844222     0.472824903068     1.007825032230
         H           -3.563317030541     0.122557155778     1.519757903068     1.007825032230
         H           -4.128457030541     0.607080155778    -0.086555096932     1.007825032230
         H           -4.609470030541    -0.962361844222     0.589299903068     1.007825032230

  Basis Set: AUG-CC-PVTZ
    Blend: AUG-CC-PVTZ
  Basis Set: (AUG-CC-PVTZ AUX)
    Blend: AUG-CC-PVTZ-JKFIT
	 Reference Energy          =    -512.3294474785501507 [Eh]
	 Singles Energy            =      -0.0000000000000000 [Eh]
	 Same-Spin Energy          =      -0.5213972390628749 [Eh]
	 Opposite-Spin Energy      =      -1.6239631563309338 [Eh]
	 Correlation Energy        =      -2.1453603953938085 [Eh]
	 Total Energy              =    -514.4748078739439734 [Eh]

	 ================> DF-SCS-MP2 Energies <==================
	-----------------------------------------------------------
	 SCS Same-Spin Scale       =       0.3333333333333333 [-]
	 SCS Opposite-Spin Scale   =       1.2000000000000000 [-]
	 SCS Same-Spin Energy      =      -0.1737990796876250 [Eh]
	 SCS Opposite-Spin Energy  =      -1.9487557875971204 [Eh]
	 SCS Correlation Energy    =      -2.1225548672847454 [Eh]
	 SCS Total Energy          =    -514.4520023458348987 [Eh]
	-----------------------------------------------------------

  Dipole Moment: [D]
     X:    -8.9070      Y:     0.5676      Z:     1.2286     Total:     9.0093

*** Psi4 exiting successfully. Buy a developer a beer!
