                               Psi4 1.3.2 release

  ==> Input File <==

--------------------------------------------------------------------------
#psi4
#
memory 32 gb

molecule  {
-1 1
  O       -1.6024110     1.2883820    -0.5634480
  O        2.0191420    -1.7287390     0.1939930
  O        3.3803020    -0.0587520    -0.5397320
  N       -0.1147610    -0.2476350     0.2334190
  C        1.0875530     0.4615680    -0.1724770
  C        1.3782960     1.6508690     0.7367710
  C       -2.4731170    -0.8032840     0.3122730
  C       -1.3649450     0.1785500    -0.0525630
  C        2.3632387    -0.5832229    -0.1663452
  C       -3.8468580    -0.3344400    -0.1480570
  H        0.9550610     0.8289670    -1.1997950
  H        0.0672430    -1.2232590     0.4643770
  H        1.5293690     1.3045580     1.7644240
  H        2.2851470     2.1591780     0.4026320
  H        0.5420990     2.3541860     0.7225810
  H       -2.2325720    -1.7800520    -0.1237300
  H       -2.4588320    -0.9441430     1.3993390
  H       -4.0995650     0.6270340     0.3028840
  H       -3.8738130    -0.2132220    -1.2332140
  H       -4.6116960    -1.0622230     0.1365660
units angstrom
no_reorient  #important for SAPT in psi4, default
symmetry c1  #important for SAPT in psi4, default
}

set PROPERTIES_ORIGIN ["COM"]
properties('MP2/aug-cc-pvtz', properties = ['dipole'])
--------------------------------------------------------------------------

    Molecular point group: c1
  Charge       = -1
  Multiplicity = 1
  Basis Set: AUG-CC-PVTZ
    Blend: AUG-CC-PVTZ
  Basis Set: (AUG-CC-PVTZ AUX)
    Blend: AUG-CC-PVTZ-JKFIT

    Orbital Energies [Eh]
    ---------------------

    Doubly Occupied:

       1A    -20.386681     2A    -20.325032     3A    -20.323280
       4A    -15.432031     5A    -11.218356     6A    -11.162674
       7A    -11.131982     8A    -11.121716     9A    -11.101484
      10A    -11.068598    11A     -1.236462    12A     -1.216150
      13A     -1.123521    14A     -1.079594    15A     -0.945193
      16A     -0.866025    17A     -0.779324    18A     -0.703996
      19A     -0.631901    20A     -0.578733    21A     -0.537274
      22A     -0.529437    23A     -0.506469    24A     -0.482431
      25A     -0.461579    26A     -0.440467    27A     -0.433574
      28A     -0.419232    29A     -0.412820    30A     -0.406549
      31A     -0.393736    32A     -0.378382    33A     -0.370313
      34A     -0.345784    35A     -0.296030    36A     -0.256747
      37A     -0.246793    38A     -0.230174    39A     -0.201230

  @DF-RHF Final Energy:  -512.33338733034930

   => Energetics <=

    Nuclear Repulsion Energy =            532.9005348973814762
    One-Electron Energy =               -1770.9043366133807922
    Two-Electron Energy =                 725.6704143856500195
    Total Energy =                       -512.3333873303492965
  Basis Set: (AUG-CC-PVTZ AUX)
    Blend: AUG-CC-PVTZ-RI
    Molecular point group: c1

    Geometry (in Angstrom), charge = -1, multiplicity = 1:

       Center              X                  Y                   Z               Mass
    ------------   -----------------  -----------------  -----------------  -----------------
         O           -1.691714238759     1.306035723566    -0.546081856446    15.994914619570
         O            1.929838761241    -1.711085276434     0.211359143554    15.994914619570
         O            3.290998761241    -0.041098276434    -0.522365856446    15.994914619570
         N           -0.204064238759    -0.229981276434     0.250785143554    14.003074004430
         C            0.998249761241     0.479221723566    -0.155110856446    12.000000000000
         C            1.288992761241     1.668522723566     0.754137143554    12.000000000000
         C           -2.562420238759    -0.785630276434     0.329639143554    12.000000000000
         C           -1.454248238759     0.196203723566    -0.035196856446    12.000000000000
         C            2.273935461241    -0.565569176434    -0.148979056446    12.000000000000
         C           -3.936161238759    -0.316786276434    -0.130690856446    12.000000000000
         H            0.865757761241     0.846620723566    -1.182428856446     1.007825032230
         H           -0.022060238759    -1.205605276434     0.481743143554     1.007825032230
         H            1.440065761241     1.322211723566     1.781790143554     1.007825032230
         H            2.195843761241     2.176831723566     0.419998143554     1.007825032230
         H            0.452795761241     2.371839723566     0.739947143554     1.007825032230
         H           -2.321875238759    -1.762398276434    -0.106363856446     1.007825032230
         H           -2.548135238759    -0.926489276434     1.416705143554     1.007825032230
         H           -4.188868238759     0.644687723566     0.320250143554     1.007825032230
         H           -3.963116238759    -0.195568276434    -1.215847856446     1.007825032230
         H           -4.700999238759    -1.044569276434     0.153932143554     1.007825032230

  Basis Set: AUG-CC-PVTZ
    Blend: AUG-CC-PVTZ
  Basis Set: (AUG-CC-PVTZ AUX)
    Blend: AUG-CC-PVTZ-JKFIT
	 Reference Energy          =    -512.3333873303492965 [Eh]
	 Singles Energy            =      -0.0000000000000000 [Eh]
	 Same-Spin Energy          =      -0.5191793764976640 [Eh]
	 Opposite-Spin Energy      =      -1.6187875543003902 [Eh]
	 Correlation Energy        =      -2.1379669307980542 [Eh]
	 Total Energy              =    -514.4713542611473258 [Eh]

	 ================> DF-SCS-MP2 Energies <==================
	-----------------------------------------------------------
	 SCS Same-Spin Scale       =       0.3333333333333333 [-]
	 SCS Opposite-Spin Scale   =       1.2000000000000000 [-]
	 SCS Same-Spin Energy      =      -0.1730597921658880 [Eh]
	 SCS Opposite-Spin Energy  =      -1.9425450651604681 [Eh]
	 SCS Correlation Energy    =      -2.1156048573263559 [Eh]
	 SCS Total Energy          =    -514.4489921876756853 [Eh]
	-----------------------------------------------------------

  Dipole Moment: [D]
     X:    -7.9517      Y:     0.3344      Z:     1.4949     Total:     8.0979

*** Psi4 exiting successfully. Buy a developer a beer!
