                               Psi4 1.3.2 release

  ==> Input File <==

--------------------------------------------------------------------------
#psi4
#
memory 32 gb

molecule  {
-1 1
  O       -1.6024110     1.2883820    -0.5634480
  O        2.0191420    -1.7287390     0.1939930
  O        3.3502598    -0.0005381    -0.5480298
  N       -0.1147610    -0.2476350     0.2334190
  C        1.1388712     0.5190521    -0.1983308
  C        1.3782960     1.6508690     0.7367710
  C       -2.4731170    -0.8032840     0.3122730
  C       -1.3649450     0.1785500    -0.0525630
  C        2.2731730    -0.5407160    -0.1753640
  C       -3.8468580    -0.3344400    -0.1480570
  H        0.9550610     0.8289670    -1.1997950
  H        0.0672430    -1.2232590     0.4643770
  H        1.5293690     1.3045580     1.7644240
  H        2.2851470     2.1591780     0.4026320
  H        0.5420990     2.3541860     0.7225810
  H       -2.2325720    -1.7800520    -0.1237300
  H       -2.4588320    -0.9441430     1.3993390
  H       -4.0995650     0.6270340     0.3028840
  H       -3.8738130    -0.2132220    -1.2332140
  H       -4.6116960    -1.0622230     0.1365660
units angstrom
no_reorient  #important for SAPT in psi4, default
symmetry c1  #important for SAPT in psi4, default
}

set PROPERTIES_ORIGIN ["COM"]
properties('MP2/aug-cc-pvtz', properties = ['dipole'])
--------------------------------------------------------------------------

    Molecular point group: c1
  Charge       = -1
  Multiplicity = 1
  Basis Set: AUG-CC-PVTZ
    Blend: AUG-CC-PVTZ
  Basis Set: (AUG-CC-PVTZ AUX)
    Blend: AUG-CC-PVTZ-JKFIT

    Orbital Energies [Eh]
    ---------------------

    Doubly Occupied:

       1A    -20.386182     2A    -20.328474     3A    -20.316056
       4A    -15.430897     5A    -11.217485     6A    -11.164956
       7A    -11.131533     8A    -11.121587     9A    -11.114775
      10A    -11.074857    11A     -1.235291    12A     -1.192394
      13A     -1.098129    14A     -1.069473    15A     -0.945140
      16A     -0.884861    17A     -0.778850    18A     -0.718289
      19A     -0.633615    20A     -0.581801    21A     -0.537700
      22A     -0.529428    23A     -0.509131    24A     -0.479849
      25A     -0.466821    26A     -0.437807    27A     -0.425512
      28A     -0.418602    29A     -0.413935    30A     -0.409540
      31A     -0.393072    32A     -0.372699    33A     -0.362934
      34A     -0.348977    35A     -0.294097    36A     -0.257180
      37A     -0.242886    38A     -0.222451    39A     -0.217561

  @DF-RHF Final Energy:  -512.32875734771881

   => Energetics <=

    Nuclear Repulsion Energy =            533.0761946468340966
    One-Electron Energy =               -1771.2802495006988011
    Two-Electron Energy =                 725.8752975061460120
    Total Energy =                       -512.3287573477188062
  Basis Set: (AUG-CC-PVTZ AUX)
    Blend: AUG-CC-PVTZ-RI
    Molecular point group: c1

    Geometry (in Angstrom), charge = -1, multiplicity = 1:

       Center              X                  Y                   Z               Mass
    ------------   -----------------  -----------------  -----------------  -----------------
         O           -1.685151330255     1.291243771603    -0.542255877091    15.994914619570
         O            1.936401669745    -1.725877228397     0.215185122909    15.994914619570
         O            3.267519469745     0.002323671603    -0.526837677091    15.994914619570
         N           -0.197501330255    -0.244773228397     0.254611122909    14.003074004430
         C            1.056130869745     0.521913871603    -0.177138677091    12.000000000000
         C            1.295555669745     1.653730771603     0.757963122909    12.000000000000
         C           -2.555857330255    -0.800422228397     0.333465122909    12.000000000000
         C           -1.447685330255     0.181411771603    -0.031370877091    12.000000000000
         C            2.190432669745    -0.537854228397    -0.154171877091    12.000000000000
         C           -3.929598330255    -0.331578228397    -0.126864877091    12.000000000000
         H            0.872320669745     0.831828771603    -1.178602877091     1.007825032230
         H           -0.015497330255    -1.220397228397     0.485569122909     1.007825032230
         H            1.446628669745     1.307419771603     1.785616122909     1.007825032230
         H            2.202406669745     2.162039771603     0.423824122909     1.007825032230
         H            0.459358669745     2.357047771603     0.743773122909     1.007825032230
         H           -2.315312330255    -1.777190228397    -0.102537877091     1.007825032230
         H           -2.541572330255    -0.941281228397     1.420531122909     1.007825032230
         H           -4.182305330255     0.629895771603     0.324076122909     1.007825032230
         H           -3.956553330255    -0.210360228397    -1.212021877091     1.007825032230
         H           -4.694436330255    -1.059361228397     0.157758122909     1.007825032230

  Basis Set: AUG-CC-PVTZ
    Blend: AUG-CC-PVTZ
  Basis Set: (AUG-CC-PVTZ AUX)
    Blend: AUG-CC-PVTZ-JKFIT
	 Reference Energy          =    -512.3287573477188062 [Eh]
	 Singles Energy            =      -0.0000000000000000 [Eh]
	 Same-Spin Energy          =      -0.5203263462689507 [Eh]
	 Opposite-Spin Energy      =      -1.6221331241671744 [Eh]
	 Correlation Energy        =      -2.1424594704361253 [Eh]
	 Total Energy              =    -514.4712168181549714 [Eh]

	 ================> DF-SCS-MP2 Energies <==================
	-----------------------------------------------------------
	 SCS Same-Spin Scale       =       0.3333333333333333 [-]
	 SCS Opposite-Spin Scale   =       1.2000000000000000 [-]
	 SCS Same-Spin Energy      =      -0.1734421154229835 [Eh]
	 SCS Opposite-Spin Energy  =      -1.9465597490006092 [Eh]
	 SCS Correlation Energy    =      -2.1200018644235930 [Eh]
	 SCS Total Energy          =    -514.4487592121423631 [Eh]
	-----------------------------------------------------------

  Dipole Moment: [D]
     X:    -8.2589      Y:     0.5868      Z:     1.5871     Total:     8.4305

*** Psi4 exiting successfully. Buy a developer a beer!
