                               Psi4 1.3.2 release

  ==> Input File <==

--------------------------------------------------------------------------
#psi4
#
memory 32 gb

molecule  {
-1 1
  O       -1.6024110     1.2883820    -0.5634480
  O        2.0191420    -1.7287390     0.1939930
  O        3.3803020    -0.0587520    -0.5397320
  N       -0.1147610    -0.2476350     0.2334190
  C        1.0875530     0.4615680    -0.1724770
  C        1.3782960     1.6508690     0.7367710
  C       -2.4731170    -0.8032840     0.3122730
  C       -1.4376195     0.1141608    -0.0286369
  C        2.2731730    -0.5407160    -0.1753640
  C       -3.8468580    -0.3344400    -0.1480570
  H        0.9550610     0.8289670    -1.1997950
  H        0.0672430    -1.2232590     0.4643770
  H        1.5293690     1.3045580     1.7644240
  H        2.2851470     2.1591780     0.4026320
  H        0.5420990     2.3541860     0.7225810
  H       -2.2325720    -1.7800520    -0.1237300
  H       -2.4588320    -0.9441430     1.3993390
  H       -4.0995650     0.6270340     0.3028840
  H       -3.8738130    -0.2132220    -1.2332140
  H       -4.6116960    -1.0622230     0.1365660
units angstrom
no_reorient  #important for SAPT in psi4, default
symmetry c1  #important for SAPT in psi4, default
}

set PROPERTIES_ORIGIN ["COM"]
properties('MP2/aug-cc-pvtz', properties = ['dipole'])
--------------------------------------------------------------------------

    Molecular point group: c1
  Charge       = -1
  Multiplicity = 1
  Basis Set: AUG-CC-PVTZ
    Blend: AUG-CC-PVTZ
  Basis Set: (AUG-CC-PVTZ AUX)
    Blend: AUG-CC-PVTZ-JKFIT

    Orbital Energies [Eh]
    ---------------------

    Doubly Occupied:

       1A    -20.389096     2A    -20.319639     3A    -20.312006
       4A    -15.436690     5A    -11.231251     6A    -11.160035
       7A    -11.140394     8A    -11.130392     9A    -11.113391
      10A    -11.072583    11A     -1.212296    12A     -1.187496
      13A     -1.090199    14A     -1.067266    15A     -0.971006
      16A     -0.875046    17A     -0.800614    18A     -0.718073
      19A     -0.631525    20A     -0.589845    21A     -0.547400
      22A     -0.542665    23A     -0.507591    24A     -0.474800
      25A     -0.462368    26A     -0.436779    27A     -0.429948
      28A     -0.421435    29A     -0.410810    30A     -0.401810
      31A     -0.394556    32A     -0.370274    33A     -0.363815
      34A     -0.334643    35A     -0.301968    36A     -0.249088
      37A     -0.234038    38A     -0.221099    39A     -0.212863

  @DF-RHF Final Energy:  -512.31448554037956

   => Energetics <=

    Nuclear Repulsion Energy =            532.6258417843225743
    One-Electron Energy =               -1770.3470665141755944
    Two-Electron Energy =                 725.4067391894734556
    Total Energy =                       -512.3144855403795646
  Basis Set: (AUG-CC-PVTZ AUX)
    Blend: AUG-CC-PVTZ-RI
    Molecular point group: c1

    Geometry (in Angstrom), charge = -1, multiplicity = 1:

       Center              X                  Y                   Z               Mass
    ------------   -----------------  -----------------  -----------------  -----------------
         O           -1.678158774765     1.307858412304    -0.547323561743    15.994914619570
         O            1.943394225235    -1.709262587696     0.210117438257    15.994914619570
         O            3.304554225235    -0.039275587696    -0.523607561743    15.994914619570
         N           -0.190508774765    -0.228158587696     0.249543438257    14.003074004430
         C            1.011805225235     0.481044412304    -0.156352561743    12.000000000000
         C            1.302548225235     1.670345412304     0.752895438257    12.000000000000
         C           -2.548864774765    -0.783807587696     0.328397438257    12.000000000000
         C           -1.513367274765     0.133637212304    -0.012512461743    12.000000000000
         C            2.197425225235    -0.521239587696    -0.159239561743    12.000000000000
         C           -3.922605774765    -0.314963587696    -0.131932561743    12.000000000000
         H            0.879313225235     0.848443412304    -1.183670561743     1.007825032230
         H           -0.008504774765    -1.203782587696     0.480501438257     1.007825032230
         H            1.453621225235     1.324034412304     1.780548438257     1.007825032230
         H            2.209399225235     2.178654412304     0.418756438257     1.007825032230
         H            0.466351225235     2.373662412304     0.738705438257     1.007825032230
         H           -2.308319774765    -1.760575587696    -0.107605561743     1.007825032230
         H           -2.534579774765    -0.924666587696     1.415463438257     1.007825032230
         H           -4.175312774765     0.646510412304     0.319008438257     1.007825032230
         H           -3.949560774765    -0.193745587696    -1.217089561743     1.007825032230
         H           -4.687443774765    -1.042746587696     0.152690438257     1.007825032230

  Basis Set: AUG-CC-PVTZ
    Blend: AUG-CC-PVTZ
  Basis Set: (AUG-CC-PVTZ AUX)
    Blend: AUG-CC-PVTZ-JKFIT
	 Reference Energy          =    -512.3144855403795646 [Eh]
	 Singles Energy            =      -0.0000000000000000 [Eh]
	 Same-Spin Energy          =      -0.5223783373706382 [Eh]
	 Opposite-Spin Energy      =      -1.6256117395712943 [Eh]
	 Correlation Energy        =      -2.1479900769419324 [Eh]
	 Total Energy              =    -514.4624756173215019 [Eh]

	 ================> DF-SCS-MP2 Energies <==================
	-----------------------------------------------------------
	 SCS Same-Spin Scale       =       0.3333333333333333 [-]
	 SCS Opposite-Spin Scale   =       1.2000000000000000 [-]
	 SCS Same-Spin Energy      =      -0.1741261124568794 [Eh]
	 SCS Opposite-Spin Energy  =      -1.9507340874855532 [Eh]
	 SCS Correlation Energy    =      -2.1248601999424328 [Eh]
	 SCS Total Energy          =    -514.4393457403219827 [Eh]
	-----------------------------------------------------------

  Dipole Moment: [D]
     X:    -9.1174      Y:     0.3233      Z:     1.7008     Total:     9.2803

*** Psi4 exiting successfully. Buy a developer a beer!
