                               Psi4 1.3.2 release

  ==> Input File <==

--------------------------------------------------------------------------
#psi4
#
memory 32 gb

molecule  {
-1 1
  O       -1.6024110     1.2883820    -0.5634480
  O        2.0191420    -1.7287390     0.1939930
  O        3.3803020    -0.0587520    -0.5397320
  N       -0.1147610    -0.2476350     0.2334190
  C        1.0875530     0.4615680    -0.1724770
  C        1.3782960     1.6508690     0.7367710
  C       -2.4731170    -0.8032840     0.3122730
  C       -1.3777853     0.1976484    -0.0391973
  C        2.2731730    -0.5407160    -0.1753640
  C       -3.8468580    -0.3344400    -0.1480570
  H        0.9550610     0.8289670    -1.1997950
  H        0.0672430    -1.2232590     0.4643770
  H        1.5293690     1.3045580     1.7644240
  H        2.2851470     2.1591780     0.4026320
  H        0.5420990     2.3541860     0.7225810
  H       -2.2486945    -1.7871643    -0.1162714
  H       -2.4588320    -0.9441430     1.3993390
  H       -4.0995650     0.6270340     0.3028840
  H       -3.8738130    -0.2132220    -1.2332140
  H       -4.6116960    -1.0622230     0.1365660
units angstrom
no_reorient  #important for SAPT in psi4, default
symmetry c1  #important for SAPT in psi4, default
}

set PROPERTIES_ORIGIN ["COM"]
properties('MP2/aug-cc-pvtz', properties = ['dipole'])
--------------------------------------------------------------------------

    Molecular point group: c1
  Charge       = -1
  Multiplicity = 1
  Basis Set: AUG-CC-PVTZ
    Blend: AUG-CC-PVTZ
  Basis Set: (AUG-CC-PVTZ AUX)
    Blend: AUG-CC-PVTZ-JKFIT

    Orbital Energies [Eh]
    ---------------------

    Doubly Occupied:

       1A    -20.395778     2A    -20.321142     3A    -20.312771
       4A    -15.434780     5A    -11.224644     6A    -11.160832
       7A    -11.135421     8A    -11.124627     9A    -11.113116
      10A    -11.074848    11A     -1.250663    12A     -1.189578
      13A     -1.094208    14A     -1.078040    15A     -0.949911
      16A     -0.876100    17A     -0.783401    18A     -0.719003
      19A     -0.637560    20A     -0.588992    21A     -0.541972
      22A     -0.532556    23A     -0.512202    24A     -0.485831
      25A     -0.464712    26A     -0.438124    27A     -0.425278
      28A     -0.420032    29A     -0.414599    30A     -0.403222
      31A     -0.396939    32A     -0.376844    33A     -0.369516
      34A     -0.341825    35A     -0.301863    36A     -0.254969
      37A     -0.235778    38A     -0.221961    39A     -0.214460

  @DF-RHF Final Energy:  -512.33575167345771

   => Energetics <=

    Nuclear Repulsion Energy =            533.3407115607034257
    One-Electron Energy =               -1771.7167277811954591
    Two-Electron Energy =                 726.0402645470344396
    Total Energy =                       -512.3357516734577075
  Basis Set: (AUG-CC-PVTZ AUX)
    Blend: AUG-CC-PVTZ-RI
    Molecular point group: c1

    Geometry (in Angstrom), charge = -1, multiplicity = 1:

       Center              X                  Y                   Z               Mass
    ------------   -----------------  -----------------  -----------------  -----------------
         O           -1.683029885290     1.300954057528    -0.546496109188    15.994914619570
         O            1.938523114710    -1.716166942472     0.210944890812    15.994914619570
         O            3.299683114710    -0.046179942472    -0.522780109188    15.994914619570
         N           -0.195379885290    -0.235062942472     0.250370890812    14.003074004430
         C            1.006934114710     0.474140057528    -0.155525109188    12.000000000000
         C            1.297677114710     1.663441057528     0.753722890812    12.000000000000
         C           -2.553735885290    -0.790711942472     0.329224890812    12.000000000000
         C           -1.458404185290     0.210220457528    -0.022245409188    12.000000000000
         C            2.192554114710    -0.528143942472    -0.158412109188    12.000000000000
         C           -3.927476885290    -0.321867942472    -0.131105109188    12.000000000000
         H            0.874442114710     0.841539057528    -1.182843109188     1.007825032230
         H           -0.013375885290    -1.210686942472     0.481328890812     1.007825032230
         H            1.448750114710     1.317130057528     1.781375890812     1.007825032230
         H            2.204528114710     2.171750057528     0.419583890812     1.007825032230
         H            0.461480114710     2.366758057528     0.739532890812     1.007825032230
         H           -2.329313385290    -1.774592242472    -0.099319509188     1.007825032230
         H           -2.539450885290    -0.931570942472     1.416290890812     1.007825032230
         H           -4.180183885290     0.639606057528     0.319835890812     1.007825032230
         H           -3.954431885290    -0.200649942472    -1.216262109188     1.007825032230
         H           -4.692314885290    -1.049650942472     0.153517890812     1.007825032230

  Basis Set: AUG-CC-PVTZ
    Blend: AUG-CC-PVTZ
  Basis Set: (AUG-CC-PVTZ AUX)
    Blend: AUG-CC-PVTZ-JKFIT
	 Reference Energy          =    -512.3357516734577075 [Eh]
	 Singles Energy            =      -0.0000000000000000 [Eh]
	 Same-Spin Energy          =      -0.5199951714532836 [Eh]
	 Opposite-Spin Energy      =      -1.6210043664364768 [Eh]
	 Correlation Energy        =      -2.1409995378897602 [Eh]
	 Total Energy              =    -514.4767512113475050 [Eh]

	 ================> DF-SCS-MP2 Energies <==================
	-----------------------------------------------------------
	 SCS Same-Spin Scale       =       0.3333333333333333 [-]
	 SCS Opposite-Spin Scale   =       1.2000000000000000 [-]
	 SCS Same-Spin Energy      =      -0.1733317238177612 [Eh]
	 SCS Opposite-Spin Energy  =      -1.9452052397237720 [Eh]
	 SCS Correlation Energy    =      -2.1185369635415334 [Eh]
	 SCS Total Energy          =    -514.4542886369991948 [Eh]
	-----------------------------------------------------------

  Dipole Moment: [D]
     X:    -8.7290      Y:     0.7414      Z:     1.5494     Total:     8.8964

*** Psi4 exiting successfully. Buy a developer a beer!
