                               Psi4 1.4a3.dev225

  ==> Input File <==

--------------------------------------------------------------------------
#psi4
#
memory 32 gb

molecule  {
-1 1
  O       -1.5868420     1.2523650    -0.8113290
  O        2.0299390    -1.6922460     0.2543140
  O        3.4074630     0.0142020    -0.3584910
  N       -0.1383540    -0.2870410     0.0455440
  C        1.0782140     0.4735880    -0.1782270
  C        1.2275190     1.6106150     0.8299030
  C       -2.4816390    -0.8906360    -0.1487800
  C       -1.3815480     0.1310558    -0.3373932
  C        2.2855270    -0.4976230    -0.0923730
  C       -3.7126180    -0.2515540     0.4884160
  H        1.0494870     0.8996880    -1.1894520
  H        0.0515970    -1.2513350     0.3145600
  H        1.2660770     1.2028380     1.8451460
  H        2.1536960     2.1558630     0.6353850
  H        0.3800930     2.2967220     0.7589720
  H       -2.7387560    -1.2794370    -1.1416750
  H       -2.1327770    -1.7398080     0.4477120
  H       -3.4838230     0.1112750     1.4946450
  H       -4.0489630     0.5957980    -0.1116680
  H       -4.5299760    -0.9736440     0.5641870
units angstrom
no_reorient  #important for SAPT in psi4, default
symmetry c1  #important for SAPT in psi4, default
}

set PROPERTIES_ORIGIN ["COM"]
properties('MP2/aug-cc-pvtz', properties = ['dipole'])
--------------------------------------------------------------------------

    Molecular point group: c1
  Charge       = -1
  Multiplicity = 1
  Basis Set: AUG-CC-PVTZ
    Blend: AUG-CC-PVTZ
  Basis Set: (AUG-CC-PVTZ AUX)
    Blend: AUG-CC-PVTZ-JKFIT

    Orbital Energies [Eh]
    ---------------------

    Doubly Occupied:

       1A    -20.391539     2A    -20.321914     3A    -20.313655
       4A    -15.438685     5A    -11.223724     6A    -11.161599
       7A    -11.134962     8A    -11.128159     9A    -11.113657
      10A    -11.076256    11A     -1.246672    12A     -1.190260
      13A     -1.095134    14A     -1.078697    15A     -0.952312
      16A     -0.876571    17A     -0.784687    18A     -0.722493
      19A     -0.640206    20A     -0.588731    21A     -0.547466
      22A     -0.523676    23A     -0.512855    24A     -0.486726
      25A     -0.462096    26A     -0.444098    27A     -0.434454
      28A     -0.419127    29A     -0.413223    30A     -0.405009
      31A     -0.395619    32A     -0.376406    33A     -0.368705
      34A     -0.341302    35A     -0.299557    36A     -0.256335
      37A     -0.236801    38A     -0.222275    39A     -0.214882

  @DF-RHF Final Energy:  -512.33616892532962

   => Energetics <=

    Nuclear Repulsion Energy =            534.2367689730129996
    One-Electron Energy =               -1773.4648299321686409
    Two-Electron Energy =                 726.8918920338261387
    Total Energy =                       -512.3361689253296163
  Basis Set: (AUG-CC-PVTZ AUX)
    Blend: AUG-CC-PVTZ-RI
    Molecular point group: c1

    Geometry (in Angstrom), charge = -1, multiplicity = 1:

       Center              X                  Y                   Z               Mass
    ------------   -----------------  -----------------  -----------------  -----------------
         O           -1.668123810295     1.265477424372    -0.786194606792    15.994914619570
         O            1.948657189705    -1.679133575628     0.279448393208    15.994914619570
         O            3.326181189705     0.027314424372    -0.333356606792    15.994914619570
         N           -0.219635810295    -0.273928575628     0.070678393208    14.003074004430
         C            0.996932189705     0.486700424372    -0.153092606792    12.000000000000
         C            1.146237189705     1.623727424372     0.855037393208    12.000000000000
         C           -2.562920810295    -0.877523575628    -0.123645606792    12.000000000000
         C           -1.462829810295     0.144168224372    -0.312258806792    12.000000000000
         C            2.204245189705    -0.484510575628    -0.067238606792    12.000000000000
         C           -3.793899810295    -0.238441575628     0.513550393208    12.000000000000
         H            0.968205189705     0.912800424372    -1.164317606792     1.007825032230
         H           -0.029684810295    -1.238222575628     0.339694393208     1.007825032230
         H            1.184795189705     1.215950424372     1.870280393208     1.007825032230
         H            2.072414189705     2.168975424372     0.660519393208     1.007825032230
         H            0.298811189705     2.309834424372     0.784106393208     1.007825032230
         H           -2.820037810295    -1.266324575628    -1.116540606792     1.007825032230
         H           -2.214058810295    -1.726695575628     0.472846393208     1.007825032230
         H           -3.565104810295     0.124387424372     1.519779393208     1.007825032230
         H           -4.130244810295     0.608910424372    -0.086533606792     1.007825032230
         H           -4.611257810295    -0.960531575628     0.589321393208     1.007825032230

  Basis Set: AUG-CC-PVTZ
    Blend: AUG-CC-PVTZ
  Basis Set: (AUG-CC-PVTZ AUX)
    Blend: AUG-CC-PVTZ-JKFIT
	 Reference Energy          =    -512.3361689253296163 [Eh]
	 Singles Energy            =      -0.0000000000000000 [Eh]
	 Same-Spin Energy          =      -0.5203495690651938 [Eh]
	 Opposite-Spin Energy      =      -1.6215992670744976 [Eh]
	 Correlation Energy        =      -2.1419488361396914 [Eh]
	 Total Energy              =    -514.4781177614693206 [Eh]

	 ================> DF-SCS-MP2 Energies <==================
	-----------------------------------------------------------
	 SCS Same-Spin Scale       =       0.3333333333333333 [-]
	 SCS Opposite-Spin Scale   =       1.2000000000000000 [-]
	 SCS Same-Spin Energy      =      -0.1734498563550646 [Eh]
	 SCS Opposite-Spin Energy  =      -1.9459191204893971 [Eh]
	 SCS Correlation Energy    =      -2.1193689768444615 [Eh]
	 SCS Total Energy          =    -514.4555379021741146 [Eh]
	-----------------------------------------------------------

  Dipole Moment: [D]
     X:    -8.8222      Y:     0.4410      Z:     1.1681     Total:     8.9101

*** Psi4 exiting successfully. Buy a developer a beer!
