                               Psi4 1.3.2 release

  ==> Input File <==

--------------------------------------------------------------------------
#psi4
#
memory 32 gb

molecule  {
-1 1
  O       -1.6024110     1.2883820    -0.5634480
  O        2.0191420    -1.7287390     0.1939930
  O        3.3803020    -0.0587520    -0.5397320
  N       -0.1131200    -0.2557868     0.2238384
  C        1.0875530     0.4615680    -0.1724770
  C        1.3891252     1.6536622     0.7295573
  C       -2.4731170    -0.8032840     0.3122730
  C       -1.3649450     0.1785500    -0.0525630
  C        2.2731730    -0.5407160    -0.1753640
  C       -3.8468580    -0.3344400    -0.1480570
  H        0.9550610     0.8289670    -1.1997950
  H        0.0672430    -1.2232590     0.4643770
  H        1.5293690     1.3045580     1.7644240
  H        2.2851470     2.1591780     0.4026320
  H        0.5420990     2.3541860     0.7225810
  H       -2.2325720    -1.7800520    -0.1237300
  H       -2.4588320    -0.9441430     1.3993390
  H       -4.0995650     0.6270340     0.3028840
  H       -3.8738130    -0.2132220    -1.2332140
  H       -4.6116960    -1.0622230     0.1365660
units angstrom
no_reorient  #important for SAPT in psi4, default
symmetry c1  #important for SAPT in psi4, default
}

set PROPERTIES_ORIGIN ["COM"]
properties('MP2/aug-cc-pvtz', properties = ['dipole'])
--------------------------------------------------------------------------

    Molecular point group: c1
  Charge       = -1
  Multiplicity = 1
  Basis Set: AUG-CC-PVTZ
    Blend: AUG-CC-PVTZ
  Basis Set: (AUG-CC-PVTZ AUX)
    Blend: AUG-CC-PVTZ-JKFIT

    Orbital Energies [Eh]
    ---------------------

    Doubly Occupied:

       1A    -20.392187     2A    -20.321871     3A    -20.313402
       4A    -15.437886     5A    -11.224043     6A    -11.161479
       7A    -11.135416     8A    -11.124407     9A    -11.114601
      10A    -11.075978    11A     -1.241644    12A     -1.190302
      13A     -1.096592    14A     -1.080962    15A     -0.949333
      16A     -0.878467    17A     -0.784373    18A     -0.720752
      19A     -0.640872    20A     -0.588629    21A     -0.541809
      22A     -0.532961    23A     -0.511231    24A     -0.483341
      25A     -0.465478    26A     -0.438303    27A     -0.425974
      28A     -0.419354    29A     -0.413599    30A     -0.404018
      31A     -0.396978    32A     -0.378111    33A     -0.368699
      34A     -0.340852    35A     -0.299743    36A     -0.257053
      37A     -0.236584    38A     -0.222640    39A     -0.215180

  @DF-RHF Final Energy:  -512.33589595495494

   => Energetics <=

    Nuclear Repulsion Energy =            533.3707667882596297
    One-Electron Energy =               -1771.7631167067499973
    Two-Electron Energy =                 726.0564539635353185
    Total Energy =                       -512.3358959549549354
  Basis Set: (AUG-CC-PVTZ AUX)
    Blend: AUG-CC-PVTZ-RI
    Molecular point group: c1

    Geometry (in Angstrom), charge = -1, multiplicity = 1:

       Center              X                  Y                   Z               Mass
    ------------   -----------------  -----------------  -----------------  -----------------
         O           -1.685273728740     1.303054793034    -0.543798543970    15.994914619570
         O            1.936279271260    -1.714066206966     0.213642456030    15.994914619570
         O            3.297439271260    -0.044079206966    -0.520082543970    15.994914619570
         N           -0.195982728740    -0.241114006966     0.243487856030    14.003074004430
         C            1.004690271260     0.476240793034    -0.152827543970    12.000000000000
         C            1.306262471260     1.668334993034     0.749206756030    12.000000000000
         C           -2.555979728740    -0.788611206966     0.331922456030    12.000000000000
         C           -1.447807728740     0.193222793034    -0.032913543970    12.000000000000
         C            2.190310271260    -0.526043206966    -0.155714543970    12.000000000000
         C           -3.929720728740    -0.319767206966    -0.128407543970    12.000000000000
         H            0.872198271260     0.843639793034    -1.180145543970     1.007825032230
         H           -0.015619728740    -1.208586206966     0.484026456030     1.007825032230
         H            1.446506271260     1.319230793034     1.784073456030     1.007825032230
         H            2.202284271260     2.173850793034     0.422281456030     1.007825032230
         H            0.459236271260     2.368858793034     0.742230456030     1.007825032230
         H           -2.315434728740    -1.765379206966    -0.104080543970     1.007825032230
         H           -2.541694728740    -0.929470206966     1.418988456030     1.007825032230
         H           -4.182427728740     0.641706793034     0.322533456030     1.007825032230
         H           -3.956675728740    -0.198549206966    -1.213564543970     1.007825032230
         H           -4.694558728740    -1.047550206966     0.156215456030     1.007825032230

  Basis Set: AUG-CC-PVTZ
    Blend: AUG-CC-PVTZ
  Basis Set: (AUG-CC-PVTZ AUX)
    Blend: AUG-CC-PVTZ-JKFIT
	 Reference Energy          =    -512.3358959549549354 [Eh]
	 Singles Energy            =      -0.0000000000000000 [Eh]
	 Same-Spin Energy          =      -0.5200977086918253 [Eh]
	 Opposite-Spin Energy      =      -1.6212242973771012 [Eh]
	 Correlation Energy        =      -2.1413220060689264 [Eh]
	 Total Energy              =    -514.4772179610238254 [Eh]

	 ================> DF-SCS-MP2 Energies <==================
	-----------------------------------------------------------
	 SCS Same-Spin Scale       =       0.3333333333333333 [-]
	 SCS Opposite-Spin Scale   =       1.2000000000000000 [-]
	 SCS Same-Spin Energy      =      -0.1733659028972751 [Eh]
	 SCS Opposite-Spin Energy  =      -1.9454691568525213 [Eh]
	 SCS Correlation Energy    =      -2.1188350597497965 [Eh]
	 SCS Total Energy          =    -514.4547310147047483 [Eh]
	-----------------------------------------------------------

  Dipole Moment: [D]
     X:    -8.6953      Y:     0.6407      Z:     1.6045     Total:     8.8653

*** Psi4 exiting successfully. Buy a developer a beer!
