                               Psi4 1.4a3.dev225

  ==> Input File <==

--------------------------------------------------------------------------
#psi4
#
memory 32 gb

molecule  {
-1 1
  O       -1.5868420     1.2523650    -0.8113290
  O        2.0299390    -1.6922460     0.2543140
  O        3.4074630     0.0142020    -0.3584910
  N       -0.1383540    -0.2870410     0.0455440
  C        1.1201032     0.4997782    -0.1859319
  C        1.2275190     1.6106150     0.8299030
  C       -2.4816390    -0.8906360    -0.1487800
  C       -1.3641120     0.1217370    -0.3343690
  C        2.2855270    -0.4976230    -0.0923730
  C       -3.7126180    -0.2515540     0.4884160
  H        1.0494870     0.8996880    -1.1894520
  H        0.0515970    -1.2513350     0.3145600
  H        1.2660770     1.2028380     1.8451460
  H        2.1536960     2.1558630     0.6353850
  H        0.3800930     2.2967220     0.7589720
  H       -2.7387560    -1.2794370    -1.1416750
  H       -2.1327770    -1.7398080     0.4477120
  H       -3.4838230     0.1112750     1.4946450
  H       -4.0489630     0.5957980    -0.1116680
  H       -4.5299760    -0.9736440     0.5641870
units angstrom
no_reorient  #important for SAPT in psi4, default
symmetry c1  #important for SAPT in psi4, default
}

set PROPERTIES_ORIGIN ["COM"]
properties('MP2/aug-cc-pvtz', properties = ['dipole'])
--------------------------------------------------------------------------

    Molecular point group: c1
  Charge       = -1
  Multiplicity = 1
  Basis Set: AUG-CC-PVTZ
    Blend: AUG-CC-PVTZ
  Basis Set: (AUG-CC-PVTZ AUX)
    Blend: AUG-CC-PVTZ-JKFIT

    Orbital Energies [Eh]
    ---------------------

    Doubly Occupied:

       1A    -20.384752     2A    -20.324570     3A    -20.315018
       4A    -15.439371     5A    -11.219820     6A    -11.163286
       7A    -11.132859     8A    -11.126132     9A    -11.118336
      10A    -11.078726    11A     -1.235313    12A     -1.192607
      13A     -1.095076    14A     -1.076615    15A     -0.948465
      16A     -0.884570    17A     -0.781588    18A     -0.725708
      19A     -0.640396    20A     -0.586013    21A     -0.543863
      22A     -0.523232    23A     -0.512036    24A     -0.481856
      25A     -0.464885    26A     -0.441865    27A     -0.435053
      28A     -0.419461    29A     -0.411134    30A     -0.409916
      31A     -0.394496    32A     -0.372827    33A     -0.367244
      34A     -0.344651    35A     -0.294202    36A     -0.258766
      37A     -0.239798    38A     -0.225415    39A     -0.217060

  @DF-RHF Final Energy:  -512.33452420659751

   => Energetics <=

    Nuclear Repulsion Energy =            533.8896286847328838
    One-Electron Energy =               -1772.7943449268736913
    Two-Electron Energy =                 726.5701920355431866
    Total Energy =                       -512.3345242065975071
  Basis Set: (AUG-CC-PVTZ AUX)
    Blend: AUG-CC-PVTZ-RI
    Molecular point group: c1

    Geometry (in Angstrom), charge = -1, multiplicity = 1:

       Center              X                  Y                   Z               Mass
    ------------   -----------------  -----------------  -----------------  -----------------
         O           -1.673065309768     1.264072119135    -0.785804727338    15.994914619570
         O            1.943715690232    -1.680538880865     0.279838272662    15.994914619570
         O            3.321239690232     0.025909119135    -0.332966727338    15.994914619570
         N           -0.224577309768    -0.275333880865     0.071068272662    14.003074004430
         C            1.033879890232     0.511485319135    -0.160407627338    12.000000000000
         C            1.141295690232     1.622322119135     0.855427272662    12.000000000000
         C           -2.567862309768    -0.878928880865    -0.123255727338    12.000000000000
         C           -1.450335309768     0.133444119135    -0.308844727338    12.000000000000
         C            2.199303690232    -0.485915880865    -0.066848727338    12.000000000000
         C           -3.798841309768    -0.239846880865     0.513940272662    12.000000000000
         H            0.963263690232     0.911395119135    -1.163927727338     1.007825032230
         H           -0.034626309768    -1.239627880865     0.340084272662     1.007825032230
         H            1.179853690232     1.214545119135     1.870670272662     1.007825032230
         H            2.067472690232     2.167570119135     0.660909272662     1.007825032230
         H            0.293869690232     2.308429119135     0.784496272662     1.007825032230
         H           -2.824979309768    -1.267729880865    -1.116150727338     1.007825032230
         H           -2.219000309768    -1.728100880865     0.473236272662     1.007825032230
         H           -3.570046309768     0.122982119135     1.520169272662     1.007825032230
         H           -4.135186309768     0.607505119135    -0.086143727338     1.007825032230
         H           -4.616199309768    -0.961936880865     0.589711272662     1.007825032230

  Basis Set: AUG-CC-PVTZ
    Blend: AUG-CC-PVTZ
  Basis Set: (AUG-CC-PVTZ AUX)
    Blend: AUG-CC-PVTZ-JKFIT
	 Reference Energy          =    -512.3345242065975071 [Eh]
	 Singles Energy            =      -0.0000000000000000 [Eh]
	 Same-Spin Energy          =      -0.5203021293336050 [Eh]
	 Opposite-Spin Energy      =      -1.6219961720072158 [Eh]
	 Correlation Energy        =      -2.1422983013408210 [Eh]
	 Total Energy              =    -514.4768225079383228 [Eh]

	 ================> DF-SCS-MP2 Energies <==================
	-----------------------------------------------------------
	 SCS Same-Spin Scale       =       0.3333333333333333 [-]
	 SCS Opposite-Spin Scale   =       1.2000000000000000 [-]
	 SCS Same-Spin Energy      =      -0.1734340431112016 [Eh]
	 SCS Opposite-Spin Energy  =      -1.9463954064086588 [Eh]
	 SCS Correlation Energy    =      -2.1198294495198606 [Eh]
	 SCS Total Energy          =    -514.4543536561174051 [Eh]
	-----------------------------------------------------------

  Dipole Moment: [D]
     X:    -8.4893      Y:     0.4511      Z:     1.2401     Total:     8.5913

*** Psi4 exiting successfully. Buy a developer a beer!
