                               Psi4 1.3.2 release

  ==> Input File <==

--------------------------------------------------------------------------
#psi4
#
memory 32 gb

molecule  {
-1 1
  O       -1.5881121     1.3208852    -0.5512344
  O        2.0191420    -1.7287390     0.1939930
  O        3.3803020    -0.0587520    -0.5397320
  N       -0.1147610    -0.2476350     0.2334190
  C        1.0793573     0.4517947    -0.1770447
  C        1.3782960     1.6508690     0.7367710
  C       -2.4731170    -0.8032840     0.3122730
  C       -1.3649450     0.1785500    -0.0525630
  C        2.2731730    -0.5407160    -0.1753640
  C       -3.8468580    -0.3344400    -0.1480570
  H        0.9550610     0.8289670    -1.1997950
  H        0.0672430    -1.2232590     0.4643770
  H        1.5293690     1.3045580     1.7644240
  H        2.2851470     2.1591780     0.4026320
  H        0.5420990     2.3541860     0.7225810
  H       -2.2325720    -1.7800520    -0.1237300
  H       -2.4588320    -0.9441430     1.3993390
  H       -4.0995650     0.6270340     0.3028840
  H       -3.8738130    -0.2132220    -1.2332140
  H       -4.6116960    -1.0622230     0.1365660
units angstrom
no_reorient  #important for SAPT in psi4, default
symmetry c1  #important for SAPT in psi4, default
}

set PROPERTIES_ORIGIN ["COM"]
properties('MP2/aug-cc-pvtz', properties = ['dipole'])
--------------------------------------------------------------------------

    Molecular point group: c1
  Charge       = -1
  Multiplicity = 1
  Basis Set: AUG-CC-PVTZ
    Blend: AUG-CC-PVTZ
  Basis Set: (AUG-CC-PVTZ AUX)
    Blend: AUG-CC-PVTZ-JKFIT

    Orbital Energies [Eh]
    ---------------------

    Doubly Occupied:

       1A    -20.391476     2A    -20.322349     3A    -20.313939
       4A    -15.441138     5A    -11.227692     6A    -11.162046
       7A    -11.138406     8A    -11.125591     9A    -11.114446
      10A    -11.075094    11A     -1.230305    12A     -1.190472
      13A     -1.097560    14A     -1.082006    15A     -0.951363
      16A     -0.876648    17A     -0.785412    18A     -0.721802
      19A     -0.641687    20A     -0.589419    21A     -0.542302
      22A     -0.533787    23A     -0.511172    24A     -0.479811
      25A     -0.464713    26A     -0.437130    27A     -0.426515
      28A     -0.418912    29A     -0.413604    30A     -0.402540
      31A     -0.397335    32A     -0.374515    33A     -0.369507
      34A     -0.339407    35A     -0.299846    36A     -0.256550
      37A     -0.237042    38A     -0.223175    39A     -0.215737

  @DF-RHF Final Energy:  -512.33275546939785

   => Energetics <=

    Nuclear Repulsion Energy =            532.9145119095811651
    One-Electron Energy =               -1770.8496247499467700
    Two-Electron Energy =                 725.6023573709676384
    Total Energy =                       -512.3327554693978527
  Basis Set: (AUG-CC-PVTZ AUX)
    Blend: AUG-CC-PVTZ-RI
    Molecular point group: c1

    Geometry (in Angstrom), charge = -1, multiplicity = 1:

       Center              X                  Y                   Z               Mass
    ------------   -----------------  -----------------  -----------------  -----------------
         O           -1.670818177281     1.332203711394    -0.534092580533    15.994914619570
         O            1.936435922719    -1.717420488606     0.211134819467    15.994914619570
         O            3.297595922719    -0.047433488606    -0.522590180533    15.994914619570
         N           -0.197467077281    -0.236316488606     0.250560819467    14.003074004430
         C            0.996651222719     0.463113211394    -0.159902880533    12.000000000000
         C            1.295589922719     1.662187511394     0.753912819467    12.000000000000
         C           -2.555823077281    -0.791965488606     0.329414819467    12.000000000000
         C           -1.447651077281     0.189868511394    -0.035421180533    12.000000000000
         C            2.190466922719    -0.529397488606    -0.158222180533    12.000000000000
         C           -3.929564077281    -0.323121488606    -0.130915180533    12.000000000000
         H            0.872354922719     0.840285511394    -1.182653180533     1.007825032230
         H           -0.015463077281    -1.211940488606     0.481518819467     1.007825032230
         H            1.446662922719     1.315876511394     1.781565819467     1.007825032230
         H            2.202440922719     2.170496511394     0.419773819467     1.007825032230
         H            0.459392922719     2.365504511394     0.739722819467     1.007825032230
         H           -2.315278077281    -1.768733488606    -0.106588180533     1.007825032230
         H           -2.541538077281    -0.932824488606     1.416480819467     1.007825032230
         H           -4.182271077281     0.638352511394     0.320025819467     1.007825032230
         H           -3.956519077281    -0.201903488606    -1.216072180533     1.007825032230
         H           -4.694402077281    -1.050904488606     0.153707819467     1.007825032230

  Basis Set: AUG-CC-PVTZ
    Blend: AUG-CC-PVTZ
  Basis Set: (AUG-CC-PVTZ AUX)
    Blend: AUG-CC-PVTZ-JKFIT
	 Reference Energy          =    -512.3327554693978527 [Eh]
	 Singles Energy            =      -0.0000000000000000 [Eh]
	 Same-Spin Energy          =      -0.5206677601373930 [Eh]
	 Opposite-Spin Energy      =      -1.6225639355138135 [Eh]
	 Correlation Energy        =      -2.1432316956512065 [Eh]
	 Total Energy              =    -514.4759871650491050 [Eh]

	 ================> DF-SCS-MP2 Energies <==================
	-----------------------------------------------------------
	 SCS Same-Spin Scale       =       0.3333333333333333 [-]
	 SCS Opposite-Spin Scale   =       1.2000000000000000 [-]
	 SCS Same-Spin Energy      =      -0.1735559200457977 [Eh]
	 SCS Opposite-Spin Energy  =      -1.9470767226165762 [Eh]
	 SCS Correlation Energy    =      -2.1206326426623736 [Eh]
	 SCS Total Energy          =    -514.4533881120602246 [Eh]
	-----------------------------------------------------------

  Dipole Moment: [D]
     X:    -8.7147      Y:     0.4892      Z:     1.6100     Total:     8.8756

*** Psi4 exiting successfully. Buy a developer a beer!
