                               Psi4 1.3.2 release

  ==> Input File <==

--------------------------------------------------------------------------
#psi4
#
memory 32 gb

molecule  {
-1 1
  O       -1.6024110     1.2883820    -0.5634480
  O        2.0191420    -1.7287390     0.1939930
  O        3.3803020    -0.0587520    -0.5397320
  N       -0.1147610    -0.2476350     0.2334190
  C        1.0875530     0.4615680    -0.1724770
  C        1.3782960     1.6508690     0.7367710
  C       -2.4731170    -0.8032840     0.3122730
  C       -1.3649450     0.1785500    -0.0525630
  C        2.2731730    -0.5407160    -0.1753640
  C       -3.8468580    -0.3344400    -0.1480570
  H        0.9550610     0.8289670    -1.1997950
  H        0.1029660    -1.4147503     0.5097085
  H        1.5293690     1.3045580     1.7644240
  H        2.2851470     2.1591780     0.4026320
  H        0.5420990     2.3541860     0.7225810
  H       -2.2325720    -1.7800520    -0.1237300
  H       -2.4588320    -0.9441430     1.3993390
  H       -4.0995650     0.6270340     0.3028840
  H       -3.8738130    -0.2132220    -1.2332140
  H       -4.6116960    -1.0622230     0.1365660
units angstrom
no_reorient  #important for SAPT in psi4, default
symmetry c1  #important for SAPT in psi4, default
}

set PROPERTIES_ORIGIN ["COM"]
properties('MP2/aug-cc-pvtz', properties = ['dipole'])
--------------------------------------------------------------------------

    Molecular point group: c1
  Charge       = -1
  Multiplicity = 1
  Basis Set: AUG-CC-PVTZ
    Blend: AUG-CC-PVTZ
  Basis Set: (AUG-CC-PVTZ AUX)
    Blend: AUG-CC-PVTZ-JKFIT

    Orbital Energies [Eh]
    ---------------------

    Doubly Occupied:

       1A    -20.387596     2A    -20.327351     3A    -20.316046
       4A    -15.445645     5A    -11.218980     6A    -11.164238
       7A    -11.132302     8A    -11.122000     9A    -11.114490
      10A    -11.075044    11A     -1.236777    12A     -1.193340
      13A     -1.094536    14A     -1.067803    15A     -0.946314
      16A     -0.874784    17A     -0.779584    18A     -0.719326
      19A     -0.611400    20A     -0.573326    21A     -0.540503
      22A     -0.529803    23A     -0.508046    24A     -0.480080
      25A     -0.461930    26A     -0.432662    27A     -0.422676
      28A     -0.418420    29A     -0.411705    30A     -0.402550
      31A     -0.395185    32A     -0.372767    33A     -0.361465
      34A     -0.341384    35A     -0.295571    36A     -0.252221
      37A     -0.238626    38A     -0.224991    39A     -0.217904

  @DF-RHF Final Energy:  -512.30718081656573

   => Energetics <=

    Nuclear Repulsion Energy =            532.4233452624191614
    One-Electron Energy =               -1770.0423035549431461
    Two-Electron Energy =                 725.3117774759582517
    Total Energy =                       -512.3071808165657330
  Basis Set: (AUG-CC-PVTZ AUX)
    Blend: AUG-CC-PVTZ-RI
    Molecular point group: c1

    Geometry (in Angstrom), charge = -1, multiplicity = 1:

       Center              X                  Y                   Z               Mass
    ------------   -----------------  -----------------  -----------------  -----------------
         O           -1.684462108681     1.303834698173    -0.545647754368    15.994914619570
         O            1.937090891319    -1.713286301827     0.211793245632    15.994914619570
         O            3.298250891319    -0.043299301827    -0.521931754368    15.994914619570
         N           -0.196812108681    -0.232182301827     0.251219245632    14.003074004430
         C            1.005501891319     0.477020698173    -0.154676754368    12.000000000000
         C            1.296244891319     1.666321698173     0.754571245632    12.000000000000
         C           -2.555168108681    -0.787831301827     0.330073245632    12.000000000000
         C           -1.446996108681     0.194002698173    -0.034762754368    12.000000000000
         C            2.191121891319    -0.525263301827    -0.157563754368    12.000000000000
         C           -3.928909108681    -0.318987301827    -0.130256754368    12.000000000000
         H            0.873009891319     0.844419698173    -1.181994754368     1.007825032230
         H            0.020914891319    -1.399297601827     0.527508745632     1.007825032230
         H            1.447317891319     1.320010698173     1.782224245632     1.007825032230
         H            2.203095891319     2.174630698173     0.420432245632     1.007825032230
         H            0.460047891319     2.369638698173     0.740381245632     1.007825032230
         H           -2.314623108681    -1.764599301827    -0.105929754368     1.007825032230
         H           -2.540883108681    -0.928690301827     1.417139245632     1.007825032230
         H           -4.181616108681     0.642486698173     0.320684245632     1.007825032230
         H           -3.955864108681    -0.197769301827    -1.215413754368     1.007825032230
         H           -4.693747108681    -1.046770301827     0.154366245632     1.007825032230

  Basis Set: AUG-CC-PVTZ
    Blend: AUG-CC-PVTZ
  Basis Set: (AUG-CC-PVTZ AUX)
    Blend: AUG-CC-PVTZ-JKFIT
	 Reference Energy          =    -512.3071808165657330 [Eh]
	 Singles Energy            =      -0.0000000000000000 [Eh]
	 Same-Spin Energy          =      -0.5227180013506326 [Eh]
	 Opposite-Spin Energy      =      -1.6262726875324898 [Eh]
	 Correlation Energy        =      -2.1489906888831225 [Eh]
	 Total Energy              =    -514.4561715054488786 [Eh]

	 ================> DF-SCS-MP2 Energies <==================
	-----------------------------------------------------------
	 SCS Same-Spin Scale       =       0.3333333333333333 [-]
	 SCS Opposite-Spin Scale   =       1.2000000000000000 [-]
	 SCS Same-Spin Energy      =      -0.1742393337835442 [Eh]
	 SCS Opposite-Spin Energy  =      -1.9515272250389877 [Eh]
	 SCS Correlation Energy    =      -2.1257665588225318 [Eh]
	 SCS Total Energy          =    -514.4329473753882667 [Eh]
	-----------------------------------------------------------

  Dipole Moment: [D]
     X:    -8.2720      Y:     0.3733      Z:     1.6277     Total:     8.4388

*** Psi4 exiting successfully. Buy a developer a beer!
