                               Psi4 1.3.2 release

  ==> Input File <==

--------------------------------------------------------------------------
#psi4
#
memory 32 gb

molecule  {
-1 1
  O       -1.6024110     1.2883820    -0.5634480
  O        2.0191420    -1.7287390     0.1939930
  O        3.3803020    -0.0587520    -0.5397320
  N       -0.1147610    -0.2476350     0.2334190
  C        1.0659315     0.4560574    -0.1579658
  C        1.3782960     1.6508690     0.7367710
  C       -2.4731170    -0.8032840     0.3122730
  C       -1.3649450     0.1785500    -0.0525630
  C        2.2731730    -0.5407160    -0.1753640
  C       -3.8468580    -0.3344400    -0.1480570
  H        0.9550610     0.8289670    -1.1997950
  H        0.0672430    -1.2232590     0.4643770
  H        1.5293690     1.3045580     1.7644240
  H        2.2831695     2.1717020     0.4168608
  H        0.5420990     2.3541860     0.7225810
  H       -2.2325720    -1.7800520    -0.1237300
  H       -2.4588320    -0.9441430     1.3993390
  H       -4.0995650     0.6270340     0.3028840
  H       -3.8738130    -0.2132220    -1.2332140
  H       -4.6116960    -1.0622230     0.1365660
units angstrom
no_reorient  #important for SAPT in psi4, default
symmetry c1  #important for SAPT in psi4, default
}

set PROPERTIES_ORIGIN ["COM"]
properties('MP2/aug-cc-pvtz', properties = ['dipole'])
--------------------------------------------------------------------------

    Molecular point group: c1
  Charge       = -1
  Multiplicity = 1
  Basis Set: AUG-CC-PVTZ
    Blend: AUG-CC-PVTZ
  Basis Set: (AUG-CC-PVTZ AUX)
    Blend: AUG-CC-PVTZ-JKFIT

    Orbital Energies [Eh]
    ---------------------

    Doubly Occupied:

       1A    -20.393025     2A    -20.321818     3A    -20.313757
       4A    -15.439260     5A    -11.224748     6A    -11.162084
       7A    -11.136168     8A    -11.124908     9A    -11.113838
      10A    -11.074799    11A     -1.243212    12A     -1.189911
      13A     -1.099726    14A     -1.083078    15A     -0.950335
      16A     -0.877121    17A     -0.785505    18A     -0.720212
      19A     -0.640557    20A     -0.590016    21A     -0.544124
      22A     -0.533411    23A     -0.510741    24A     -0.484033
      25A     -0.466305    26A     -0.438277    27A     -0.426041
      28A     -0.419529    29A     -0.413995    30A     -0.401320
      31A     -0.397391    32A     -0.378644    33A     -0.369280
      34A     -0.339989    35A     -0.300734    36A     -0.256762
      37A     -0.236053    38A     -0.221389    39A     -0.215175

  @DF-RHF Final Energy:  -512.33494235804233

   => Energetics <=

    Nuclear Repulsion Energy =            533.6127249811370348
    One-Electron Energy =               -1772.2207914531641109
    Two-Electron Energy =                 726.2731241139847498
    Total Energy =                       -512.3349423580423263
  Basis Set: (AUG-CC-PVTZ AUX)
    Blend: AUG-CC-PVTZ-RI
    Molecular point group: c1

    Geometry (in Angstrom), charge = -1, multiplicity = 1:

       Center              X                  Y                   Z               Mass
    ------------   -----------------  -----------------  -----------------  -----------------
         O           -1.682397406621     1.302866499845    -0.546638885188    15.994914619570
         O            1.939155593379    -1.714254500155     0.210802114812    15.994914619570
         O            3.300315593379    -0.044267500155    -0.522922885188    15.994914619570
         N           -0.194747406621    -0.233150500155     0.250228114812    14.003074004430
         C            0.985945093379     0.470541899845    -0.141156685188    12.000000000000
         C            1.298309593379     1.665353499845     0.753580114812    12.000000000000
         C           -2.553103406621    -0.788799500155     0.329082114812    12.000000000000
         C           -1.444931406621     0.193034499845    -0.035753885188    12.000000000000
         C            2.193186593379    -0.526231500155    -0.158554885188    12.000000000000
         C           -3.926844406621    -0.319955500155    -0.131247885188    12.000000000000
         H            0.875074593379     0.843451499845    -1.182985885188     1.007825032230
         H           -0.012743406621    -1.208774500155     0.481186114812     1.007825032230
         H            1.449382593379     1.319042499845     1.781233114812     1.007825032230
         H            2.203183093379     2.186186499845     0.433669914812     1.007825032230
         H            0.462112593379     2.368670499845     0.739390114812     1.007825032230
         H           -2.312558406621    -1.765567500155    -0.106920885188     1.007825032230
         H           -2.538818406621    -0.929658500155     1.416148114812     1.007825032230
         H           -4.179551406621     0.641518499845     0.319693114812     1.007825032230
         H           -3.953799406621    -0.198737500155    -1.216404885188     1.007825032230
         H           -4.691682406621    -1.047738500155     0.153375114812     1.007825032230

  Basis Set: AUG-CC-PVTZ
    Blend: AUG-CC-PVTZ
  Basis Set: (AUG-CC-PVTZ AUX)
    Blend: AUG-CC-PVTZ-JKFIT
	 Reference Energy          =    -512.3349423580423263 [Eh]
	 Singles Energy            =      -0.0000000000000000 [Eh]
	 Same-Spin Energy          =      -0.5203502266168788 [Eh]
	 Opposite-Spin Energy      =      -1.6214081930084334 [Eh]
	 Correlation Energy        =      -2.1417584196253121 [Eh]
	 Total Energy              =    -514.4767007776675882 [Eh]

	 ================> DF-SCS-MP2 Energies <==================
	-----------------------------------------------------------
	 SCS Same-Spin Scale       =       0.3333333333333333 [-]
	 SCS Opposite-Spin Scale   =       1.2000000000000000 [-]
	 SCS Same-Spin Energy      =      -0.1734500755389596 [Eh]
	 SCS Opposite-Spin Energy  =      -1.9456898316101201 [Eh]
	 SCS Correlation Energy    =      -2.1191399071490795 [Eh]
	 SCS Total Energy          =    -514.4540822651914596 [Eh]
	-----------------------------------------------------------

  Dipole Moment: [D]
     X:    -8.7517      Y:     0.5996      Z:     1.6218     Total:     8.9209

*** Psi4 exiting successfully. Buy a developer a beer!
