                               Psi4 1.4a3.dev225

  ==> Input File <==

--------------------------------------------------------------------------
#psi4
#
memory 32 gb

molecule  {
-1 1
  O       -1.5868420     1.2523650    -0.8113290
  O        2.0299390    -1.6922460     0.2543140
  O        3.4074630     0.0142020    -0.3584910
  N       -0.1383540    -0.2870410     0.0455440
  C        1.0782140     0.4735880    -0.1782270
  C        1.2275190     1.6106150     0.8299030
  C       -2.4816390    -0.8906360    -0.1487800
  C       -1.3273338     0.1550545    -0.3404768
  C        2.2855270    -0.4976230    -0.0923730
  C       -3.7126180    -0.2515540     0.4884160
  H        1.0494870     0.8996880    -1.1894520
  H        0.0515970    -1.2513350     0.3145600
  H        1.2660770     1.2028380     1.8451460
  H        2.1536960     2.1558630     0.6353850
  H        0.3800930     2.2967220     0.7589720
  H       -2.7387560    -1.2794370    -1.1416750
  H       -2.1327770    -1.7398080     0.4477120
  H       -3.4838230     0.1112750     1.4946450
  H       -4.0489630     0.5957980    -0.1116680
  H       -4.5299760    -0.9736440     0.5641870
units angstrom
no_reorient  #important for SAPT in psi4, default
symmetry c1  #important for SAPT in psi4, default
}

set PROPERTIES_ORIGIN ["COM"]
properties('MP2/aug-cc-pvtz', properties = ['dipole'])
--------------------------------------------------------------------------

    Molecular point group: c1
  Charge       = -1
  Multiplicity = 1
  Basis Set: AUG-CC-PVTZ
    Blend: AUG-CC-PVTZ
  Basis Set: (AUG-CC-PVTZ AUX)
    Blend: AUG-CC-PVTZ-JKFIT

    Orbital Energies [Eh]
    ---------------------

    Doubly Occupied:

       1A    -20.389601     2A    -20.324720     3A    -20.315776
       4A    -15.442857     5A    -11.219625     6A    -11.163966
       7A    -11.130829     8A    -11.124002     9A    -11.116225
      10A    -11.078949    11A     -1.253633    12A     -1.192946
      13A     -1.104759    14A     -1.086978    15A     -0.941267
      16A     -0.881278    17A     -0.776440    18A     -0.725699
      19A     -0.649016    20A     -0.587969    21A     -0.544281
      22A     -0.518996    23A     -0.516519    24A     -0.489030
      25A     -0.466118    26A     -0.443904    27A     -0.433619
      28A     -0.419131    29A     -0.411486    30A     -0.407166
      31A     -0.394203    32A     -0.379782    33A     -0.370876
      34A     -0.344066    35A     -0.291660    36A     -0.262764
      37A     -0.239671    38A     -0.224562    39A     -0.217674

  @DF-RHF Final Energy:  -512.33706971128504

   => Energetics <=

    Nuclear Repulsion Energy =            534.7589962901256513
    One-Electron Energy =               -1774.4280466533487015
    Two-Electron Energy =                 727.3319806519380109
    Total Energy =                       -512.3370697112850394
  Basis Set: (AUG-CC-PVTZ AUX)
    Blend: AUG-CC-PVTZ-RI
    Molecular point group: c1

    Geometry (in Angstrom), charge = -1, multiplicity = 1:

       Center              X                  Y                   Z               Mass
    ------------   -----------------  -----------------  -----------------  -----------------
         O           -1.672639588426     1.263478449848    -0.785937757969    15.994914619570
         O            1.944141411574    -1.681132550152     0.279705242031    15.994914619570
         O            3.321665411574     0.025315449848    -0.333099757969    15.994914619570
         N           -0.224151588426    -0.275927550152     0.070935242031    14.003074004430
         C            0.992416411574     0.484701449848    -0.152835757969    12.000000000000
         C            1.141721411574     1.621728449848     0.855294242031    12.000000000000
         C           -2.567436588426    -0.879522550152    -0.123388757969    12.000000000000
         C           -1.413131388426     0.166167949848    -0.315085557969    12.000000000000
         C            2.199729411574    -0.486509550152    -0.066981757969    12.000000000000
         C           -3.798415588426    -0.240440550152     0.513807242031    12.000000000000
         H            0.963689411574     0.910801449848    -1.164060757969     1.007825032230
         H           -0.034200588426    -1.240221550152     0.339951242031     1.007825032230
         H            1.180279411574     1.213951449848     1.870537242031     1.007825032230
         H            2.067898411574     2.166976449848     0.660776242031     1.007825032230
         H            0.294295411574     2.307835449848     0.784363242031     1.007825032230
         H           -2.824553588426    -1.268323550152    -1.116283757969     1.007825032230
         H           -2.218574588426    -1.728694550152     0.473103242031     1.007825032230
         H           -3.569620588426     0.122388449848     1.520036242031     1.007825032230
         H           -4.134760588426     0.606911449848    -0.086276757969     1.007825032230
         H           -4.615773588426    -0.962530550152     0.589578242031     1.007825032230

  Basis Set: AUG-CC-PVTZ
    Blend: AUG-CC-PVTZ
  Basis Set: (AUG-CC-PVTZ AUX)
    Blend: AUG-CC-PVTZ-JKFIT
	 Reference Energy          =    -512.3370697112850394 [Eh]
	 Singles Energy            =      -0.0000000000000000 [Eh]
	 Same-Spin Energy          =      -0.5197492554322006 [Eh]
	 Opposite-Spin Energy      =      -1.6204586312700890 [Eh]
	 Correlation Energy        =      -2.1402078867022896 [Eh]
	 Total Energy              =    -514.4772775979873813 [Eh]

	 ================> DF-SCS-MP2 Energies <==================
	-----------------------------------------------------------
	 SCS Same-Spin Scale       =       0.3333333333333333 [-]
	 SCS Opposite-Spin Scale   =       1.2000000000000000 [-]
	 SCS Same-Spin Energy      =      -0.1732497518107335 [Eh]
	 SCS Opposite-Spin Energy  =      -1.9445503575241068 [Eh]
	 SCS Correlation Energy    =      -2.1178001093348402 [Eh]
	 SCS Total Energy          =    -514.4548698206199333 [Eh]
	-----------------------------------------------------------

  Dipole Moment: [D]
     X:    -8.4183      Y:     0.5549      Z:     1.1894     Total:     8.5200

*** Psi4 exiting successfully. Buy a developer a beer!
