                               Psi4 1.3.2 release

  ==> Input File <==

--------------------------------------------------------------------------
#psi4
#
memory 32 gb

molecule  {
-1 1
  O       -1.6024110     1.2883820    -0.5634480
  O        2.0191420    -1.7287390     0.1939930
  O        3.3803020    -0.0587520    -0.5397320
  N       -0.1147610    -0.2476350     0.2334190
  C        1.0875530     0.4615680    -0.1724770
  C        1.3782960     1.6508690     0.7367710
  C       -2.4731170    -0.8032840     0.3122730
  C       -1.3649450     0.1785500    -0.0525630
  C        2.2747394    -0.5387332    -0.1886744
  C       -3.8468580    -0.3344400    -0.1480570
  H        0.9623881     0.8234799    -1.2026575
  H        0.0672430    -1.2232590     0.4643770
  H        1.5293690     1.3045580     1.7644240
  H        2.2851470     2.1591780     0.4026320
  H        0.5420990     2.3541860     0.7225810
  H       -2.2325720    -1.7800520    -0.1237300
  H       -2.4588320    -0.9441430     1.3993390
  H       -4.0995650     0.6270340     0.3028840
  H       -3.8738130    -0.2132220    -1.2332140
  H       -4.6116960    -1.0622230     0.1365660
units angstrom
no_reorient  #important for SAPT in psi4, default
symmetry c1  #important for SAPT in psi4, default
}

set PROPERTIES_ORIGIN ["COM"]
properties('MP2/aug-cc-pvtz', properties = ['dipole'])
--------------------------------------------------------------------------

    Molecular point group: c1
  Charge       = -1
  Multiplicity = 1
  Basis Set: AUG-CC-PVTZ
    Blend: AUG-CC-PVTZ
  Basis Set: (AUG-CC-PVTZ AUX)
    Blend: AUG-CC-PVTZ-JKFIT

    Orbital Energies [Eh]
    ---------------------

    Doubly Occupied:

       1A    -20.391588     2A    -20.320633     3A    -20.315284
       4A    -15.437792     5A    -11.223433     6A    -11.161835
       7A    -11.135259     8A    -11.124257     9A    -11.114657
      10A    -11.075825    11A     -1.241423    12A     -1.190400
      13A     -1.097442    14A     -1.080161    15A     -0.949175
      16A     -0.878405    17A     -0.783881    18A     -0.721202
      19A     -0.639384    20A     -0.588181    21A     -0.542169
      22A     -0.532794    23A     -0.511163    24A     -0.482761
      25A     -0.465288    26A     -0.438335    27A     -0.426017
      28A     -0.419474    29A     -0.413529    30A     -0.403797
      31A     -0.396600    32A     -0.375691    33A     -0.369971
      34A     -0.341239    35A     -0.299541    36A     -0.257048
      37A     -0.236268    38A     -0.223294    39A     -0.215841

  @DF-RHF Final Energy:  -512.33594171033155

   => Energetics <=

    Nuclear Repulsion Energy =            533.3813876995128567
    One-Electron Energy =               -1771.7925890461624476
    Two-Electron Energy =                 726.0752596363181510
    Total Energy =                       -512.3359417103315536
  Basis Set: (AUG-CC-PVTZ AUX)
    Blend: AUG-CC-PVTZ-RI
    Molecular point group: c1

    Geometry (in Angstrom), charge = -1, multiplicity = 1:

       Center              X                  Y                   Z               Mass
    ------------   -----------------  -----------------  -----------------  -----------------
         O           -1.684393936494     1.302368334223    -0.544201918286    15.994914619570
         O            1.937159063506    -1.714752665777     0.213239081714    15.994914619570
         O            3.298319063506    -0.044765665777    -0.520485918286    15.994914619570
         N           -0.196743936494    -0.233648665777     0.252665081714    14.003074004430
         C            1.005570063506     0.475554334223    -0.153230918286    12.000000000000
         C            1.296313063506     1.664855334223     0.756017081714    12.000000000000
         C           -2.555099936494    -0.789297665777     0.331519081714    12.000000000000
         C           -1.446927936494     0.192536334223    -0.033316918286    12.000000000000
         C            2.192756463506    -0.524746865777    -0.169428318286    12.000000000000
         C           -3.928840936494    -0.320453665777    -0.128810918286    12.000000000000
         H            0.880405163506     0.837466234223    -1.183411418286     1.007825032230
         H           -0.014739936494    -1.209272665777     0.483623081714     1.007825032230
         H            1.447386063506     1.318544334223     1.783670081714     1.007825032230
         H            2.203164063506     2.173164334223     0.421878081714     1.007825032230
         H            0.460116063506     2.368172334223     0.741827081714     1.007825032230
         H           -2.314554936494    -1.766065665777    -0.104483918286     1.007825032230
         H           -2.540814936494    -0.930156665777     1.418585081714     1.007825032230
         H           -4.181547936494     0.641020334223     0.322130081714     1.007825032230
         H           -3.955795936494    -0.199235665777    -1.213967918286     1.007825032230
         H           -4.693678936494    -1.048236665777     0.155812081714     1.007825032230

  Basis Set: AUG-CC-PVTZ
    Blend: AUG-CC-PVTZ
  Basis Set: (AUG-CC-PVTZ AUX)
    Blend: AUG-CC-PVTZ-JKFIT
	 Reference Energy          =    -512.3359417103315536 [Eh]
	 Singles Energy            =      -0.0000000000000000 [Eh]
	 Same-Spin Energy          =      -0.5201502008786920 [Eh]
	 Opposite-Spin Energy      =      -1.6213221481264100 [Eh]
	 Correlation Energy        =      -2.1414723490051020 [Eh]
	 Total Energy              =    -514.4774140593366383 [Eh]

	 ================> DF-SCS-MP2 Energies <==================
	-----------------------------------------------------------
	 SCS Same-Spin Scale       =       0.3333333333333333 [-]
	 SCS Opposite-Spin Scale   =       1.2000000000000000 [-]
	 SCS Same-Spin Energy      =      -0.1733834002928973 [Eh]
	 SCS Opposite-Spin Energy  =      -1.9455865777516919 [Eh]
	 SCS Correlation Energy    =      -2.1189699780445892 [Eh]
	 SCS Total Energy          =    -514.4549116883761144 [Eh]
	-----------------------------------------------------------

  Dipole Moment: [D]
     X:    -8.6404      Y:     0.6714      Z:     1.5735     Total:     8.8081

*** Psi4 exiting successfully. Buy a developer a beer!
