                               Psi4 1.3.2 release

  ==> Input File <==

--------------------------------------------------------------------------
#psi4
#
memory 32 gb

molecule  {
-1 1
  O       -1.6024110     1.2883820    -0.5634480
  O        2.0191420    -1.7287390     0.1939930
  O        3.3803020    -0.0587520    -0.5397320
  N       -0.1147610    -0.2476350     0.2334190
  C        1.0875530     0.4615680    -0.1724770
  C        1.3782960     1.6508690     0.7367710
  C       -2.4731170    -0.8032840     0.3122730
  C       -1.3649450     0.1785500    -0.0525630
  C        2.2762154    -0.5366742    -0.2019836
  C       -3.8468580    -0.3344400    -0.1480570
  H        0.9697246     0.8179653    -1.2054416
  H        0.0672430    -1.2232590     0.4643770
  H        1.5293690     1.3045580     1.7644240
  H        2.2851470     2.1591780     0.4026320
  H        0.5420990     2.3541860     0.7225810
  H       -2.2325720    -1.7800520    -0.1237300
  H       -2.4588320    -0.9441430     1.3993390
  H       -4.0995650     0.6270340     0.3028840
  H       -3.8738130    -0.2132220    -1.2332140
  H       -4.6116960    -1.0622230     0.1365660
units angstrom
no_reorient  #important for SAPT in psi4, default
symmetry c1  #important for SAPT in psi4, default
}

set PROPERTIES_ORIGIN ["COM"]
properties('MP2/aug-cc-pvtz', properties = ['dipole'])
--------------------------------------------------------------------------

    Molecular point group: c1
  Charge       = -1
  Multiplicity = 1
  Basis Set: AUG-CC-PVTZ
    Blend: AUG-CC-PVTZ
  Basis Set: (AUG-CC-PVTZ AUX)
    Blend: AUG-CC-PVTZ-JKFIT

    Orbital Energies [Eh]
    ---------------------

    Doubly Occupied:

       1A    -20.391422     2A    -20.319012     3A    -20.316853
       4A    -15.437679     5A    -11.223308     6A    -11.161790
       7A    -11.135140     8A    -11.124163     9A    -11.114646
      10A    -11.076081    11A     -1.241249    12A     -1.190641
      13A     -1.098013    14A     -1.078952    15A     -0.949046
      16A     -0.878392    17A     -0.783790    18A     -0.721466
      19A     -0.639308    20A     -0.587858    21A     -0.542293
      22A     -0.532549    23A     -0.510859    24A     -0.482636
      25A     -0.465039    26A     -0.438367    27A     -0.426174
      28A     -0.419556    29A     -0.413537    30A     -0.403781
      31A     -0.396467    32A     -0.375576    33A     -0.370042
      34A     -0.341073    35A     -0.299494    36A     -0.256967
      37A     -0.235645    38A     -0.223416    39A     -0.215979

  @DF-RHF Final Energy:  -512.33547108263974

   => Energetics <=

    Nuclear Repulsion Energy =            533.3410879342374074
    One-Electron Energy =               -1771.7166041971972845
    Two-Electron Energy =                 726.0400451803202486
    Total Energy =                       -512.3354710826397422
  Basis Set: (AUG-CC-PVTZ AUX)
    Blend: AUG-CC-PVTZ-RI
    Molecular point group: c1

    Geometry (in Angstrom), charge = -1, multiplicity = 1:

       Center              X                  Y                   Z               Mass
    ------------   -----------------  -----------------  -----------------  -----------------
         O           -1.684568203125     1.302235407376    -0.543073850534    15.994914619570
         O            1.936984796875    -1.714885592624     0.214367149466    15.994914619570
         O            3.298144796875    -0.044898592624    -0.519357850534    15.994914619570
         N           -0.196918203125    -0.233781592624     0.253793149466    14.003074004430
         C            1.005395796875     0.475421407376    -0.152102850534    12.000000000000
         C            1.296138796875     1.664722407376     0.757145149466    12.000000000000
         C           -2.555274203125    -0.789430592624     0.332647149466    12.000000000000
         C           -1.447102203125     0.192403407376    -0.032188850534    12.000000000000
         C            2.194058196875    -0.522820792624    -0.181609450534    12.000000000000
         C           -3.929015203125    -0.320586592624    -0.127682850534    12.000000000000
         H            0.887567396875     0.831818707376    -1.185067450534     1.007825032230
         H           -0.014914203125    -1.209405592624     0.484751149466     1.007825032230
         H            1.447211796875     1.318411407376     1.784798149466     1.007825032230
         H            2.202989796875     2.173031407376     0.423006149466     1.007825032230
         H            0.459941796875     2.368039407376     0.742955149466     1.007825032230
         H           -2.314729203125    -1.766198592624    -0.103355850534     1.007825032230
         H           -2.540989203125    -0.930289592624     1.419713149466     1.007825032230
         H           -4.181722203125     0.640887407376     0.323258149466     1.007825032230
         H           -3.955970203125    -0.199368592624    -1.212839850534     1.007825032230
         H           -4.693853203125    -1.048369592624     0.156940149466     1.007825032230

  Basis Set: AUG-CC-PVTZ
    Blend: AUG-CC-PVTZ
  Basis Set: (AUG-CC-PVTZ AUX)
    Blend: AUG-CC-PVTZ-JKFIT
	 Reference Energy          =    -512.3354710826397422 [Eh]
	 Singles Energy            =      -0.0000000000000000 [Eh]
	 Same-Spin Energy          =      -0.5201573804375867 [Eh]
	 Opposite-Spin Energy      =      -1.6213477143949382 [Eh]
	 Correlation Energy        =      -2.1415050948325249 [Eh]
	 Total Energy              =    -514.4769761774722383 [Eh]

	 ================> DF-SCS-MP2 Energies <==================
	-----------------------------------------------------------
	 SCS Same-Spin Scale       =       0.3333333333333333 [-]
	 SCS Opposite-Spin Scale   =       1.2000000000000000 [-]
	 SCS Same-Spin Energy      =      -0.1733857934791956 [Eh]
	 SCS Opposite-Spin Energy  =      -1.9456172572739256 [Eh]
	 SCS Correlation Energy    =      -2.1190030507531210 [Eh]
	 SCS Total Energy          =    -514.4544741333928641 [Eh]
	-----------------------------------------------------------

  Dipole Moment: [D]
     X:    -8.5968      Y:     0.7181      Z:     1.5467     Total:     8.7643

*** Psi4 exiting successfully. Buy a developer a beer!
