                               Psi4 1.3.2 release

  ==> Input File <==

--------------------------------------------------------------------------
#psi4
#
memory 32 gb

molecule  {
-1 1
  O       -1.6024110     1.2883820    -0.5634480
  O        2.0191420    -1.7287390     0.1939930
  O        3.3606062    -0.0197860    -0.5453763
  N       -0.1147610    -0.2476350     0.2334190
  C        1.1214126     0.5002059    -0.1897163
  C        1.3782960     1.6508690     0.7367710
  C       -2.4731170    -0.8032840     0.3122730
  C       -1.3649450     0.1785500    -0.0525630
  C        2.2731730    -0.5407160    -0.1753640
  C       -3.8468580    -0.3344400    -0.1480570
  H        0.9550610     0.8289670    -1.1997950
  H        0.0672430    -1.2232590     0.4643770
  H        1.5293690     1.3045580     1.7644240
  H        2.2851470     2.1591780     0.4026320
  H        0.5420990     2.3541860     0.7225810
  H       -2.2325720    -1.7800520    -0.1237300
  H       -2.4588320    -0.9441430     1.3993390
  H       -4.0995650     0.6270340     0.3028840
  H       -3.8738130    -0.2132220    -1.2332140
  H       -4.6116960    -1.0622230     0.1365660
units angstrom
no_reorient  #important for SAPT in psi4, default
symmetry c1  #important for SAPT in psi4, default
}

set PROPERTIES_ORIGIN ["COM"]
properties('MP2/aug-cc-pvtz', properties = ['dipole'])
--------------------------------------------------------------------------

    Molecular point group: c1
  Charge       = -1
  Multiplicity = 1
  Basis Set: AUG-CC-PVTZ
    Blend: AUG-CC-PVTZ
  Basis Set: (AUG-CC-PVTZ AUX)
    Blend: AUG-CC-PVTZ-JKFIT

    Orbital Energies [Eh]
    ---------------------

    Doubly Occupied:

       1A    -20.388092     2A    -20.326365     3A    -20.315164
       4A    -15.433514     5A    -11.219593     6A    -11.163801
       7A    -11.132880     8A    -11.122557     9A    -11.114458
      10A    -11.075030    11A     -1.237417    12A     -1.191602
      13A     -1.096381    14A     -1.074287    15A     -0.946551
      16A     -0.882672    17A     -0.780580    18A     -0.719026
      19A     -0.635657    20A     -0.583801    21A     -0.538013
      22A     -0.531029    23A     -0.510669    24A     -0.480734
      25A     -0.466192    26A     -0.438139    27A     -0.425386
      28A     -0.418934    29A     -0.412591    30A     -0.408835
      31A     -0.394008    32A     -0.373012    33A     -0.366705
      34A     -0.346370    35A     -0.295982    36A     -0.257605
      37A     -0.240915    38A     -0.222285    39A     -0.217422

  @DF-RHF Final Energy:  -512.33286058029989

   => Energetics <=

    Nuclear Repulsion Energy =            533.1772612272815195
    One-Electron Energy =               -1771.4517344818571019
    Two-Electron Energy =                 725.9416126742758024
    Total Energy =                       -512.3328605802998936
  Basis Set: (AUG-CC-PVTZ AUX)
    Blend: AUG-CC-PVTZ-RI
    Molecular point group: c1

    Geometry (in Angstrom), charge = -1, multiplicity = 1:

       Center              X                  Y                   Z               Mass
    ------------   -----------------  -----------------  -----------------  -----------------
         O           -1.684845821707     1.294950563381    -0.543268027334    15.994914619570
         O            1.936707178293    -1.722170436619     0.214172972666    15.994914619570
         O            3.278171378293    -0.013217436619    -0.525196327334    15.994914619570
         N           -0.197195821707    -0.241066436619     0.253598972666    14.003074004430
         C            1.038977778293     0.506774463381    -0.169536327334    12.000000000000
         C            1.295861178293     1.657437563381     0.756950972666    12.000000000000
         C           -2.555551821707    -0.796715436619     0.332452972666    12.000000000000
         C           -1.447379821707     0.185118563381    -0.032383027334    12.000000000000
         C            2.190738178293    -0.534147436619    -0.155184027334    12.000000000000
         C           -3.929292821707    -0.327871436619    -0.127877027334    12.000000000000
         H            0.872626178293     0.835535563381    -1.179615027334     1.007825032230
         H           -0.015191821707    -1.216690436619     0.484556972666     1.007825032230
         H            1.446934178293     1.311126563381     1.784603972666     1.007825032230
         H            2.202712178293     2.165746563381     0.422811972666     1.007825032230
         H            0.459664178293     2.360754563381     0.742760972666     1.007825032230
         H           -2.315006821707    -1.773483436619    -0.103550027334     1.007825032230
         H           -2.541266821707    -0.937574436619     1.419518972666     1.007825032230
         H           -4.181999821707     0.633602563381     0.323063972666     1.007825032230
         H           -3.956247821707    -0.206653436619    -1.213034027334     1.007825032230
         H           -4.694130821707    -1.055654436619     0.156745972666     1.007825032230

  Basis Set: AUG-CC-PVTZ
    Blend: AUG-CC-PVTZ
  Basis Set: (AUG-CC-PVTZ AUX)
    Blend: AUG-CC-PVTZ-JKFIT
	 Reference Energy          =    -512.3328605802998936 [Eh]
	 Singles Energy            =      -0.0000000000000000 [Eh]
	 Same-Spin Energy          =      -0.5201894722281266 [Eh]
	 Opposite-Spin Energy      =      -1.6217378635591384 [Eh]
	 Correlation Energy        =      -2.1419273357872650 [Eh]
	 Total Energy              =    -514.4747879160871662 [Eh]

	 ================> DF-SCS-MP2 Energies <==================
	-----------------------------------------------------------
	 SCS Same-Spin Scale       =       0.3333333333333333 [-]
	 SCS Opposite-Spin Scale   =       1.2000000000000000 [-]
	 SCS Same-Spin Energy      =      -0.1733964907427089 [Eh]
	 SCS Opposite-Spin Energy  =      -1.9460854362709661 [Eh]
	 SCS Correlation Energy    =      -2.1194819270136751 [Eh]
	 SCS Total Energy          =    -514.4523425073135741 [Eh]
	-----------------------------------------------------------

  Dipole Moment: [D]
     X:    -8.4086      Y:     0.5995      Z:     1.5919     Total:     8.5789

*** Psi4 exiting successfully. Buy a developer a beer!
