                               Psi4 1.3.2 release

  ==> Input File <==

--------------------------------------------------------------------------
#psi4
#
memory 32 gb

molecule  {
-1 1
  O       -1.6024110     1.2883820    -0.5634480
  O        2.0191420    -1.7287390     0.1939930
  O        3.3803020    -0.0587520    -0.5397320
  N       -0.1147610    -0.2476350     0.2334190
  C        1.1286487     0.4072369    -0.1385415
  C        1.3782960     1.6508690     0.7367710
  C       -2.4731170    -0.8032840     0.3122730
  C       -1.3900619     0.1218073    -0.0185720
  C        2.2731730    -0.5407160    -0.1753640
  C       -3.8468580    -0.3344400    -0.1480570
  H        0.9550610     0.8289670    -1.1997950
  H        0.0672430    -1.2232590     0.4643770
  H        1.5293690     1.3045580     1.7644240
  H        2.2851470     2.1591780     0.4026320
  H        0.5420990     2.3541860     0.7225810
  H       -2.2325720    -1.7800520    -0.1237300
  H       -2.4588320    -0.9441430     1.3993390
  H       -4.0995650     0.6270340     0.3028840
  H       -3.8738130    -0.2132220    -1.2332140
  H       -4.6116960    -1.0622230     0.1365660
units angstrom
no_reorient  #important for SAPT in psi4, default
symmetry c1  #important for SAPT in psi4, default
}

set PROPERTIES_ORIGIN ["COM"]
properties('MP2/aug-cc-pvtz', properties = ['dipole'])
--------------------------------------------------------------------------

    Molecular point group: c1
  Charge       = -1
  Multiplicity = 1
  Basis Set: AUG-CC-PVTZ
    Blend: AUG-CC-PVTZ
  Basis Set: (AUG-CC-PVTZ AUX)
    Blend: AUG-CC-PVTZ-JKFIT

    Orbital Energies [Eh]
    ---------------------

    Doubly Occupied:

       1A    -20.383251     2A    -20.321857     3A    -20.314341
       4A    -15.443909     5A    -11.228504     6A    -11.160456
       7A    -11.139473     8A    -11.127732     9A    -11.121609
      10A    -11.077667    11A     -1.211499    12A     -1.192111
      13A     -1.095916    14A     -1.078053    15A     -0.961477
      16A     -0.881192    17A     -0.795408    18A     -0.731451
      19A     -0.637431    20A     -0.593393    21A     -0.552918
      22A     -0.538668    23A     -0.503475    24A     -0.473535
      25A     -0.466233    26A     -0.438221    27A     -0.430246
      28A     -0.422475    29A     -0.409868    30A     -0.404437
      31A     -0.396132    32A     -0.369200    33A     -0.367609
      34A     -0.325149    35A     -0.297651    36A     -0.250618
      37A     -0.238668    38A     -0.230288    39A     -0.216009

  @DF-RHF Final Energy:  -512.31613629761046

   => Energetics <=

    Nuclear Repulsion Energy =            533.4402679355980581
    One-Electron Energy =               -1771.8565478954558330
    Two-Electron Energy =                 726.1001436622473193
    Total Energy =                       -512.3161362976104556
  Basis Set: (AUG-CC-PVTZ AUX)
    Blend: AUG-CC-PVTZ-RI
    Molecular point group: c1

    Geometry (in Angstrom), charge = -1, multiplicity = 1:

       Center              X                  Y                   Z               Mass
    ------------   -----------------  -----------------  -----------------  -----------------
         O           -1.685543161758     1.311747011522    -0.550988580207    15.994914619570
         O            1.936009838242    -1.705373988478     0.206452419793    15.994914619570
         O            3.297169838242    -0.035386988478    -0.527272580207    15.994914619570
         N           -0.197893161758    -0.224269988478     0.245878419793    14.003074004430
         C            1.045516538242     0.430601911522    -0.126082080207    12.000000000000
         C            1.295163838242     1.674234011522     0.749230419793    12.000000000000
         C           -2.556249161758    -0.779918988478     0.324732419793    12.000000000000
         C           -1.473194061758     0.145172311522    -0.006112580207    12.000000000000
         C            2.190040838242    -0.517350988478    -0.162904580207    12.000000000000
         C           -3.929990161758    -0.311074988478    -0.135597580207    12.000000000000
         H            0.871928838242     0.852332011522    -1.187335580207     1.007825032230
         H           -0.015889161758    -1.199893988478     0.476836419793     1.007825032230
         H            1.446236838242     1.327923011522     1.776883419793     1.007825032230
         H            2.202014838242     2.182543011522     0.415091419793     1.007825032230
         H            0.458966838242     2.377551011522     0.735040419793     1.007825032230
         H           -2.315704161758    -1.756686988478    -0.111270580207     1.007825032230
         H           -2.541964161758    -0.920777988478     1.411798419793     1.007825032230
         H           -4.182697161758     0.650399011522     0.315343419793     1.007825032230
         H           -3.956945161758    -0.189856988478    -1.220754580207     1.007825032230
         H           -4.694828161758    -1.038857988478     0.149025419793     1.007825032230

  Basis Set: AUG-CC-PVTZ
    Blend: AUG-CC-PVTZ
  Basis Set: (AUG-CC-PVTZ AUX)
    Blend: AUG-CC-PVTZ-JKFIT
	 Reference Energy          =    -512.3161362976104556 [Eh]
	 Singles Energy            =      -0.0000000000000000 [Eh]
	 Same-Spin Energy          =      -0.5221548812286201 [Eh]
	 Opposite-Spin Energy      =      -1.6253404549802883 [Eh]
	 Correlation Energy        =      -2.1474953362089084 [Eh]
	 Total Energy              =    -514.4636316338193183 [Eh]

	 ================> DF-SCS-MP2 Energies <==================
	-----------------------------------------------------------
	 SCS Same-Spin Scale       =       0.3333333333333333 [-]
	 SCS Opposite-Spin Scale   =       1.2000000000000000 [-]
	 SCS Same-Spin Energy      =      -0.1740516270762067 [Eh]
	 SCS Opposite-Spin Energy  =      -1.9504085459763458 [Eh]
	 SCS Correlation Energy    =      -2.1244601730525527 [Eh]
	 SCS Total Energy          =    -514.4405964706629675 [Eh]
	-----------------------------------------------------------

  Dipole Moment: [D]
     X:    -8.7434      Y:     0.3259      Z:     1.8081     Total:     8.9344

*** Psi4 exiting successfully. Buy a developer a beer!
