                               Psi4 1.3.2 release

  ==> Input File <==

--------------------------------------------------------------------------
#psi4
#
memory 32 gb

molecule  {
-1 1
  O       -1.6024110     1.2883820    -0.5634480
  O        2.0191420    -1.7287390     0.1939930
  O        3.3803020    -0.0587520    -0.5397320
  N       -0.1147610    -0.2476350     0.2334190
  C        1.0875530     0.4615680    -0.1724770
  C        1.3782960     1.6508690     0.7367710
  C       -2.4731170    -0.8032840     0.3122730
  C       -1.3909592     0.2164418    -0.0257245
  C        2.2731730    -0.5407160    -0.1753640
  C       -3.8468580    -0.3344400    -0.1480570
  H        0.9550610     0.8289670    -1.1997950
  H        0.0672430    -1.2232590     0.4643770
  H        1.5293690     1.3045580     1.7644240
  H        2.2851470     2.1591780     0.4026320
  H        0.5420990     2.3541860     0.7225810
  H       -2.2648854    -1.7939770    -0.1086822
  H       -2.4588320    -0.9441430     1.3993390
  H       -4.0995650     0.6270340     0.3028840
  H       -3.8738130    -0.2132220    -1.2332140
  H       -4.6116960    -1.0622230     0.1365660
units angstrom
no_reorient  #important for SAPT in psi4, default
symmetry c1  #important for SAPT in psi4, default
}

set PROPERTIES_ORIGIN ["COM"]
properties('MP2/aug-cc-pvtz', properties = ['dipole'])
--------------------------------------------------------------------------

    Molecular point group: c1
  Charge       = -1
  Multiplicity = 1
  Basis Set: AUG-CC-PVTZ
    Blend: AUG-CC-PVTZ
  Basis Set: (AUG-CC-PVTZ AUX)
    Blend: AUG-CC-PVTZ-JKFIT

    Orbital Energies [Eh]
    ---------------------

    Doubly Occupied:

       1A    -20.399832     2A    -20.320004     3A    -20.311804
       4A    -15.431622     5A    -11.225838     6A    -11.159743
       7A    -11.135581     8A    -11.124930     9A    -11.111534
      10A    -11.074118    11A     -1.260064    12A     -1.188535
      13A     -1.092015    14A     -1.074317    15A     -0.950593
      16A     -0.873747    17A     -0.782890    18A     -0.717035
      19A     -0.635847    20A     -0.589627    21A     -0.541615
      22A     -0.532183    23A     -0.513698    24A     -0.488081
      25A     -0.463842    26A     -0.438143    27A     -0.425432
      28A     -0.420640    29A     -0.415161    30A     -0.402506
      31A     -0.397021    32A     -0.378202    33A     -0.368831
      34A     -0.341918    35A     -0.303718    36A     -0.252520
      37A     -0.234653    38A     -0.220879    39A     -0.213319

  @DF-RHF Final Energy:  -512.33391425647267

   => Energetics <=

    Nuclear Repulsion Energy =            533.2519568537072701
    One-Electron Energy =               -1771.5476667809573428
    Two-Electron Energy =                 725.9617956707774056
    Total Energy =                       -512.3339142564726671
  Basis Set: (AUG-CC-PVTZ AUX)
    Blend: AUG-CC-PVTZ-RI
    Molecular point group: c1

    Geometry (in Angstrom), charge = -1, multiplicity = 1:

       Center              X                  Y                   Z               Mass
    ------------   -----------------  -----------------  -----------------  -----------------
         O           -1.681819299088     1.299436317833    -0.547671418460    15.994914619570
         O            1.939733700912    -1.717684682167     0.209769581540    15.994914619570
         O            3.300893700912    -0.047697682167    -0.523955418460    15.994914619570
         N           -0.194169299088    -0.236580682167     0.249195581540    14.003074004430
         C            1.008144700912     0.472622317833    -0.156700418460    12.000000000000
         C            1.298887700912     1.661923317833     0.752547581540    12.000000000000
         C           -2.552525299088    -0.792229682167     0.328049581540    12.000000000000
         C           -1.470367499088     0.227496117833    -0.009947918460    12.000000000000
         C            2.193764700912    -0.529661682167    -0.159587418460    12.000000000000
         C           -3.926266299088    -0.323385682167    -0.132280418460    12.000000000000
         H            0.875652700912     0.840021317833    -1.184018418460     1.007825032230
         H           -0.012165299088    -1.212204682167     0.480153581540     1.007825032230
         H            1.449960700912     1.315612317833     1.780200581540     1.007825032230
         H            2.205738700912     2.170232317833     0.418408581540     1.007825032230
         H            0.462690700912     2.365240317833     0.738357581540     1.007825032230
         H           -2.344293699088    -1.782922682167    -0.092905618460     1.007825032230
         H           -2.538240299088    -0.933088682167     1.415115581540     1.007825032230
         H           -4.178973299088     0.638088317833     0.318660581540     1.007825032230
         H           -3.953221299088    -0.202167682167    -1.217437418460     1.007825032230
         H           -4.691104299088    -1.051168682167     0.152342581540     1.007825032230

  Basis Set: AUG-CC-PVTZ
    Blend: AUG-CC-PVTZ
  Basis Set: (AUG-CC-PVTZ AUX)
    Blend: AUG-CC-PVTZ-JKFIT
	 Reference Energy          =    -512.3339142564726671 [Eh]
	 Singles Energy            =      -0.0000000000000000 [Eh]
	 Same-Spin Energy          =      -0.5198812554329755 [Eh]
	 Opposite-Spin Energy      =      -1.6207908577587589 [Eh]
	 Correlation Energy        =      -2.1406721131917346 [Eh]
	 Total Energy              =    -514.4745863696643937 [Eh]

	 ================> DF-SCS-MP2 Energies <==================
	-----------------------------------------------------------
	 SCS Same-Spin Scale       =       0.3333333333333333 [-]
	 SCS Opposite-Spin Scale   =       1.2000000000000000 [-]
	 SCS Same-Spin Energy      =      -0.1732937518109918 [Eh]
	 SCS Opposite-Spin Energy  =      -1.9449490293105105 [Eh]
	 SCS Correlation Energy    =      -2.1182427811215021 [Eh]
	 SCS Total Energy          =    -514.4521570375941337 [Eh]
	-----------------------------------------------------------

  Dipole Moment: [D]
     X:    -8.9565      Y:     0.7727      Z:     1.5478     Total:     9.1220

*** Psi4 exiting successfully. Buy a developer a beer!
