                               Psi4 1.3.2 release

  ==> Input File <==

--------------------------------------------------------------------------
#psi4
#
memory 32 gb

molecule  {
-1 1
  O       -1.6024110     1.2883820    -0.5634480
  O        2.0191420    -1.7287390     0.1939930
  O        3.3803020    -0.0587520    -0.5397320
  N       -0.1147610    -0.2476350     0.2334190
  C        1.0875530     0.4615680    -0.1724770
  C        1.3782960     1.6508690     0.7367710
  C       -2.4731170    -0.8032840     0.3122730
  C       -1.2922705     0.2429392    -0.0764891
  C        2.2731730    -0.5407160    -0.1753640
  C       -3.8468580    -0.3344400    -0.1480570
  H        0.9550610     0.8289670    -1.1997950
  H        0.0672430    -1.2232590     0.4643770
  H        1.5293690     1.3045580     1.7644240
  H        2.2851470     2.1591780     0.4026320
  H        0.5420990     2.3541860     0.7225810
  H       -2.2325720    -1.7800520    -0.1237300
  H       -2.4588320    -0.9441430     1.3993390
  H       -4.0995650     0.6270340     0.3028840
  H       -3.8738130    -0.2132220    -1.2332140
  H       -4.6116960    -1.0622230     0.1365660
units angstrom
no_reorient  #important for SAPT in psi4, default
symmetry c1  #important for SAPT in psi4, default
}

set PROPERTIES_ORIGIN ["COM"]
properties('MP2/aug-cc-pvtz', properties = ['dipole'])
--------------------------------------------------------------------------

    Molecular point group: c1
  Charge       = -1
  Multiplicity = 1
  Basis Set: AUG-CC-PVTZ
    Blend: AUG-CC-PVTZ
  Basis Set: (AUG-CC-PVTZ AUX)
    Blend: AUG-CC-PVTZ-JKFIT

    Orbital Energies [Eh]
    ---------------------

    Doubly Occupied:

       1A    -20.396327     2A    -20.325130     3A    -20.315706
       4A    -15.440028     5A    -11.218863     6A    -11.164053
       7A    -11.126279     8A    -11.118074     9A    -11.116412
      10A    -11.078943    11A     -1.273203    12A     -1.193538
      13A     -1.110741    14A     -1.088699    15A     -0.931859
      16A     -0.881836    17A     -0.770156    18A     -0.721653
      19A     -0.651636    20A     -0.586568    21A     -0.541248
      22A     -0.528245    23A     -0.513764    24A     -0.489973
      25A     -0.470088    26A     -0.446613    27A     -0.422128
      28A     -0.420998    29A     -0.411508    30A     -0.406251
      31A     -0.394839    32A     -0.382170    33A     -0.373328
      34A     -0.346895    35A     -0.285587    36A     -0.265465
      37A     -0.239851    38A     -0.224709    39A     -0.218283

  @DF-RHF Final Energy:  -512.33093165424305

   => Energetics <=

    Nuclear Repulsion Energy =            534.2989899088139509
    One-Electron Energy =               -1773.4765558544258965
    Two-Electron Energy =                 726.8466342913690141
    Total Energy =                       -512.3309316542430452
  Basis Set: (AUG-CC-PVTZ AUX)
    Blend: AUG-CC-PVTZ-RI
    Molecular point group: c1

    Geometry (in Angstrom), charge = -1, multiplicity = 1:

       Center              X                  Y                   Z               Mass
    ------------   -----------------  -----------------  -----------------  -----------------
         O           -1.690265636721     1.297131800414    -0.543337707147    15.994914619570
         O            1.931287363279    -1.719989199586     0.214103292853    15.994914619570
         O            3.292447363279    -0.050002199586    -0.519621707147    15.994914619570
         N           -0.202615636721    -0.238885199586     0.253529292853    14.003074004430
         C            0.999698363279     0.470317800414    -0.152366707147    12.000000000000
         C            1.290441363279     1.659618800414     0.756881292853    12.000000000000
         C           -2.560971636721    -0.794534199586     0.332383292853    12.000000000000
         C           -1.380125136721     0.251689000414    -0.056378807147    12.000000000000
         C            2.185318363279    -0.531966199586    -0.155253707147    12.000000000000
         C           -3.934712636721    -0.325690199586    -0.127946707147    12.000000000000
         H            0.867206363279     0.837716800414    -1.179684707147     1.007825032230
         H           -0.020611636721    -1.214509199586     0.484487292853     1.007825032230
         H            1.441514363279     1.313307800414     1.784534292853     1.007825032230
         H            2.197292363279     2.167927800414     0.422742292853     1.007825032230
         H            0.454244363279     2.362935800414     0.742691292853     1.007825032230
         H           -2.320426636721    -1.771302199586    -0.103619707147     1.007825032230
         H           -2.546686636721    -0.935393199586     1.419449292853     1.007825032230
         H           -4.187419636721     0.635783800414     0.322994292853     1.007825032230
         H           -3.961667636721    -0.204472199586    -1.213103707147     1.007825032230
         H           -4.699550636721    -1.053473199586     0.156676292853     1.007825032230

  Basis Set: AUG-CC-PVTZ
    Blend: AUG-CC-PVTZ
  Basis Set: (AUG-CC-PVTZ AUX)
    Blend: AUG-CC-PVTZ-JKFIT
	 Reference Energy          =    -512.3309316542430452 [Eh]
	 Singles Energy            =      -0.0000000000000000 [Eh]
	 Same-Spin Energy          =      -0.5191850187529705 [Eh]
	 Opposite-Spin Energy      =      -1.6192878236606483 [Eh]
	 Correlation Energy        =      -2.1384728424136190 [Eh]
	 Total Energy              =    -514.4694044966566935 [Eh]

	 ================> DF-SCS-MP2 Energies <==================
	-----------------------------------------------------------
	 SCS Same-Spin Scale       =       0.3333333333333333 [-]
	 SCS Opposite-Spin Scale   =       1.2000000000000000 [-]
	 SCS Same-Spin Energy      =      -0.1730616729176568 [Eh]
	 SCS Opposite-Spin Energy  =      -1.9431453883927778 [Eh]
	 SCS Correlation Energy    =      -2.1162070613104347 [Eh]
	 SCS Total Energy          =    -514.4471387155534785 [Eh]
	-----------------------------------------------------------

  Dipole Moment: [D]
     X:    -8.1825      Y:     0.9904      Z:     1.4766     Total:     8.3734

*** Psi4 exiting successfully. Buy a developer a beer!
