                               Psi4 1.3.2 release

  ==> Input File <==

--------------------------------------------------------------------------
#psi4
#
memory 32 gb

molecule  {
-1 1
  O       -1.6024110     1.2883820    -0.5634480
  O        2.0191420    -1.7287390     0.1939930
  O        3.3803020    -0.0587520    -0.5397320
  N       -0.1147610    -0.2476350     0.2334190
  C        1.0875530     0.4615680    -0.1724770
  C        1.3782960     1.6508690     0.7367710
  C       -2.4731170    -0.8032840     0.3122730
  C       -1.4574528     0.2100857    -0.0737243
  C        2.2731730    -0.5407160    -0.1753640
  C       -3.8468580    -0.3344400    -0.1480570
  H        0.9550610     0.8289670    -1.1997950
  H        0.0672430    -1.2232590     0.4643770
  H        1.5293690     1.3045580     1.7644240
  H        2.2851470     2.1591780     0.4026320
  H        0.5420990     2.3541860     0.7225810
  H       -2.2325720    -1.7800520    -0.1237300
  H       -2.4588320    -0.9441430     1.3993390
  H       -4.0995650     0.6270340     0.3028840
  H       -3.8738130    -0.2132220    -1.2332140
  H       -4.6116960    -1.0622230     0.1365660
units angstrom
no_reorient  #important for SAPT in psi4, default
symmetry c1  #important for SAPT in psi4, default
}

set PROPERTIES_ORIGIN ["COM"]
properties('MP2/aug-cc-pvtz', properties = ['dipole'])
--------------------------------------------------------------------------

    Molecular point group: c1
  Charge       = -1
  Multiplicity = 1
  Basis Set: AUG-CC-PVTZ
    Blend: AUG-CC-PVTZ
  Basis Set: (AUG-CC-PVTZ AUX)
    Blend: AUG-CC-PVTZ-JKFIT

    Orbital Energies [Eh]
    ---------------------

    Doubly Occupied:

       1A    -20.411276     2A    -20.314990     3A    -20.307637
       4A    -15.419177     5A    -11.229483     6A    -11.154939
       7A    -11.138881     8A    -11.129238     9A    -11.105466
      10A    -11.069676    11A     -1.281090    12A     -1.183760
      13A     -1.085024    14A     -1.055335    15A     -0.961223
      16A     -0.864610    17A     -0.788542    18A     -0.708154
      19A     -0.629586    20A     -0.588921    21A     -0.541197
      22A     -0.537216    23A     -0.518795    24A     -0.488973
      25A     -0.459495    26A     -0.437344    27A     -0.431380
      28A     -0.422849    29A     -0.415919    30A     -0.399097
      31A     -0.398090    32A     -0.380832    33A     -0.364239
      34A     -0.338830    35A     -0.308762    36A     -0.243392
      37A     -0.229282    38A     -0.215770    39A     -0.207928

  @DF-RHF Final Energy:  -512.32369141445497

   => Energetics <=

    Nuclear Repulsion Energy =            532.9453807374559346
    One-Electron Energy =               -1771.0053475650554446
    Two-Electron Energy =                 725.7362754131445399
    Total Energy =                       -512.3236914144549701
  Basis Set: (AUG-CC-PVTZ AUX)
    Blend: AUG-CC-PVTZ-RI
    Molecular point group: c1

    Geometry (in Angstrom), charge = -1, multiplicity = 1:

       Center              X                  Y                   Z               Mass
    ------------   -----------------  -----------------  -----------------  -----------------
         O           -1.676506757722     1.299868336539    -0.543568001486    15.994914619570
         O            1.945046242278    -1.717252663461     0.213872998514    15.994914619570
         O            3.306206242278    -0.047265663461    -0.519852001486    15.994914619570
         N           -0.188856757722    -0.236148663461     0.253298998514    14.003074004430
         C            1.013457242278     0.473054336539    -0.152597001486    12.000000000000
         C            1.304200242278     1.662355336539     0.756650998514    12.000000000000
         C           -2.547212757722    -0.791797663461     0.332152998514    12.000000000000
         C           -1.531548557722     0.221572036539    -0.053844301486    12.000000000000
         C            2.199077242278    -0.529229663461    -0.155484001486    12.000000000000
         C           -3.920953757722    -0.322953663461    -0.128177001486    12.000000000000
         H            0.880965242278     0.840453336539    -1.179915001486     1.007825032230
         H           -0.006852757722    -1.211772663461     0.484256998514     1.007825032230
         H            1.455273242278     1.316044336539     1.784303998514     1.007825032230
         H            2.211051242278     2.170664336539     0.422511998514     1.007825032230
         H            0.468003242278     2.365672336539     0.742460998514     1.007825032230
         H           -2.306667757722    -1.768565663461    -0.103850001486     1.007825032230
         H           -2.532927757722    -0.932656663461     1.419218998514     1.007825032230
         H           -4.173660757722     0.638520336539     0.322763998514     1.007825032230
         H           -3.947908757722    -0.201735663461    -1.213334001486     1.007825032230
         H           -4.685791757722    -1.050736663461     0.156445998514     1.007825032230

  Basis Set: AUG-CC-PVTZ
    Blend: AUG-CC-PVTZ
  Basis Set: (AUG-CC-PVTZ AUX)
    Blend: AUG-CC-PVTZ-JKFIT
	 Reference Energy          =    -512.3236914144549701 [Eh]
	 Singles Energy            =      -0.0000000000000000 [Eh]
	 Same-Spin Energy          =      -0.5199284388124381 [Eh]
	 Opposite-Spin Energy      =      -1.6209134844105473 [Eh]
	 Correlation Energy        =      -2.1408419232229852 [Eh]
	 Total Energy              =    -514.4645333376779490 [Eh]

	 ================> DF-SCS-MP2 Energies <==================
	-----------------------------------------------------------
	 SCS Same-Spin Scale       =       0.3333333333333333 [-]
	 SCS Opposite-Spin Scale   =       1.2000000000000000 [-]
	 SCS Same-Spin Energy      =      -0.1733094796041460 [Eh]
	 SCS Opposite-Spin Energy  =      -1.9450961812926566 [Eh]
	 SCS Correlation Energy    =      -2.1184056608968027 [Eh]
	 SCS Total Energy          =    -514.4420970753517395 [Eh]
	-----------------------------------------------------------

  Dipole Moment: [D]
     X:    -9.6446      Y:     0.8673      Z:     1.3937     Total:     9.7833

*** Psi4 exiting successfully. Buy a developer a beer!
