                               Psi4 1.3.2 release

  ==> Input File <==

--------------------------------------------------------------------------
#psi4
#
memory 32 gb

molecule  {
-1 1
  O       -1.6024110     1.2883820    -0.5634480
  O        2.0191420    -1.7287390     0.1939930
  O        3.3803020    -0.0587520    -0.5397320
  N       -0.1147610    -0.2476350     0.2334190
  C        1.0875530     0.4615680    -0.1724770
  C        1.3782960     1.6508690     0.7367710
  C       -2.4731170    -0.8032840     0.3122730
  C       -1.3649450     0.1785500    -0.0525630
  C        2.2660058    -0.5478826    -0.1221304
  C       -3.8468580    -0.3344400    -0.1480570
  H        0.9258593     0.8506313    -1.1875648
  H        0.0672430    -1.2232590     0.4643770
  H        1.5293690     1.3045580     1.7644240
  H        2.2851470     2.1591780     0.4026320
  H        0.5420990     2.3541860     0.7225810
  H       -2.2325720    -1.7800520    -0.1237300
  H       -2.4588320    -0.9441430     1.3993390
  H       -4.0995650     0.6270340     0.3028840
  H       -3.8738130    -0.2132220    -1.2332140
  H       -4.6116960    -1.0622230     0.1365660
units angstrom
no_reorient  #important for SAPT in psi4, default
symmetry c1  #important for SAPT in psi4, default
}

set PROPERTIES_ORIGIN ["COM"]
properties('MP2/aug-cc-pvtz', properties = ['dipole'])
--------------------------------------------------------------------------

    Molecular point group: c1
  Charge       = -1
  Multiplicity = 1
  Basis Set: AUG-CC-PVTZ
    Blend: AUG-CC-PVTZ
  Basis Set: (AUG-CC-PVTZ AUX)
    Blend: AUG-CC-PVTZ-JKFIT

    Orbital Energies [Eh]
    ---------------------

    Doubly Occupied:

       1A    -20.392495     2A    -20.328946     3A    -20.307759
       4A    -15.438430     5A    -11.224110     6A    -11.162575
       7A    -11.135886     8A    -11.124748     9A    -11.115126
      10A    -11.074648    11A     -1.242384    12A     -1.194753
      13A     -1.091691    14A     -1.082215    15A     -0.949859
      16A     -0.878626    17A     -0.784389    18A     -0.720189
      19A     -0.639991    20A     -0.590033    21A     -0.542231
      22A     -0.534003    23A     -0.512526    24A     -0.483744
      25A     -0.467246    26A     -0.438777    27A     -0.425110
      28A     -0.419074    29A     -0.412968    30A     -0.403938
      31A     -0.397386    32A     -0.376501    33A     -0.369739
      34A     -0.342724    35A     -0.299845    36A     -0.257270
      37A     -0.238891    38A     -0.220679    39A     -0.213235

  @DF-RHF Final Energy:  -512.33292351788532

   => Energetics <=

    Nuclear Repulsion Energy =            533.5451867807402095
    One-Electron Energy =               -1772.0867384047551241
    Two-Electron Energy =                 726.2086281061297086
    Total Energy =                       -512.3329235178853196
  Basis Set: (AUG-CC-PVTZ AUX)
    Blend: AUG-CC-PVTZ-RI
    Molecular point group: c1

    Geometry (in Angstrom), charge = -1, multiplicity = 1:

       Center              X                  Y                   Z               Mass
    ------------   -----------------  -----------------  -----------------  -----------------
         O           -1.683410930289     1.302940494902    -0.549850290669    15.994914619570
         O            1.938142069711    -1.714180505098     0.207590709331    15.994914619570
         O            3.299302069711    -0.044193505098    -0.526134290669    15.994914619570
         N           -0.195760930289    -0.233076505098     0.247016709331    14.003074004430
         C            1.006553069711     0.476126494902    -0.158879290669    12.000000000000
         C            1.297296069711     1.665427494902     0.750368709331    12.000000000000
         C           -2.554116930289    -0.788725505098     0.325870709331    12.000000000000
         C           -1.445944930289     0.193108494902    -0.038965290669    12.000000000000
         C            2.185005869711    -0.533324105098    -0.108532690669    12.000000000000
         C           -3.927857930289    -0.319881505098    -0.134459290669    12.000000000000
         H            0.844859369711     0.865189794902    -1.173967090669     1.007825032230
         H           -0.013756930289    -1.208700505098     0.477974709331     1.007825032230
         H            1.448369069711     1.319116494902     1.778021709331     1.007825032230
         H            2.204147069711     2.173736494902     0.416229709331     1.007825032230
         H            0.461099069711     2.368744494902     0.736178709331     1.007825032230
         H           -2.313571930289    -1.765493505098    -0.110132290669     1.007825032230
         H           -2.539831930289    -0.929584505098     1.412936709331     1.007825032230
         H           -4.180564930289     0.641592494902     0.316481709331     1.007825032230
         H           -3.954812930289    -0.198663505098    -1.219616290669     1.007825032230
         H           -4.692695930289    -1.047664505098     0.150163709331     1.007825032230

  Basis Set: AUG-CC-PVTZ
    Blend: AUG-CC-PVTZ
  Basis Set: (AUG-CC-PVTZ AUX)
    Blend: AUG-CC-PVTZ-JKFIT
	 Reference Energy          =    -512.3329235178853196 [Eh]
	 Singles Energy            =      -0.0000000000000000 [Eh]
	 Same-Spin Energy          =      -0.5203513280631644 [Eh]
	 Opposite-Spin Energy      =      -1.6217560628535579 [Eh]
	 Correlation Energy        =      -2.1421073909167223 [Eh]
	 Total Energy              =    -514.4750309088020686 [Eh]

	 ================> DF-SCS-MP2 Energies <==================
	-----------------------------------------------------------
	 SCS Same-Spin Scale       =       0.3333333333333333 [-]
	 SCS Opposite-Spin Scale   =       1.2000000000000000 [-]
	 SCS Same-Spin Energy      =      -0.1734504426877215 [Eh]
	 SCS Opposite-Spin Energy  =      -1.9461072754242694 [Eh]
	 SCS Correlation Energy    =      -2.1195577181119907 [Eh]
	 SCS Total Energy          =    -514.4524812359973112 [Eh]
	-----------------------------------------------------------

  Dipole Moment: [D]
     X:    -8.8648      Y:     0.4459      Z:     1.7076     Total:     9.0387

*** Psi4 exiting successfully. Buy a developer a beer!
