                               Psi4 1.3.2 release

  ==> Input File <==

--------------------------------------------------------------------------
#psi4
#
memory 32 gb

molecule  {
-1 1
  O       -1.6333780     1.2280873    -0.5311082
  O        2.0191420    -1.7287390     0.1939930
  O        3.3903930    -0.0768877    -0.5323945
  N       -0.1147610    -0.2476350     0.2334190
  C        1.0875530     0.4615680    -0.1724770
  C        1.3782960     1.6508690     0.7367710
  C       -2.4731170    -0.8032840     0.3122730
  C       -1.3649450     0.1785500    -0.0525630
  C        2.2731730    -0.5407160    -0.1753640
  C       -3.8468580    -0.3344400    -0.1480570
  H        0.9550610     0.8289670    -1.1997950
  H        0.0672430    -1.2232590     0.4643770
  H        1.5293690     1.3045580     1.7644240
  H        2.2851470     2.1591780     0.4026320
  H        0.5420990     2.3541860     0.7225810
  H       -2.2325720    -1.7800520    -0.1237300
  H       -2.4588320    -0.9441430     1.3993390
  H       -4.0995650     0.6270340     0.3028840
  H       -3.8738130    -0.2132220    -1.2332140
  H       -4.6116960    -1.0622230     0.1365660
units angstrom
no_reorient  #important for SAPT in psi4, default
symmetry c1  #important for SAPT in psi4, default
}

set PROPERTIES_ORIGIN ["COM"]
properties('MP2/aug-cc-pvtz', properties = ['dipole'])
--------------------------------------------------------------------------

    Molecular point group: c1
  Charge       = -1
  Multiplicity = 1
  Basis Set: AUG-CC-PVTZ
    Blend: AUG-CC-PVTZ
  Basis Set: (AUG-CC-PVTZ AUX)
    Blend: AUG-CC-PVTZ-JKFIT

    Orbital Energies [Eh]
    ---------------------

    Doubly Occupied:

       1A    -20.393911     2A    -20.319708     3A    -20.312289
       4A    -15.430633     5A    -11.213273     6A    -11.160437
       7A    -11.128331     8A    -11.122401     9A    -11.114848
      10A    -11.076426    11A     -1.280203    12A     -1.189635
      13A     -1.095603    14A     -1.079442    15A     -0.945489
      16A     -0.877874    17A     -0.781136    18A     -0.720266
      19A     -0.636517    20A     -0.589877    21A     -0.545027
      22A     -0.533550    23A     -0.516203    24A     -0.490347
      25A     -0.466276    26A     -0.442346    27A     -0.426504
      28A     -0.420411    29A     -0.413641    30A     -0.403297
      31A     -0.396404    32A     -0.381584    33A     -0.370484
      34A     -0.343929    35A     -0.298792    36A     -0.256907
      37A     -0.234356    38A     -0.222498    39A     -0.213595

  @DF-RHF Final Energy:  -512.33759778645776

   => Energetics <=

    Nuclear Repulsion Energy =            535.0985900272676190
    One-Electron Energy =               -1775.1834692600291419
    Two-Electron Energy =                 727.7472814463037594
    Total Energy =                       -512.3375977864577635
  Basis Set: (AUG-CC-PVTZ AUX)
    Blend: AUG-CC-PVTZ-RI
    Molecular point group: c1

    Geometry (in Angstrom), charge = -1, multiplicity = 1:

       Center              X                  Y                   Z               Mass
    ------------   -----------------  -----------------  -----------------  -----------------
         O           -1.712861450828     1.250908130304    -0.517396001004    15.994914619570
         O            1.939658549172    -1.705918169696     0.207705198996    15.994914619570
         O            3.310909549172    -0.054066869696    -0.518682301004    15.994914619570
         N           -0.194244450828    -0.224814169696     0.247131198996    14.003074004430
         C            1.008069549172     0.484388830304    -0.158764801004    12.000000000000
         C            1.298812549172     1.673689830304     0.750483198996    12.000000000000
         C           -2.552600450828    -0.780463169696     0.325985198996    12.000000000000
         C           -1.444428450828     0.201370830304    -0.038850801004    12.000000000000
         C            2.193689549172    -0.517895169696    -0.161651801004    12.000000000000
         C           -3.926341450828    -0.311619169696    -0.134344801004    12.000000000000
         H            0.875577549172     0.851787830304    -1.186082801004     1.007825032230
         H           -0.012240450828    -1.200438169696     0.478089198996     1.007825032230
         H            1.449885549172     1.327378830304     1.778136198996     1.007825032230
         H            2.205663549172     2.181998830304     0.416344198996     1.007825032230
         H            0.462615549172     2.377006830304     0.736293198996     1.007825032230
         H           -2.312055450828    -1.757231169696    -0.110017801004     1.007825032230
         H           -2.538315450828    -0.921322169696     1.413051198996     1.007825032230
         H           -4.179048450828     0.649854830304     0.316596198996     1.007825032230
         H           -3.953296450828    -0.190401169696    -1.219501801004     1.007825032230
         H           -4.691179450828    -1.039402169696     0.150278198996     1.007825032230

  Basis Set: AUG-CC-PVTZ
    Blend: AUG-CC-PVTZ
  Basis Set: (AUG-CC-PVTZ AUX)
    Blend: AUG-CC-PVTZ-JKFIT
	 Reference Energy          =    -512.3375977864577635 [Eh]
	 Singles Energy            =      -0.0000000000000000 [Eh]
	 Same-Spin Energy          =      -0.5187566890241566 [Eh]
	 Opposite-Spin Energy      =      -1.6178360030229504 [Eh]
	 Correlation Energy        =      -2.1365926920471070 [Eh]
	 Total Energy              =    -514.4741904785048519 [Eh]

	 ================> DF-SCS-MP2 Energies <==================
	-----------------------------------------------------------
	 SCS Same-Spin Scale       =       0.3333333333333333 [-]
	 SCS Opposite-Spin Scale   =       1.2000000000000000 [-]
	 SCS Same-Spin Energy      =      -0.1729188963413855 [Eh]
	 SCS Opposite-Spin Energy  =      -1.9414032036275404 [Eh]
	 SCS Correlation Energy    =      -2.1143220999689261 [Eh]
	 SCS Total Energy          =    -514.4519198864267082 [Eh]
	-----------------------------------------------------------

  Dipole Moment: [D]
     X:    -8.7942      Y:     0.9597      Z:     1.4461     Total:     8.9638

*** Psi4 exiting successfully. Buy a developer a beer!
