                               Psi4 1.3.2 release

  ==> Input File <==

--------------------------------------------------------------------------
#psi4
#
memory 32 gb

molecule  {
-1 1
  O       -1.6024110     1.2883820    -0.5634480
  O        2.0191420    -1.7287390     0.1939930
  O        3.3803020    -0.0587520    -0.5397320
  N       -0.1147610    -0.2476350     0.2334190
  C        1.1266763     0.3971236    -0.1620542
  C        1.3782960     1.6508690     0.7367710
  C       -2.4731170    -0.8032840     0.3122730
  C       -1.3649450     0.1785500    -0.0525630
  C        2.2731730    -0.5407160    -0.1753640
  C       -3.8468580    -0.3344400    -0.1480570
  H        0.9550610     0.8289670    -1.1997950
  H        0.1186789    -1.2149101     0.4529501
  H        1.5293690     1.3045580     1.7644240
  H        2.2851470     2.1591780     0.4026320
  H        0.5420990     2.3541860     0.7225810
  H       -2.2325720    -1.7800520    -0.1237300
  H       -2.4588320    -0.9441430     1.3993390
  H       -4.0995650     0.6270340     0.3028840
  H       -3.8738130    -0.2132220    -1.2332140
  H       -4.6116960    -1.0622230     0.1365660
units angstrom
no_reorient  #important for SAPT in psi4, default
symmetry c1  #important for SAPT in psi4, default
}

set PROPERTIES_ORIGIN ["COM"]
properties('MP2/aug-cc-pvtz', properties = ['dipole'])
--------------------------------------------------------------------------

    Molecular point group: c1
  Charge       = -1
  Multiplicity = 1
  Basis Set: AUG-CC-PVTZ
    Blend: AUG-CC-PVTZ
  Basis Set: (AUG-CC-PVTZ AUX)
    Blend: AUG-CC-PVTZ-JKFIT

    Orbital Energies [Eh]
    ---------------------

    Doubly Occupied:

       1A    -20.392500     2A    -20.323160     3A    -20.314368
       4A    -15.437206     5A    -11.225864     6A    -11.160060
       7A    -11.135565     8A    -11.124392     9A    -11.118068
      10A    -11.078066    11A     -1.241862    12A     -1.195099
      13A     -1.098715    14A     -1.081287    15A     -0.949291
      16A     -0.875278    17A     -0.784242    18A     -0.729860
      19A     -0.642026    20A     -0.591816    21A     -0.547924
      22A     -0.532572    23A     -0.506466    24A     -0.483333
      25A     -0.466667    26A     -0.436780    27A     -0.426969
      28A     -0.422323    29A     -0.413886    30A     -0.405156
      31A     -0.396064    32A     -0.374599    33A     -0.366213
      34A     -0.333161    35A     -0.300715    36A     -0.252648
      37A     -0.240530    38A     -0.230306    39A     -0.216748

  @DF-RHF Final Energy:  -512.32922495229548

   => Energetics <=

    Nuclear Repulsion Energy =            533.8785983140276130
    One-Electron Energy =               -1772.7120776643168938
    Two-Electron Energy =                 726.5042543979938046
    Total Energy =                       -512.3292249522954762
  Basis Set: (AUG-CC-PVTZ AUX)
    Blend: AUG-CC-PVTZ-RI
    Molecular point group: c1

    Geometry (in Angstrom), charge = -1, multiplicity = 1:

       Center              X                  Y                   Z               Mass
    ------------   -----------------  -----------------  -----------------  -----------------
         O           -1.687830809306     1.307804604836    -0.546118865050    15.994914619570
         O            1.933722190694    -1.709316395164     0.211322134950    15.994914619570
         O            3.294882190694    -0.039329395164    -0.522402865050    15.994914619570
         N           -0.200180809306    -0.228212395164     0.250748134950    14.003074004430
         C            1.041256490694     0.416546204836    -0.144725065050    12.000000000000
         C            1.292876190694     1.670291604836     0.754100134950    12.000000000000
         C           -2.558536809306    -0.783861395164     0.329602134950    12.000000000000
         C           -1.450364809306     0.197972604836    -0.035233865050    12.000000000000
         C            2.187753190694    -0.521293395164    -0.158034865050    12.000000000000
         C           -3.932277809306    -0.315017395164    -0.130727865050    12.000000000000
         H            0.869641190694     0.848389604836    -1.182465865050     1.007825032230
         H            0.033259090694    -1.195487495164     0.470279234950     1.007825032230
         H            1.443949190694     1.323980604836     1.781753134950     1.007825032230
         H            2.199727190694     2.178600604836     0.419961134950     1.007825032230
         H            0.456679190694     2.373608604836     0.739910134950     1.007825032230
         H           -2.317991809306    -1.760629395164    -0.106400865050     1.007825032230
         H           -2.544251809306    -0.924720395164     1.416668134950     1.007825032230
         H           -4.184984809306     0.646456604836     0.320213134950     1.007825032230
         H           -3.959232809306    -0.193799395164    -1.215884865050     1.007825032230
         H           -4.697115809306    -1.042800395164     0.153895134950     1.007825032230

  Basis Set: AUG-CC-PVTZ
    Blend: AUG-CC-PVTZ
  Basis Set: (AUG-CC-PVTZ AUX)
    Blend: AUG-CC-PVTZ-JKFIT
	 Reference Energy          =    -512.3292249522954762 [Eh]
	 Singles Energy            =      -0.0000000000000000 [Eh]
	 Same-Spin Energy          =      -0.5206365872177785 [Eh]
	 Opposite-Spin Energy      =      -1.6223001670898265 [Eh]
	 Correlation Energy        =      -2.1429367543076050 [Eh]
	 Total Energy              =    -514.4721617066030603 [Eh]

	 ================> DF-SCS-MP2 Energies <==================
	-----------------------------------------------------------
	 SCS Same-Spin Scale       =       0.3333333333333333 [-]
	 SCS Opposite-Spin Scale   =       1.2000000000000000 [-]
	 SCS Same-Spin Energy      =      -0.1735455290725928 [Eh]
	 SCS Opposite-Spin Energy  =      -1.9467602005077917 [Eh]
	 SCS Correlation Energy    =      -2.1203057295803847 [Eh]
	 SCS Total Energy          =    -514.4495306818758991 [Eh]
	-----------------------------------------------------------

  Dipole Moment: [D]
     X:    -8.6545      Y:     0.6073      Z:     1.5902     Total:     8.8204

*** Psi4 exiting successfully. Buy a developer a beer!
