                               Psi4 1.4a3.dev225

  ==> Input File <==

--------------------------------------------------------------------------
#psi4
#
memory 32 gb

molecule  {
-1 1
  O       -1.5868420     1.2523650    -0.8113290
  O        2.0299390    -1.6922460     0.2543140
  O        3.4074630     0.0142020    -0.3584910
  N       -0.1383540    -0.2870410     0.0455440
  C        1.0782140     0.4735880    -0.1782270
  C        1.2275190     1.6106150     0.8299030
  C       -2.4816390    -0.8906360    -0.1487800
  C       -1.3186063     0.1065613    -0.3202649
  C        2.2855270    -0.4976230    -0.0923730
  C       -3.7126180    -0.2515540     0.4884160
  H        1.0494870     0.8996880    -1.1894520
  H        0.0515970    -1.2513350     0.3145600
  H        1.2660770     1.2028380     1.8451460
  H        2.1536960     2.1558630     0.6353850
  H        0.3800930     2.2967220     0.7589720
  H       -2.7387560    -1.2794370    -1.1416750
  H       -2.1327770    -1.7398080     0.4477120
  H       -3.4838230     0.1112750     1.4946450
  H       -4.0489630     0.5957980    -0.1116680
  H       -4.5299760    -0.9736440     0.5641870
units angstrom
no_reorient  #important for SAPT in psi4, default
symmetry c1  #important for SAPT in psi4, default
}

set PROPERTIES_ORIGIN ["COM"]
properties('MP2/aug-cc-pvtz', properties = ['dipole'])
--------------------------------------------------------------------------

    Molecular point group: c1
  Charge       = -1
  Multiplicity = 1
  Basis Set: AUG-CC-PVTZ
    Blend: AUG-CC-PVTZ
  Basis Set: (AUG-CC-PVTZ AUX)
    Blend: AUG-CC-PVTZ-JKFIT

    Orbital Energies [Eh]
    ---------------------

    Doubly Occupied:

       1A    -20.377579     2A    -20.327065     3A    -20.317985
       4A    -15.450848     5A    -11.218640     6A    -11.166533
       7A    -11.133409     8A    -11.124907     9A    -11.120227
      10A    -11.080459    11A     -1.225139    12A     -1.193998
      13A     -1.107646    14A     -1.089895    15A     -0.945067
      16A     -0.886858    17A     -0.781699    18A     -0.731247
      19A     -0.652411    20A     -0.590592    21A     -0.543981
      22A     -0.521482    23A     -0.518294    24A     -0.476151
      25A     -0.468131    26A     -0.441244    27A     -0.435354
      28A     -0.420063    29A     -0.408803    30A     -0.405821
      31A     -0.395358    32A     -0.375737    33A     -0.371287
      34A     -0.340837    35A     -0.288355    36A     -0.262740
      37A     -0.241935    38A     -0.227231    39A     -0.220002

  @DF-RHF Final Energy:  -512.33304472746636

   => Energetics <=

    Nuclear Repulsion Energy =            534.6520229886737070
    One-Electron Energy =               -1774.2001108061006107
    Two-Electron Energy =                 727.2150430899605453
    Total Energy =                       -512.3330447274663584
  Basis Set: (AUG-CC-PVTZ AUX)
    Blend: AUG-CC-PVTZ-RI
    Molecular point group: c1

    Geometry (in Angstrom), charge = -1, multiplicity = 1:

       Center              X                  Y                   Z               Mass
    ------------   -----------------  -----------------  -----------------  -----------------
         O           -1.673366546559     1.267517696614    -0.787621310544    15.994914619570
         O            1.943414453441    -1.677093303386     0.278021689456    15.994914619570
         O            3.320938453441     0.029354696614    -0.334783310544    15.994914619570
         N           -0.224878546559    -0.271888303386     0.069251689456    14.003074004430
         C            0.991689453441     0.488740696614    -0.154519310544    12.000000000000
         C            1.140994453441     1.625767696614     0.853610689456    12.000000000000
         C           -2.568163546559    -0.875483303386    -0.125072310544    12.000000000000
         C           -1.405130846559     0.121713996614    -0.296557210544    12.000000000000
         C            2.199002453441    -0.482470303386    -0.068665310544    12.000000000000
         C           -3.799142546559    -0.236401303386     0.512123689456    12.000000000000
         H            0.962962453441     0.914840696614    -1.165744310544     1.007825032230
         H           -0.034927546559    -1.236182303386     0.338267689456     1.007825032230
         H            1.179552453441     1.217990696614     1.868853689456     1.007825032230
         H            2.067171453441     2.171015696614     0.659092689456     1.007825032230
         H            0.293568453441     2.311874696614     0.782679689456     1.007825032230
         H           -2.825280546559    -1.264284303386    -1.117967310544     1.007825032230
         H           -2.219301546559    -1.724655303386     0.471419689456     1.007825032230
         H           -3.570347546559     0.126427696614     1.518352689456     1.007825032230
         H           -4.135487546559     0.610950696614    -0.087960310544     1.007825032230
         H           -4.616500546559    -0.958491303386     0.587894689456     1.007825032230

  Basis Set: AUG-CC-PVTZ
    Blend: AUG-CC-PVTZ
  Basis Set: (AUG-CC-PVTZ AUX)
    Blend: AUG-CC-PVTZ-JKFIT
	 Reference Energy          =    -512.3330447274663584 [Eh]
	 Singles Energy            =      -0.0000000000000000 [Eh]
	 Same-Spin Energy          =      -0.5205471332392370 [Eh]
	 Opposite-Spin Energy      =      -1.6221109091275498 [Eh]
	 Correlation Energy        =      -2.1426580423667869 [Eh]
	 Total Energy              =    -514.4757027698331058 [Eh]

	 ================> DF-SCS-MP2 Energies <==================
	-----------------------------------------------------------
	 SCS Same-Spin Scale       =       0.3333333333333333 [-]
	 SCS Opposite-Spin Scale   =       1.2000000000000000 [-]
	 SCS Same-Spin Energy      =      -0.1735157110797456 [Eh]
	 SCS Opposite-Spin Energy  =      -1.9465330909530598 [Eh]
	 SCS Correlation Energy    =      -2.1200488020328057 [Eh]
	 SCS Total Energy          =    -514.4530935294991423 [Eh]
	-----------------------------------------------------------

  Dipole Moment: [D]
     X:    -8.2056      Y:     0.2507      Z:     1.3677     Total:     8.3225

*** Psi4 exiting successfully. Buy a developer a beer!
