                               Psi4 1.3.2 release

  ==> Input File <==

--------------------------------------------------------------------------
#psi4
#
memory 32 gb

molecule  {
-1 1
  O       -1.6024110     1.2883820    -0.5634480
  O        2.0191420    -1.7287390     0.1939930
  O        3.3803020    -0.0587520    -0.5397320
  N       -0.1147610    -0.2476350     0.2334190
  C        1.0875530     0.4615680    -0.1724770
  C        1.3782960     1.6508690     0.7367710
  C       -2.4731170    -0.8032840     0.3122730
  C       -1.3477892     0.2220374    -0.0588626
  C        2.2731730    -0.5407160    -0.1753640
  C       -3.8468580    -0.3344400    -0.1480570
  H        0.9550610     0.8289670    -1.1997950
  H        0.1016964    -1.2152850     0.4681718
  H        1.5293690     1.3045580     1.7644240
  H        2.2851470     2.1591780     0.4026320
  H        0.5420990     2.3541860     0.7225810
  H       -2.2325720    -1.7800520    -0.1237300
  H       -2.4588320    -0.9441430     1.3993390
  H       -4.0995650     0.6270340     0.3028840
  H       -3.8738130    -0.2132220    -1.2332140
  H       -4.6116960    -1.0622230     0.1365660
units angstrom
no_reorient  #important for SAPT in psi4, default
symmetry c1  #important for SAPT in psi4, default
}

set PROPERTIES_ORIGIN ["COM"]
properties('MP2/aug-cc-pvtz', properties = ['dipole'])
--------------------------------------------------------------------------

    Molecular point group: c1
  Charge       = -1
  Multiplicity = 1
  Basis Set: AUG-CC-PVTZ
    Blend: AUG-CC-PVTZ
  Basis Set: (AUG-CC-PVTZ AUX)
    Blend: AUG-CC-PVTZ-JKFIT

    Orbital Energies [Eh]
    ---------------------

    Doubly Occupied:

       1A    -20.397653     2A    -20.323342     3A    -20.313964
       4A    -15.434247     5A    -11.222176     6A    -11.162086
       7A    -11.131598     8A    -11.121919     9A    -11.113056
      10A    -11.075875    11A     -1.265609    12A     -1.191537
      13A     -1.098145    14A     -1.082427    15A     -0.941755
      16A     -0.876687    17A     -0.777181    18A     -0.719353
      19A     -0.642826    20A     -0.587188    21A     -0.541089
      22A     -0.529785    23A     -0.513823    24A     -0.489100
      25A     -0.466566    26A     -0.441146    27A     -0.423568
      28A     -0.420660    29A     -0.414154    30A     -0.404240
      31A     -0.396321    32A     -0.380318    33A     -0.369939
      34A     -0.344293    35A     -0.296963    36A     -0.258158
      37A     -0.237859    38A     -0.223044    39A     -0.216161

  @DF-RHF Final Energy:  -512.33635217339815

   => Energetics <=

    Nuclear Repulsion Energy =            533.7817156449365257
    One-Electron Energy =               -1772.5445087616990349
    Two-Electron Energy =                 726.4264409433644687
    Total Energy =                       -512.3363521733981543
  Basis Set: (AUG-CC-PVTZ AUX)
    Blend: AUG-CC-PVTZ-RI
    Molecular point group: c1

    Geometry (in Angstrom), charge = -1, multiplicity = 1:

       Center              X                  Y                   Z               Mass
    ------------   -----------------  -----------------  -----------------  -----------------
         O           -1.685882221466     1.298817035572    -0.544832455335    15.994914619570
         O            1.935670778534    -1.718303964428     0.212608544665    15.994914619570
         O            3.296830778534    -0.048316964428    -0.521116455335    15.994914619570
         N           -0.198232221466    -0.237199964428     0.252034544665    14.003074004430
         C            1.004081778534     0.472003035572    -0.153861455335    12.000000000000
         C            1.294824778534     1.661304035572     0.755386544665    12.000000000000
         C           -2.556588221466    -0.792848964428     0.330888544665    12.000000000000
         C           -1.431260421466     0.232472435572    -0.040247055335    12.000000000000
         C            2.189701778534    -0.530280964428    -0.156748455335    12.000000000000
         C           -3.930329221466    -0.324004964428    -0.129441455335    12.000000000000
         H            0.871589778534     0.839402035572    -1.181179455335     1.007825032230
         H            0.018225178534    -1.204849964428     0.486787344665     1.007825032230
         H            1.445897778534     1.314993035572     1.783039544665     1.007825032230
         H            2.201675778534     2.169613035572     0.421247544665     1.007825032230
         H            0.458627778534     2.364621035572     0.741196544665     1.007825032230
         H           -2.316043221466    -1.769616964428    -0.105114455335     1.007825032230
         H           -2.542303221466    -0.933707964428     1.417954544665     1.007825032230
         H           -4.183036221466     0.637469035572     0.321499544665     1.007825032230
         H           -3.957284221466    -0.202786964428    -1.214598455335     1.007825032230
         H           -4.695167221466    -1.051787964428     0.155181544665     1.007825032230

  Basis Set: AUG-CC-PVTZ
    Blend: AUG-CC-PVTZ
  Basis Set: (AUG-CC-PVTZ AUX)
    Blend: AUG-CC-PVTZ-JKFIT
	 Reference Energy          =    -512.3363521733981543 [Eh]
	 Singles Energy            =      -0.0000000000000000 [Eh]
	 Same-Spin Energy          =      -0.5195015466560148 [Eh]
	 Opposite-Spin Energy      =      -1.6199053167824498 [Eh]
	 Correlation Energy        =      -2.1394068634384644 [Eh]
	 Total Energy              =    -514.4757590368366209 [Eh]

	 ================> DF-SCS-MP2 Energies <==================
	-----------------------------------------------------------
	 SCS Same-Spin Scale       =       0.3333333333333333 [-]
	 SCS Opposite-Spin Scale   =       1.2000000000000000 [-]
	 SCS Same-Spin Energy      =      -0.1731671822186716 [Eh]
	 SCS Opposite-Spin Energy  =      -1.9438863801389397 [Eh]
	 SCS Correlation Energy    =      -2.1170535623576114 [Eh]
	 SCS Total Energy          =    -514.4534057357557231 [Eh]
	-----------------------------------------------------------

  Dipole Moment: [D]
     X:    -8.5755      Y:     0.8478      Z:     1.5085     Total:     8.7483

*** Psi4 exiting successfully. Buy a developer a beer!
