                               Psi4 1.3.2 release

  ==> Input File <==

--------------------------------------------------------------------------
#psi4
#
memory 32 gb

molecule  {
-1 1
  O       -1.6024110     1.2883820    -0.5634480
  O        2.0191420    -1.7287390     0.1939930
  O        3.3803020    -0.0587520    -0.5397320
  N       -0.1147610    -0.2476350     0.2334190
  C        1.0875530     0.4615680    -0.1724770
  C        1.3782960     1.6508690     0.7367710
  C       -2.4731170    -0.8032840     0.3122730
  C       -1.3649450     0.1785500    -0.0525630
  C        2.0930416    -0.4557023    -0.1934016
  C       -3.8468580    -0.3344400    -0.1480570
  H        0.9550610     0.8289670    -1.1997950
  H        0.0672430    -1.2232590     0.4643770
  H        1.5293690     1.3045580     1.7644240
  H        2.2851470     2.1591780     0.4026320
  H        0.5420990     2.3541860     0.7225810
  H       -2.2325720    -1.7800520    -0.1237300
  H       -2.4588320    -0.9441430     1.3993390
  H       -4.0995650     0.6270340     0.3028840
  H       -3.8738130    -0.2132220    -1.2332140
  H       -4.6116960    -1.0622230     0.1365660
units angstrom
no_reorient  #important for SAPT in psi4, default
symmetry c1  #important for SAPT in psi4, default
}

set PROPERTIES_ORIGIN ["COM"]
properties('MP2/aug-cc-pvtz', properties = ['dipole'])
--------------------------------------------------------------------------

    Molecular point group: c1
  Charge       = -1
  Multiplicity = 1
  Basis Set: AUG-CC-PVTZ
    Blend: AUG-CC-PVTZ
  Basis Set: (AUG-CC-PVTZ AUX)
    Blend: AUG-CC-PVTZ-JKFIT

    Orbital Energies [Eh]
    ---------------------

    Doubly Occupied:

       1A    -20.399904     2A    -20.327772     3A    -20.299344
       4A    -15.447240     5A    -11.231551     6A    -11.169585
       7A    -11.140679     8A    -11.128495     9A    -11.126276
      10A    -11.088889    11A     -1.250206    12A     -1.157837
      13A     -1.094155    14A     -1.024988    15A     -0.957734
      16A     -0.906554    17A     -0.794532    18A     -0.760362
      19A     -0.653167    20A     -0.608874    21A     -0.553278
      22A     -0.540596    23A     -0.523384    24A     -0.488155
      25A     -0.470808    26A     -0.442807    27A     -0.430247
      28A     -0.422328    29A     -0.415826    30A     -0.403851
      31A     -0.393070    32A     -0.378515    33A     -0.355986
      34A     -0.311439    35A     -0.303261    36A     -0.266246
      37A     -0.247173    38A     -0.202151    39A     -0.190108

  @DF-RHF Final Energy:  -512.26894826068656

   => Energetics <=

    Nuclear Repulsion Energy =            534.6565287640509041
    One-Electron Energy =               -1774.0362047969563264
    Two-Electron Energy =                 727.1107277722189792
    Total Energy =                       -512.2689482606865568
  Basis Set: (AUG-CC-PVTZ AUX)
    Blend: AUG-CC-PVTZ-RI
    Molecular point group: c1

    Geometry (in Angstrom), charge = -1, multiplicity = 1:

       Center              X                  Y                   Z               Mass
    ------------   -----------------  -----------------  -----------------  -----------------
         O           -1.669208139711     1.295413880274    -0.543828190443    15.994914619570
         O            1.952344860289    -1.721707119726     0.213612809557    15.994914619570
         O            3.313504860289    -0.051720119726    -0.520112190443    15.994914619570
         N           -0.181558139711    -0.240603119726     0.253038809557    14.003074004430
         C            1.020755860289     0.468599880274    -0.152857190443    12.000000000000
         C            1.311498860289     1.657900880274     0.756390809557    12.000000000000
         C           -2.539914139711    -0.796252119726     0.331892809557    12.000000000000
         C           -1.431742139711     0.185581880274    -0.032943190443    12.000000000000
         C            2.026244460289    -0.448670419726    -0.173781790443    12.000000000000
         C           -3.913655139711    -0.327408119726    -0.128437190443    12.000000000000
         H            0.888263860289     0.835998880274    -1.180175190443     1.007825032230
         H            0.000445860289    -1.216227119726     0.483996809557     1.007825032230
         H            1.462571860289     1.311589880274     1.784043809557     1.007825032230
         H            2.218349860289     2.166209880274     0.422251809557     1.007825032230
         H            0.475301860289     2.361217880274     0.742200809557     1.007825032230
         H           -2.299369139711    -1.773020119726    -0.104110190443     1.007825032230
         H           -2.525629139711    -0.937111119726     1.418958809557     1.007825032230
         H           -4.166362139711     0.634065880274     0.322503809557     1.007825032230
         H           -3.940610139711    -0.206190119726    -1.213594190443     1.007825032230
         H           -4.678493139711    -1.055191119726     0.156185809557     1.007825032230

  Basis Set: AUG-CC-PVTZ
    Blend: AUG-CC-PVTZ
  Basis Set: (AUG-CC-PVTZ AUX)
    Blend: AUG-CC-PVTZ-JKFIT
	 Reference Energy          =    -512.2689482606865568 [Eh]
	 Singles Energy            =      -0.0000000000000000 [Eh]
	 Same-Spin Energy          =      -0.5256509263831770 [Eh]
	 Opposite-Spin Energy      =      -1.6329142360320068 [Eh]
	 Correlation Energy        =      -2.1585651624151838 [Eh]
	 Total Energy              =    -514.4275134231016864 [Eh]

	 ================> DF-SCS-MP2 Energies <==================
	-----------------------------------------------------------
	 SCS Same-Spin Scale       =       0.3333333333333333 [-]
	 SCS Opposite-Spin Scale   =       1.2000000000000000 [-]
	 SCS Same-Spin Energy      =      -0.1752169754610590 [Eh]
	 SCS Opposite-Spin Energy  =      -1.9594970832384080 [Eh]
	 SCS Correlation Energy    =      -2.1347140586994668 [Eh]
	 SCS Total Energy          =    -514.4036623193860578 [Eh]
	-----------------------------------------------------------

  Dipole Moment: [D]
     X:    -9.7807      Y:     1.0232      Z:     1.7869     Total:     9.9951

*** Psi4 exiting successfully. Buy a developer a beer!
