                               Psi4 1.3.2 release

  ==> Input File <==

--------------------------------------------------------------------------
#psi4
#
memory 32 gb

molecule  {
-1 1
  O       -1.6024110     1.2883820    -0.5634480
  O        2.0191420    -1.7287390     0.1939930
  O        3.3803020    -0.0587520    -0.5397320
  N       -0.1147610    -0.2476350     0.2334190
  C        1.0875530     0.4615680    -0.1724770
  C        1.3782960     1.6508690     0.7367710
  C       -2.4731170    -0.8032840     0.3122730
  C       -1.3402809     0.1394620    -0.0789570
  C        2.2731730    -0.5407160    -0.1753640
  C       -3.8468580    -0.3344400    -0.1480570
  H        0.9550610     0.8289670    -1.1997950
  H        0.0672430    -1.2232590     0.4643770
  H        1.5293690     1.3045580     1.7644240
  H        2.2851470     2.1591780     0.4026320
  H        0.5420990     2.3541860     0.7225810
  H       -2.2005517    -1.7649370    -0.1382466
  H       -2.4588320    -0.9441430     1.3993390
  H       -4.0995650     0.6270340     0.3028840
  H       -3.8738130    -0.2132220    -1.2332140
  H       -4.6116960    -1.0622230     0.1365660
units angstrom
no_reorient  #important for SAPT in psi4, default
symmetry c1  #important for SAPT in psi4, default
}

set PROPERTIES_ORIGIN ["COM"]
properties('MP2/aug-cc-pvtz', properties = ['dipole'])
--------------------------------------------------------------------------

    Molecular point group: c1
  Charge       = -1
  Multiplicity = 1
  Basis Set: AUG-CC-PVTZ
    Blend: AUG-CC-PVTZ
  Basis Set: (AUG-CC-PVTZ AUX)
    Blend: AUG-CC-PVTZ-JKFIT

    Orbital Energies [Eh]
    ---------------------

    Doubly Occupied:

       1A    -20.383873     2A    -20.324484     3A    -20.315641
       4A    -15.444077     5A    -11.221719     6A    -11.164052
       7A    -11.135629     8A    -11.123881     9A    -11.117834
      10A    -11.077021    11A     -1.225533    12A     -1.192026
      13A     -1.101183    14A     -1.085730    15A     -0.948331
      16A     -0.882985    17A     -0.785308    18A     -0.724809
      19A     -0.643672    20A     -0.588291    21A     -0.541707
      22A     -0.534127    23A     -0.511521    24A     -0.476249
      25A     -0.467225    26A     -0.439244    27A     -0.427772
      28A     -0.419157    29A     -0.410538    30A     -0.404198
      31A     -0.395686    32A     -0.375208    33A     -0.369622
      34A     -0.339890    35A     -0.293991    36A     -0.260262
      37A     -0.239011    38A     -0.225047    39A     -0.217695

  @DF-RHF Final Energy:  -512.33197033780755

   => Energetics <=

    Nuclear Repulsion Energy =            533.5464170696204746
    One-Electron Energy =               -1772.0883140259850279
    Two-Electron Energy =                 726.2099266185570059
    Total Energy =                       -512.3319703378075474
  Basis Set: (AUG-CC-PVTZ AUX)
    Blend: AUG-CC-PVTZ-RI
    Molecular point group: c1

    Geometry (in Angstrom), charge = -1, multiplicity = 1:

       Center              X                  Y                   Z               Mass
    ------------   -----------------  -----------------  -----------------  -----------------
         O           -1.686490605258     1.305645207770    -0.543030591159    15.994914619570
         O            1.935062394742    -1.711475792230     0.214410408841    15.994914619570
         O            3.296222394742    -0.041488792230    -0.519314591159    15.994914619570
         N           -0.198840605258    -0.230371792230     0.253836408841    14.003074004430
         C            1.003473394742     0.478831207770    -0.152059591159    12.000000000000
         C            1.294216394742     1.668132207770     0.757188408841    12.000000000000
         C           -2.557196605258    -0.786020792230     0.332690408841    12.000000000000
         C           -1.424360505258     0.156725207770    -0.058539591159    12.000000000000
         C            2.189093394742    -0.523452792230    -0.154946591159    12.000000000000
         C           -3.930937605258    -0.317176792230    -0.127639591159    12.000000000000
         H            0.870981394742     0.846230207770    -1.179377591159     1.007825032230
         H           -0.016836605258    -1.205995792230     0.484794408841     1.007825032230
         H            1.445289394742     1.321821207770     1.784841408841     1.007825032230
         H            2.201067394742     2.176441207770     0.423049408841     1.007825032230
         H            0.458019394742     2.371449207770     0.742998408841     1.007825032230
         H           -2.284631305258    -1.747673792230    -0.117829191159     1.007825032230
         H           -2.542911605258    -0.926879792230     1.419756408841     1.007825032230
         H           -4.183644605258     0.644297207770     0.323301408841     1.007825032230
         H           -3.957892605258    -0.195958792230    -1.212796591159     1.007825032230
         H           -4.695775605258    -1.044959792230     0.156983408841     1.007825032230

  Basis Set: AUG-CC-PVTZ
    Blend: AUG-CC-PVTZ
  Basis Set: (AUG-CC-PVTZ AUX)
    Blend: AUG-CC-PVTZ-JKFIT
	 Reference Energy          =    -512.3319703378075474 [Eh]
	 Singles Energy            =      -0.0000000000000000 [Eh]
	 Same-Spin Energy          =      -0.5206300356118005 [Eh]
	 Opposite-Spin Energy      =      -1.6223314484615119 [Eh]
	 Correlation Energy        =      -2.1429614840733127 [Eh]
	 Total Energy              =    -514.4749318218808867 [Eh]

	 ================> DF-SCS-MP2 Energies <==================
	-----------------------------------------------------------
	 SCS Same-Spin Scale       =       0.3333333333333333 [-]
	 SCS Opposite-Spin Scale   =       1.2000000000000000 [-]
	 SCS Same-Spin Energy      =      -0.1735433452039335 [Eh]
	 SCS Opposite-Spin Energy  =      -1.9467977381538142 [Eh]
	 SCS Correlation Energy    =      -2.1203410833577476 [Eh]
	 SCS Total Energy          =    -514.4523114211652910 [Eh]
	-----------------------------------------------------------

  Dipole Moment: [D]
     X:    -8.4231      Y:     0.4808      Z:     1.6595     Total:     8.5984

*** Psi4 exiting successfully. Buy a developer a beer!
