                               Psi4 1.3.2 release

  ==> Input File <==

--------------------------------------------------------------------------
#psi4
#
memory 32 gb

molecule  {
-1 1
  O       -1.6024110     1.2883820    -0.5634480
  O        2.0191420    -1.7287390     0.1939930
  O        3.3803020    -0.0587520    -0.5397320
  N       -0.1147610    -0.2476350     0.2334190
  C        1.0875530     0.4615680    -0.1724770
  C        1.3782960     1.6508690     0.7367710
  C       -2.4731170    -0.8032840     0.3122730
  C       -1.3649450     0.1785500    -0.0525630
  C        2.2731730    -0.5407160    -0.1753640
  C       -3.8533327    -0.4017119    -0.1903472
  H        0.9550610     0.8289670    -1.1997950
  H        0.0672430    -1.2232590     0.4643770
  H        1.5293690     1.3045580     1.7644240
  H        2.2851470     2.1591780     0.4026320
  H        0.5420990     2.3541860     0.7225810
  H       -2.2834703    -1.7790641    -0.1502457
  H       -2.4588320    -0.9441430     1.3993390
  H       -4.0995650     0.6270340     0.3028840
  H       -3.8738130    -0.2132220    -1.2332140
  H       -4.6116960    -1.0622230     0.1365660
units angstrom
no_reorient  #important for SAPT in psi4, default
symmetry c1  #important for SAPT in psi4, default
}

set PROPERTIES_ORIGIN ["COM"]
properties('MP2/aug-cc-pvtz', properties = ['dipole'])
--------------------------------------------------------------------------

    Molecular point group: c1
  Charge       = -1
  Multiplicity = 1
  Basis Set: AUG-CC-PVTZ
    Blend: AUG-CC-PVTZ
  Basis Set: (AUG-CC-PVTZ AUX)
    Blend: AUG-CC-PVTZ-JKFIT

    Orbital Energies [Eh]
    ---------------------

    Doubly Occupied:

       1A    -20.392279     2A    -20.322350     3A    -20.313864
       4A    -15.438518     5A    -11.224889     6A    -11.162067
       7A    -11.135775     8A    -11.124622     9A    -11.115005
      10A    -11.075748    11A     -1.241936    12A     -1.190666
      13A     -1.096824    14A     -1.081400    15A     -0.950099
      16A     -0.878887    17A     -0.784105    18A     -0.721243
      19A     -0.639835    20A     -0.589760    21A     -0.543245
      22A     -0.533329    23A     -0.510820    24A     -0.488276
      25A     -0.465466    26A     -0.440498    27A     -0.430596
      28A     -0.424945    29A     -0.408469    30A     -0.402548
      31A     -0.387684    32A     -0.371735    33A     -0.369582
      34A     -0.341648    35A     -0.300356    36A     -0.257291
      37A     -0.236987    38A     -0.223203    39A     -0.215690

  @DF-RHF Final Energy:  -512.32866089282925

   => Energetics <=

    Nuclear Repulsion Energy =            533.1223315220344148
    One-Electron Energy =               -1771.2375085209471308
    Two-Electron Energy =                 725.7865161060835817
    Total Energy =                       -512.3286608928292480
  Basis Set: (AUG-CC-PVTZ AUX)
    Blend: AUG-CC-PVTZ-RI
    Molecular point group: c1

    Geometry (in Angstrom), charge = -1, multiplicity = 1:

       Center              X                  Y                   Z               Mass
    ------------   -----------------  -----------------  -----------------  -----------------
         O           -1.683316831958     1.308091616209    -0.541622574713    15.994914619570
         O            1.938236168042    -1.709029383791     0.215818425287    15.994914619570
         O            3.299396168042    -0.039042383791    -0.517906574713    15.994914619570
         N           -0.195666831958    -0.227925383791     0.255244425287    14.003074004430
         C            1.006647168042     0.481277616209    -0.150651574713    12.000000000000
         C            1.297390168042     1.670578616209     0.758596425287    12.000000000000
         C           -2.554022831958    -0.783574383791     0.334098425287    12.000000000000
         C           -1.445850831958     0.198259616209    -0.030737574713    12.000000000000
         C            2.192267168042    -0.521006383791    -0.153538574713    12.000000000000
         C           -3.934238531958    -0.382002283791    -0.168521774713    12.000000000000
         H            0.874155168042     0.848676616209    -1.177969574713     1.007825032230
         H           -0.013662831958    -1.203549383791     0.486202425287     1.007825032230
         H            1.448463168042     1.324267616209     1.786249425287     1.007825032230
         H            2.204241168042     2.178887616209     0.424457425287     1.007825032230
         H            0.461193168042     2.373895616209     0.744406425287     1.007825032230
         H           -2.364376131958    -1.759354483791    -0.128420274713     1.007825032230
         H           -2.539737831958    -0.924433383791     1.421164425287     1.007825032230
         H           -4.180470831958     0.646743616209     0.324709425287     1.007825032230
         H           -3.954718831958    -0.193512383791    -1.211388574713     1.007825032230
         H           -4.692601831958    -1.042513383791     0.158391425287     1.007825032230

  Basis Set: AUG-CC-PVTZ
    Blend: AUG-CC-PVTZ
  Basis Set: (AUG-CC-PVTZ AUX)
    Blend: AUG-CC-PVTZ-JKFIT
	 Reference Energy          =    -512.3286608928292480 [Eh]
	 Singles Energy            =      -0.0000000000000000 [Eh]
	 Same-Spin Energy          =      -0.5203054560811425 [Eh]
	 Opposite-Spin Energy      =      -1.6217575020510759 [Eh]
	 Correlation Energy        =      -2.1420629581322186 [Eh]
	 Total Energy              =    -514.4707238509614626 [Eh]

	 ================> DF-SCS-MP2 Energies <==================
	-----------------------------------------------------------
	 SCS Same-Spin Scale       =       0.3333333333333333 [-]
	 SCS Opposite-Spin Scale   =       1.2000000000000000 [-]
	 SCS Same-Spin Energy      =      -0.1734351520270475 [Eh]
	 SCS Opposite-Spin Energy  =      -1.9461090024612910 [Eh]
	 SCS Correlation Energy    =      -2.1195441544883384 [Eh]
	 SCS Total Energy          =    -514.4482050473176287 [Eh]
	-----------------------------------------------------------

  Dipole Moment: [D]
     X:    -8.6701      Y:     0.5632      Z:     1.5607     Total:     8.8274

*** Psi4 exiting successfully. Buy a developer a beer!
