                               Psi4 1.3.2 release

  ==> Input File <==

--------------------------------------------------------------------------
#psi4
#
memory 32 gb

molecule  {
-1 1
  O       -1.6024110     1.2883820    -0.5634480
  O        2.0191420    -1.7287390     0.1939930
  O        3.3803020    -0.0587520    -0.5397320
  N       -0.1147610    -0.2476350     0.2334190
  C        1.0048465     0.4127823    -0.1445557
  C        1.3782960     1.6508690     0.7367710
  C       -2.4731170    -0.8032840     0.3122730
  C       -1.3649450     0.1785500    -0.0525630
  C        2.2731730    -0.5407160    -0.1753640
  C       -3.8468580    -0.3344400    -0.1480570
  H        0.9550610     0.8289670    -1.1997950
  H        0.0672430    -1.2232590     0.4643770
  H        1.5293690     1.3045580     1.7644240
  H        2.2851470     2.1591780     0.4026320
  H        0.5420990     2.3541860     0.7225810
  H       -2.2325720    -1.7800520    -0.1237300
  H       -2.4588320    -0.9441430     1.3993390
  H       -4.0995650     0.6270340     0.3028840
  H       -3.8738130    -0.2132220    -1.2332140
  H       -4.6116960    -1.0622230     0.1365660
units angstrom
no_reorient  #important for SAPT in psi4, default
symmetry c1  #important for SAPT in psi4, default
}

set PROPERTIES_ORIGIN ["COM"]
properties('MP2/aug-cc-pvtz', properties = ['dipole'])
--------------------------------------------------------------------------

    Molecular point group: c1
  Charge       = -1
  Multiplicity = 1
  Basis Set: AUG-CC-PVTZ
    Blend: AUG-CC-PVTZ
  Basis Set: (AUG-CC-PVTZ AUX)
    Blend: AUG-CC-PVTZ-JKFIT

    Orbital Energies [Eh]
    ---------------------

    Doubly Occupied:

       1A    -20.397051     2A    -20.320500     3A    -20.314503
       4A    -15.441926     5A    -11.228367     6A    -11.162541
       7A    -11.138505     8A    -11.126580     9A    -11.111244
      10A    -11.073179    11A     -1.248623    12A     -1.189469
      13A     -1.115452    14A     -1.085280    15A     -0.953359
      16A     -0.868981    17A     -0.788942    18A     -0.721183
      19A     -0.644645    20A     -0.596644    21A     -0.552673
      22A     -0.535424    23A     -0.508877    24A     -0.487260
      25A     -0.466723    26A     -0.435529    27A     -0.427962
      28A     -0.419563    29A     -0.415321    30A     -0.403024
      31A     -0.394622    32A     -0.381095    33A     -0.367131
      34A     -0.337429    35A     -0.304531    36A     -0.250743
      37A     -0.234763    38A     -0.218458    39A     -0.213715

  @DF-RHF Final Energy:  -512.32410619640405

   => Energetics <=

    Nuclear Repulsion Energy =            534.3542877945819782
    One-Electron Energy =               -1773.5931548435235072
    Two-Electron Energy =                 726.9147608525374835
    Total Energy =                       -512.3241061964040455
  Basis Set: (AUG-CC-PVTZ AUX)
    Blend: AUG-CC-PVTZ-RI
    Molecular point group: c1

    Geometry (in Angstrom), charge = -1, multiplicity = 1:

       Center              X                  Y                   Z               Mass
    ------------   -----------------  -----------------  -----------------  -----------------
         O           -1.677323158152     1.306558716947    -0.547656342394    15.994914619570
         O            1.944229841848    -1.710562283053     0.209784657606    15.994914619570
         O            3.305389841848    -0.040575283053    -0.523940342394    15.994914619570
         N           -0.189673158152    -0.229458283053     0.249210657606    14.003074004430
         C            0.929934341848     0.430959016947    -0.128764042394    12.000000000000
         C            1.303383841848     1.669045716947     0.752562657606    12.000000000000
         C           -2.548029158152    -0.785107283053     0.328064657606    12.000000000000
         C           -1.439857158152     0.196726716947    -0.036771342394    12.000000000000
         C            2.198260841848    -0.522539283053    -0.159572342394    12.000000000000
         C           -3.921770158152    -0.316263283053    -0.132265342394    12.000000000000
         H            0.880148841848     0.847143716947    -1.184003342394     1.007825032230
         H           -0.007669158152    -1.205082283053     0.480168657606     1.007825032230
         H            1.454456841848     1.322734716947     1.780215657606     1.007825032230
         H            2.210234841848     2.177354716947     0.418423657606     1.007825032230
         H            0.467186841848     2.372362716947     0.738372657606     1.007825032230
         H           -2.307484158152    -1.761875283053    -0.107938342394     1.007825032230
         H           -2.533744158152    -0.925966283053     1.415130657606     1.007825032230
         H           -4.174477158152     0.645210716947     0.318675657606     1.007825032230
         H           -3.948725158152    -0.195045283053    -1.217422342394     1.007825032230
         H           -4.686608158152    -1.044046283053     0.152357657606     1.007825032230

  Basis Set: AUG-CC-PVTZ
    Blend: AUG-CC-PVTZ
  Basis Set: (AUG-CC-PVTZ AUX)
    Blend: AUG-CC-PVTZ-JKFIT
	 Reference Energy          =    -512.3241061964040455 [Eh]
	 Singles Energy            =      -0.0000000000000000 [Eh]
	 Same-Spin Energy          =      -0.5211861763060328 [Eh]
	 Opposite-Spin Energy      =      -1.6221563477396472 [Eh]
	 Correlation Energy        =      -2.1433425240456803 [Eh]
	 Total Energy              =    -514.4674487204497382 [Eh]

	 ================> DF-SCS-MP2 Energies <==================
	-----------------------------------------------------------
	 SCS Same-Spin Scale       =       0.3333333333333333 [-]
	 SCS Opposite-Spin Scale   =       1.2000000000000000 [-]
	 SCS Same-Spin Energy      =      -0.1737287254353443 [Eh]
	 SCS Opposite-Spin Energy  =      -1.9465876172875767 [Eh]
	 SCS Correlation Energy    =      -2.1203163427229210 [Eh]
	 SCS Total Energy          =    -514.4444225391270038 [Eh]
	-----------------------------------------------------------

  Dipole Moment: [D]
     X:    -8.9649      Y:     0.4677      Z:     1.6138     Total:     9.1209

*** Psi4 exiting successfully. Buy a developer a beer!
