                               Psi4 1.3.2 release

  ==> Input File <==

--------------------------------------------------------------------------
#psi4
#
memory 32 gb

molecule  {
-1 1
  O       -1.6566448     1.1570011    -0.6119978
  O        2.0191420    -1.7287390     0.1939930
  O        3.3803020    -0.0587520    -0.5397320
  N       -0.1147610    -0.2476350     0.2334190
  C        1.1212325     0.4998906    -0.1542117
  C        1.3782960     1.6508690     0.7367710
  C       -2.4731170    -0.8032840     0.3122730
  C       -1.3649450     0.1785500    -0.0525630
  C        2.2731730    -0.5407160    -0.1753640
  C       -3.8468580    -0.3344400    -0.1480570
  H        0.9550610     0.8289670    -1.1997950
  H        0.0672430    -1.2232590     0.4643770
  H        1.5293690     1.3045580     1.7644240
  H        2.2851470     2.1591780     0.4026320
  H        0.5420990     2.3541860     0.7225810
  H       -2.2325720    -1.7800520    -0.1237300
  H       -2.4588320    -0.9441430     1.3993390
  H       -4.0995650     0.6270340     0.3028840
  H       -3.8738130    -0.2132220    -1.2332140
  H       -4.6116960    -1.0622230     0.1365660
units angstrom
no_reorient  #important for SAPT in psi4, default
symmetry c1  #important for SAPT in psi4, default
}

set PROPERTIES_ORIGIN ["COM"]
properties('MP2/aug-cc-pvtz', properties = ['dipole'])
--------------------------------------------------------------------------

    Molecular point group: c1
  Charge       = -1
  Multiplicity = 1
  Basis Set: AUG-CC-PVTZ
    Blend: AUG-CC-PVTZ
  Basis Set: (AUG-CC-PVTZ AUX)
    Blend: AUG-CC-PVTZ-JKFIT

    Orbital Energies [Eh]
    ---------------------

    Doubly Occupied:

       1A    -20.392134     2A    -20.322154     3A    -20.313110
       4A    -15.425702     5A    -11.207041     6A    -11.161758
       7A    -11.122778     8A    -11.119428     9A    -11.116160
      10A    -11.077371    11A     -1.291598    12A     -1.190290
      13A     -1.092976    14A     -1.075560    15A     -0.941453
      16A     -0.886889    17A     -0.777749    18A     -0.717918
      19A     -0.631487    20A     -0.586984    21A     -0.542960
      22A     -0.531833    23A     -0.517415    24A     -0.491117
      25A     -0.469481    26A     -0.444363    27A     -0.426788
      28A     -0.422398    29A     -0.412146    30A     -0.409206
      31A     -0.393533    32A     -0.382314    33A     -0.368640
      34A     -0.345302    35A     -0.293939    36A     -0.258041
      37A     -0.236351    38A     -0.222150    39A     -0.214943

  @DF-RHF Final Energy:  -512.33066932835891

   => Energetics <=

    Nuclear Repulsion Energy =            535.4777096982929834
    One-Electron Energy =               -1775.9498419152801034
    Two-Electron Energy =                 728.1414628886282117
    Total Energy =                       -512.3306693283589084
  Basis Set: (AUG-CC-PVTZ AUX)
    Blend: AUG-CC-PVTZ-RI
    Molecular point group: c1

    Geometry (in Angstrom), charge = -1, multiplicity = 1:

       Center              X                  Y                   Z               Mass
    ------------   -----------------  -----------------  -----------------  -----------------
         O           -1.735230043745     1.182508666545    -0.590011610142    15.994914619570
         O            1.940556756255    -1.703231433455     0.215979189858    15.994914619570
         O            3.301716756255    -0.033244433455    -0.517745810142    15.994914619570
         N           -0.193346243745    -0.222127433455     0.255405189858    14.003074004430
         C            1.042647256255     0.525398166545    -0.132225510142    12.000000000000
         C            1.299710756255     1.676376566545     0.758757189858    12.000000000000
         C           -2.551702243745    -0.777776433455     0.334259189858    12.000000000000
         C           -1.443530243745     0.204057566545    -0.030576810142    12.000000000000
         C            2.194587756255    -0.515208433455    -0.153377810142    12.000000000000
         C           -3.925443243745    -0.308932433455    -0.126070810142    12.000000000000
         H            0.876475756255     0.854474566545    -1.177808810142     1.007825032230
         H           -0.011342243745    -1.197751433455     0.486363189858     1.007825032230
         H            1.450783756255     1.330065566545     1.786410189858     1.007825032230
         H            2.206561756255     2.184685566545     0.424618189858     1.007825032230
         H            0.463513756255     2.379693566545     0.744567189858     1.007825032230
         H           -2.311157243745    -1.754544433455    -0.101743810142     1.007825032230
         H           -2.537417243745    -0.918635433455     1.421325189858     1.007825032230
         H           -4.178150243745     0.652541566545     0.324870189858     1.007825032230
         H           -3.952398243745    -0.187714433455    -1.211227810142     1.007825032230
         H           -4.690281243745    -1.036715433455     0.158552189858     1.007825032230

  Basis Set: AUG-CC-PVTZ
    Blend: AUG-CC-PVTZ
  Basis Set: (AUG-CC-PVTZ AUX)
    Blend: AUG-CC-PVTZ-JKFIT
	 Reference Energy          =    -512.3306693283589084 [Eh]
	 Singles Energy            =      -0.0000000000000000 [Eh]
	 Same-Spin Energy          =      -0.5185943000550751 [Eh]
	 Opposite-Spin Energy      =      -1.6173633923048780 [Eh]
	 Correlation Energy        =      -2.1359576923599533 [Eh]
	 Total Energy              =    -514.4666270207188745 [Eh]

	 ================> DF-SCS-MP2 Energies <==================
	-----------------------------------------------------------
	 SCS Same-Spin Scale       =       0.3333333333333333 [-]
	 SCS Opposite-Spin Scale   =       1.2000000000000000 [-]
	 SCS Same-Spin Energy      =      -0.1728647666850250 [Eh]
	 SCS Opposite-Spin Energy  =      -1.9408360707658536 [Eh]
	 SCS Correlation Energy    =      -2.1137008374508786 [Eh]
	 SCS Total Energy          =    -514.4443701658098007 [Eh]
	-----------------------------------------------------------

  Dipole Moment: [D]
     X:    -8.5484      Y:     1.1763      Z:     1.5460     Total:     8.7663

*** Psi4 exiting successfully. Buy a developer a beer!
