                               Psi4 1.3.2 release

  ==> Input File <==

--------------------------------------------------------------------------
#psi4
#
memory 32 gb

molecule  {
-1 1
  O       -1.6024110     1.2883820    -0.5634480
  O        2.0191420    -1.7287390     0.1939930
  O        3.3803020    -0.0587520    -0.5397320
  N       -0.1279902    -0.2261165     0.2310378
  C        1.0875530     0.4615680    -0.1724770
  C        1.3782960     1.6508690     0.7367710
  C       -2.4731170    -0.8032840     0.3122730
  C       -1.3649450     0.1785500    -0.0525630
  C        2.2897015    -0.5207750    -0.1833239
  C       -3.8468580    -0.3344400    -0.1480570
  H        0.9550610     0.8289670    -1.1997950
  H        0.0672430    -1.2232590     0.4643770
  H        1.5293690     1.3045580     1.7644240
  H        2.2851470     2.1591780     0.4026320
  H        0.5420990     2.3541860     0.7225810
  H       -2.2325720    -1.7800520    -0.1237300
  H       -2.4588320    -0.9441430     1.3993390
  H       -4.0995650     0.6270340     0.3028840
  H       -3.8738130    -0.2132220    -1.2332140
  H       -4.6116960    -1.0622230     0.1365660
units angstrom
no_reorient  #important for SAPT in psi4, default
symmetry c1  #important for SAPT in psi4, default
}

set PROPERTIES_ORIGIN ["COM"]
properties('MP2/aug-cc-pvtz', properties = ['dipole'])
--------------------------------------------------------------------------

    Molecular point group: c1
  Charge       = -1
  Multiplicity = 1
  Basis Set: AUG-CC-PVTZ
    Blend: AUG-CC-PVTZ
  Basis Set: (AUG-CC-PVTZ AUX)
    Blend: AUG-CC-PVTZ-JKFIT

    Orbital Energies [Eh]
    ---------------------

    Doubly Occupied:

       1A    -20.386916     2A    -20.321563     3A    -20.317536
       4A    -15.439080     5A    -11.219463     6A    -11.163453
       7A    -11.134326     8A    -11.123356     9A    -11.115739
      10A    -11.076242    11A     -1.240556    12A     -1.194298
      13A     -1.099851    14A     -1.078575    15A     -0.948345
      16A     -0.880771    17A     -0.782810    18A     -0.722530
      19A     -0.635392    20A     -0.588274    21A     -0.544446
      22A     -0.532593    23A     -0.510291    24A     -0.480667
      25A     -0.466202    26A     -0.438963    27A     -0.426587
      28A     -0.420005    29A     -0.412950    30A     -0.403680
      31A     -0.396558    32A     -0.374714    33A     -0.369041
      34A     -0.341918    35A     -0.297656    36A     -0.256854
      37A     -0.236065    38A     -0.225239    39A     -0.217675

  @DF-RHF Final Energy:  -512.33444298520112

   => Energetics <=

    Nuclear Repulsion Energy =            533.5718434064780240
    One-Electron Energy =               -1772.1702128691106282
    Two-Electron Energy =                 726.2639264774313688
    Total Energy =                       -512.3344429852011217
  Basis Set: (AUG-CC-PVTZ AUX)
    Blend: AUG-CC-PVTZ-RI
    Molecular point group: c1

    Geometry (in Angstrom), charge = -1, multiplicity = 1:

       Center              X                  Y                   Z               Mass
    ------------   -----------------  -----------------  -----------------  -----------------
         O           -1.684303084418     1.298742542311    -0.544436163447    15.994914619570
         O            1.937249915582    -1.718378457689     0.213004836553    15.994914619570
         O            3.298409915582    -0.048391457689    -0.520720163447    15.994914619570
         N           -0.209882284418    -0.215755957689     0.250049636553    14.003074004430
         C            1.005660915582     0.471928542311    -0.153465163447    12.000000000000
         C            1.296403915582     1.661229542311     0.755782836553    12.000000000000
         C           -2.555009084418    -0.792923457689     0.331284836553    12.000000000000
         C           -1.446837084418     0.188910542311    -0.033551163447    12.000000000000
         C            2.207809415582    -0.510414457689    -0.164312063447    12.000000000000
         C           -3.928750084418    -0.324079457689    -0.129045163447    12.000000000000
         H            0.873168915582     0.839327542311    -1.180783163447     1.007825032230
         H           -0.014649084418    -1.212898457689     0.483388836553     1.007825032230
         H            1.447476915582     1.314918542311     1.783435836553     1.007825032230
         H            2.203254915582     2.169538542311     0.421643836553     1.007825032230
         H            0.460206915582     2.364546542311     0.741592836553     1.007825032230
         H           -2.314464084418    -1.769691457689    -0.104718163447     1.007825032230
         H           -2.540724084418    -0.933782457689     1.418350836553     1.007825032230
         H           -4.181457084418     0.637394542311     0.321895836553     1.007825032230
         H           -3.955705084418    -0.202861457689    -1.214202163447     1.007825032230
         H           -4.693588084418    -1.051862457689     0.155577836553     1.007825032230

  Basis Set: AUG-CC-PVTZ
    Blend: AUG-CC-PVTZ
  Basis Set: (AUG-CC-PVTZ AUX)
    Blend: AUG-CC-PVTZ-JKFIT
	 Reference Energy          =    -512.3344429852011217 [Eh]
	 Singles Energy            =      -0.0000000000000000 [Eh]
	 Same-Spin Energy          =      -0.5202809815665292 [Eh]
	 Opposite-Spin Energy      =      -1.6214440323890751 [Eh]
	 Correlation Energy        =      -2.1417250139556043 [Eh]
	 Total Energy              =    -514.4761679991567007 [Eh]

	 ================> DF-SCS-MP2 Energies <==================
	-----------------------------------------------------------
	 SCS Same-Spin Scale       =       0.3333333333333333 [-]
	 SCS Opposite-Spin Scale   =       1.2000000000000000 [-]
	 SCS Same-Spin Energy      =      -0.1734269938555097 [Eh]
	 SCS Opposite-Spin Energy  =      -1.9457328388668900 [Eh]
	 SCS Correlation Energy    =      -2.1191598327223997 [Eh]
	 SCS Total Energy          =    -514.4536028179235245 [Eh]
	-----------------------------------------------------------

  Dipole Moment: [D]
     X:    -8.3746      Y:     0.7625      Z:     1.5311     Total:     8.5475

*** Psi4 exiting successfully. Buy a developer a beer!
