                               Psi4 1.4a3.dev225

  ==> Input File <==

--------------------------------------------------------------------------
#psi4
#
memory 32 gb

molecule  {
-1 1
  O       -1.5868420     1.2523650    -0.8113290
  O        2.0299390    -1.6922460     0.2543140
  O        3.4074630     0.0142020    -0.3584910
  N       -0.1383540    -0.2870410     0.0455440
  C        1.0782140     0.4735880    -0.1782270
  C        1.2275190     1.6106150     0.8299030
  C       -2.4816390    -0.8906360    -0.1487800
  C       -1.3641120     0.1217370    -0.3343690
  C        2.2855270    -0.4976230    -0.0923730
  C       -3.7126180    -0.2515540     0.4884160
  H        1.0489636     0.9074515    -1.2078763
  H        0.0515970    -1.2513350     0.3145600
  H        1.2660770     1.2028380     1.8451460
  H        2.1536960     2.1558630     0.6353850
  H        0.3800930     2.2967220     0.7589720
  H       -2.7387560    -1.2794370    -1.1416750
  H       -2.1327770    -1.7398080     0.4477120
  H       -3.4838230     0.1112750     1.4946450
  H       -4.0489630     0.5957980    -0.1116680
  H       -4.5299760    -0.9736440     0.5641870
units angstrom
no_reorient  #important for SAPT in psi4, default
symmetry c1  #important for SAPT in psi4, default
}

set PROPERTIES_ORIGIN ["COM"]
properties('MP2/aug-cc-pvtz', properties = ['dipole'])
--------------------------------------------------------------------------

    Molecular point group: c1
  Charge       = -1
  Multiplicity = 1
  Basis Set: AUG-CC-PVTZ
    Blend: AUG-CC-PVTZ
  Basis Set: (AUG-CC-PVTZ AUX)
    Blend: AUG-CC-PVTZ-JKFIT

    Orbital Energies [Eh]
    ---------------------

    Doubly Occupied:

       1A    -20.387456     2A    -20.323459     3A    -20.314833
       4A    -15.442570     5A    -11.222525     6A    -11.163125
       7A    -11.134607     8A    -11.127367     9A    -11.117920
      10A    -11.077603    11A     -1.238622    12A     -1.191521
      13A     -1.098303    14A     -1.082645    15A     -0.950430
      16A     -0.878970    17A     -0.784117    18A     -0.724515
      19A     -0.642411    20A     -0.588922    21A     -0.547003
      22A     -0.522917    23A     -0.512312    24A     -0.483407
      25A     -0.463527    26A     -0.442762    27A     -0.434926
      28A     -0.419069    29A     -0.411661    30A     -0.406134
      31A     -0.395506    32A     -0.375830    33A     -0.368898
      34A     -0.340146    35A     -0.296839    36A     -0.258371
      37A     -0.238241    38A     -0.223746    39A     -0.216346

  @DF-RHF Final Energy:  -512.33590100975789

   => Energetics <=

    Nuclear Repulsion Energy =            534.2214652142531577
    One-Electron Energy =               -1773.4156081933235782
    Two-Electron Energy =                 726.8582419693125303
    Total Energy =                       -512.3359010097578903
  Basis Set: (AUG-CC-PVTZ AUX)
    Blend: AUG-CC-PVTZ-RI
    Molecular point group: c1

    Geometry (in Angstrom), charge = -1, multiplicity = 1:

       Center              X                  Y                   Z               Mass
    ------------   -----------------  -----------------  -----------------  -----------------
         O           -1.669572482471     1.266199324759    -0.786317619306    15.994914619570
         O            1.947208517529    -1.678411675241     0.279325380694    15.994914619570
         O            3.324732517529     0.028036324759    -0.333479619306    15.994914619570
         N           -0.221084482471    -0.273206675241     0.070555380694    14.003074004430
         C            0.995483517529     0.487422324759    -0.153215619306    12.000000000000
         C            1.144788517529     1.624449324759     0.854914380694    12.000000000000
         C           -2.564369482471    -0.876801675241    -0.123768619306    12.000000000000
         C           -1.446842482471     0.135571324759    -0.309357619306    12.000000000000
         C            2.202796517529    -0.483788675241    -0.067361619306    12.000000000000
         C           -3.795348482471    -0.237719675241     0.513427380694    12.000000000000
         H            0.966233117529     0.921285824759    -1.182864919306     1.007825032230
         H           -0.031133482471    -1.237500675241     0.339571380694     1.007825032230
         H            1.183346517529     1.216672324759     1.870157380694     1.007825032230
         H            2.070965517529     2.169697324759     0.660396380694     1.007825032230
         H            0.297362517529     2.310556324759     0.783983380694     1.007825032230
         H           -2.821486482471    -1.265602675241    -1.116663619306     1.007825032230
         H           -2.215507482471    -1.725973675241     0.472723380694     1.007825032230
         H           -3.566553482471     0.125109324759     1.519656380694     1.007825032230
         H           -4.131693482471     0.609632324759    -0.086656619306     1.007825032230
         H           -4.612706482471    -0.959809675241     0.589198380694     1.007825032230

  Basis Set: AUG-CC-PVTZ
    Blend: AUG-CC-PVTZ
  Basis Set: (AUG-CC-PVTZ AUX)
    Blend: AUG-CC-PVTZ-JKFIT
	 Reference Energy          =    -512.3359010097578903 [Eh]
	 Singles Energy            =      -0.0000000000000000 [Eh]
	 Same-Spin Energy          =      -0.5204723311600532 [Eh]
	 Opposite-Spin Energy      =      -1.6219460446761547 [Eh]
	 Correlation Energy        =      -2.1424183758362076 [Eh]
	 Total Energy              =    -514.4783193855940908 [Eh]

	 ================> DF-SCS-MP2 Energies <==================
	-----------------------------------------------------------
	 SCS Same-Spin Scale       =       0.3333333333333333 [-]
	 SCS Opposite-Spin Scale   =       1.2000000000000000 [-]
	 SCS Same-Spin Energy      =      -0.1734907770533511 [Eh]
	 SCS Opposite-Spin Energy  =      -1.9463352536113856 [Eh]
	 SCS Correlation Energy    =      -2.1198260306647367 [Eh]
	 SCS Total Energy          =    -514.4557270404226301 [Eh]
	-----------------------------------------------------------

  Dipole Moment: [D]
     X:    -8.6516      Y:     0.3769      Z:     1.2347     Total:     8.7474

*** Psi4 exiting successfully. Buy a developer a beer!
