                               Psi4 1.3.2 release

  ==> Input File <==

--------------------------------------------------------------------------
#psi4
#
memory 32 gb

molecule  {
-1 1
  O       -1.6024110     1.2883820    -0.5634480
  O        2.0191420    -1.7287390     0.1939930
  O        3.3803020    -0.0587520    -0.5397320
  N       -0.1147610    -0.2476350     0.2334190
  C        1.0875530     0.4615680    -0.1724770
  C        1.4164256     1.8068404     0.8560147
  C       -2.4731170    -0.8032840     0.3122730
  C       -1.3649450     0.1785500    -0.0525630
  C        2.2731730    -0.5407160    -0.1753640
  C       -3.8468580    -0.3344400    -0.1480570
  H        0.9550610     0.8289670    -1.1997950
  H        0.0672430    -1.2232590     0.4643770
  H        1.5293690     1.3045580     1.7644240
  H        2.2851470     2.1591780     0.4026320
  H        0.5420990     2.3541860     0.7225810
  H       -2.2325720    -1.7800520    -0.1237300
  H       -2.4588320    -0.9441430     1.3993390
  H       -4.0995650     0.6270340     0.3028840
  H       -3.8738130    -0.2132220    -1.2332140
  H       -4.6116960    -1.0622230     0.1365660
units angstrom
no_reorient  #important for SAPT in psi4, default
symmetry c1  #important for SAPT in psi4, default
}

set PROPERTIES_ORIGIN ["COM"]
properties('MP2/aug-cc-pvtz', properties = ['dipole'])
--------------------------------------------------------------------------

    Molecular point group: c1
  Charge       = -1
  Multiplicity = 1
  Basis Set: AUG-CC-PVTZ
    Blend: AUG-CC-PVTZ
  Basis Set: (AUG-CC-PVTZ AUX)
    Blend: AUG-CC-PVTZ-JKFIT

    Orbital Energies [Eh]
    ---------------------

    Doubly Occupied:

       1A    -20.392522     2A    -20.322028     3A    -20.313441
       4A    -15.439763     5A    -11.223870     6A    -11.162029
       7A    -11.135797     8A    -11.124679     9A    -11.122698
      10A    -11.074459    11A     -1.242031    12A     -1.189813
      13A     -1.095938    14A     -1.079750    15A     -0.948411
      16A     -0.859537    17A     -0.787564    18A     -0.729571
      19A     -0.639721    20A     -0.586730    21A     -0.540271
      22A     -0.532872    23A     -0.508698    24A     -0.483220
      25A     -0.461933    26A     -0.444721    27A     -0.433782
      28A     -0.421131    29A     -0.417173    30A     -0.412881
      31A     -0.402756    32A     -0.379589    33A     -0.370571
      34A     -0.323449    35A     -0.301261    36A     -0.244387
      37A     -0.236769    38A     -0.221850    39A     -0.213185

  @DF-RHF Final Energy:  -512.31025185152623

   => Energetics <=

    Nuclear Repulsion Energy =            529.7992586095130036
    One-Electron Energy =               -1764.5773119487992062
    Two-Electron Energy =                 722.4678014877598571
    Total Energy =                       -512.3102518515262318
  Basis Set: (AUG-CC-PVTZ AUX)
    Blend: AUG-CC-PVTZ-RI
    Molecular point group: c1

    Geometry (in Angstrom), charge = -1, multiplicity = 1:

       Center              X                  Y                   Z               Mass
    ------------   -----------------  -----------------  -----------------  -----------------
         O           -1.687388215235     1.289503450353    -0.555263052383    15.994914619570
         O            1.934164784765    -1.727617549647     0.202177947617    15.994914619570
         O            3.295324784765    -0.057630549647    -0.531547052383    15.994914619570
         N           -0.199738215235    -0.246513549647     0.241603947617    14.003074004430
         C            1.002575784765     0.462689450353    -0.164292052383    12.000000000000
         C            1.331448384765     1.807961850353     0.864199647617    12.000000000000
         C           -2.558094215235    -0.802162549647     0.320457947617    12.000000000000
         C           -1.449922215235     0.179671450353    -0.044378052383    12.000000000000
         C            2.188195784765    -0.539594549647    -0.167179052383    12.000000000000
         C           -3.931835215235    -0.333318549647    -0.139872052383    12.000000000000
         H            0.870083784765     0.830088450353    -1.191610052383     1.007825032230
         H           -0.017734215235    -1.222137549647     0.472561947617     1.007825032230
         H            1.444391784765     1.305679450353     1.772608947617     1.007825032230
         H            2.200169784765     2.160299450353     0.410816947617     1.007825032230
         H            0.457121784765     2.355307450353     0.730765947617     1.007825032230
         H           -2.317549215235    -1.778930549647    -0.115545052383     1.007825032230
         H           -2.543809215235    -0.943021549647     1.407523947617     1.007825032230
         H           -4.184542215235     0.628155450353     0.311068947617     1.007825032230
         H           -3.958790215235    -0.212100549647    -1.225029052383     1.007825032230
         H           -4.696673215235    -1.061101549647     0.144750947617     1.007825032230

  Basis Set: AUG-CC-PVTZ
    Blend: AUG-CC-PVTZ
  Basis Set: (AUG-CC-PVTZ AUX)
    Blend: AUG-CC-PVTZ-JKFIT
	 Reference Energy          =    -512.3102518515262318 [Eh]
	 Singles Energy            =      -0.0000000000000000 [Eh]
	 Same-Spin Energy          =      -0.5203924398425814 [Eh]
	 Opposite-Spin Energy      =      -1.6226962360797608 [Eh]
	 Correlation Energy        =      -2.1430886759223422 [Eh]
	 Total Energy              =    -514.4533405274485176 [Eh]

	 ================> DF-SCS-MP2 Energies <==================
	-----------------------------------------------------------
	 SCS Same-Spin Scale       =       0.3333333333333333 [-]
	 SCS Opposite-Spin Scale   =       1.2000000000000000 [-]
	 SCS Same-Spin Energy      =      -0.1734641466141938 [Eh]
	 SCS Opposite-Spin Energy  =      -1.9472354832957128 [Eh]
	 SCS Correlation Energy    =      -2.1206996299099066 [Eh]
	 SCS Total Energy          =    -514.4309514814361819 [Eh]
	-----------------------------------------------------------

  Dipole Moment: [D]
     X:    -8.7663      Y:     0.5374      Z:     1.5738     Total:     8.9226

*** Psi4 exiting successfully. Buy a developer a beer!
