                               Psi4 1.3.2 release

  ==> Input File <==

--------------------------------------------------------------------------
#psi4
#
memory 32 gb

molecule  {
-1 1
  O       -1.6024110     1.2883820    -0.5634480
  O        2.0191420    -1.7287390     0.1939930
  O        3.3803020    -0.0587520    -0.5397320
  N       -0.0978912    -0.2070799     0.2162186
  C        1.0875530     0.4615680    -0.1724770
  C        1.3782960     1.6508690     0.7367710
  C       -2.5088226    -0.7684125     0.2937818
  C       -1.3649450     0.1785500    -0.0525630
  C        2.2731730    -0.5407160    -0.1753640
  C       -3.8468580    -0.3344400    -0.1480570
  H        0.9550610     0.8289670    -1.1997950
  H        0.0672430    -1.2232590     0.4643770
  H        1.5293690     1.3045580     1.7644240
  H        2.2851470     2.1591780     0.4026320
  H        0.5420990     2.3541860     0.7225810
  H       -2.2325720    -1.7800520    -0.1237300
  H       -2.4588320    -0.9441430     1.3993390
  H       -4.0995650     0.6270340     0.3028840
  H       -3.8738130    -0.2132220    -1.2332140
  H       -4.6116960    -1.0622230     0.1365660
units angstrom
no_reorient  #important for SAPT in psi4, default
symmetry c1  #important for SAPT in psi4, default
}

set PROPERTIES_ORIGIN ["COM"]
properties('MP2/aug-cc-pvtz', properties = ['dipole'])
--------------------------------------------------------------------------

    Molecular point group: c1
  Charge       = -1
  Multiplicity = 1
  Basis Set: AUG-CC-PVTZ
    Blend: AUG-CC-PVTZ
  Basis Set: (AUG-CC-PVTZ AUX)
    Blend: AUG-CC-PVTZ-JKFIT

    Orbital Energies [Eh]
    ---------------------

    Doubly Occupied:

       1A    -20.388359     2A    -20.322834     3A    -20.313774
       4A    -15.439557     5A    -11.223149     6A    -11.162178
       7A    -11.140740     8A    -11.124104     9A    -11.111928
      10A    -11.074083    11A     -1.241944    12A     -1.190845
      13A     -1.097232    14A     -1.082207    15A     -0.958454
      16A     -0.879181    17A     -0.784280    18A     -0.722646
      19A     -0.628303    20A     -0.590146    21A     -0.548637
      22A     -0.531736    23A     -0.511389    24A     -0.482864
      25A     -0.468276    26A     -0.445247    27A     -0.431490
      28A     -0.418218    29A     -0.412213    30A     -0.402286
      31A     -0.394340    32A     -0.371578    33A     -0.367779
      34A     -0.341116    35A     -0.297960    36A     -0.253034
      37A     -0.236956    38A     -0.223180    39A     -0.215283

  @DF-RHF Final Energy:  -512.32826777264370

   => Energetics <=

    Nuclear Repulsion Energy =            534.1366108056096209
    One-Electron Energy =               -1773.2707020847287822
    Two-Electron Energy =                 726.8058235064755763
    Total Energy =                       -512.3282677726436987
  Basis Set: (AUG-CC-PVTZ AUX)
    Blend: AUG-CC-PVTZ-RI
    Molecular point group: c1

    Geometry (in Angstrom), charge = -1, multiplicity = 1:

       Center              X                  Y                   Z               Mass
    ------------   -----------------  -----------------  -----------------  -----------------
         O           -1.682877830865     1.295648566581    -0.542118546547    15.994914619570
         O            1.938675169135    -1.721472433419     0.215322453453    15.994914619570
         O            3.299835169135    -0.051485433419    -0.518402546547    15.994914619570
         N           -0.178358030865    -0.199813333419     0.237548053453    14.003074004430
         C            1.007086169135     0.468834566581    -0.151147546547    12.000000000000
         C            1.297829169135     1.658135566581     0.758100453453    12.000000000000
         C           -2.589289430865    -0.761145933419     0.315111253453    12.000000000000
         C           -1.445411830865     0.185816566581    -0.031233546547    12.000000000000
         C            2.192706169135    -0.533449433419    -0.154034546547    12.000000000000
         C           -3.927324830865    -0.327173433419    -0.126727546547    12.000000000000
         H            0.874594169135     0.836233566581    -1.178465546547     1.007825032230
         H           -0.013223830865    -1.215992433419     0.485706453453     1.007825032230
         H            1.448902169135     1.311824566581     1.785753453453     1.007825032230
         H            2.204680169135     2.166444566581     0.423961453453     1.007825032230
         H            0.461632169135     2.361452566581     0.743910453453     1.007825032230
         H           -2.313038830865    -1.772785433419    -0.102400546547     1.007825032230
         H           -2.539298830865    -0.936876433419     1.420668453453     1.007825032230
         H           -4.180031830865     0.634300566581     0.324213453453     1.007825032230
         H           -3.954279830865    -0.205955433419    -1.211884546547     1.007825032230
         H           -4.692162830865    -1.054956433419     0.157895453453     1.007825032230

  Basis Set: AUG-CC-PVTZ
    Blend: AUG-CC-PVTZ
  Basis Set: (AUG-CC-PVTZ AUX)
    Blend: AUG-CC-PVTZ-JKFIT
	 Reference Energy          =    -512.3282677726436987 [Eh]
	 Singles Energy            =      -0.0000000000000000 [Eh]
	 Same-Spin Energy          =      -0.5211722048667130 [Eh]
	 Opposite-Spin Energy      =      -1.6224601357028119 [Eh]
	 Correlation Energy        =      -2.1436323405695248 [Eh]
	 Total Energy              =    -514.4719001132132234 [Eh]

	 ================> DF-SCS-MP2 Energies <==================
	-----------------------------------------------------------
	 SCS Same-Spin Scale       =       0.3333333333333333 [-]
	 SCS Opposite-Spin Scale   =       1.2000000000000000 [-]
	 SCS Same-Spin Energy      =      -0.1737240682889043 [Eh]
	 SCS Opposite-Spin Energy  =      -1.9469521628433741 [Eh]
	 SCS Correlation Energy    =      -2.1206762311322787 [Eh]
	 SCS Total Energy          =    -514.4489440037759778 [Eh]
	-----------------------------------------------------------

  Dipole Moment: [D]
     X:    -8.7671      Y:     0.5695      Z:     1.6025     Total:     8.9305

*** Psi4 exiting successfully. Buy a developer a beer!
