                               Psi4 1.3.2 release

  ==> Input File <==

--------------------------------------------------------------------------
#psi4
#
memory 32 gb

molecule  {
-1 1
  O       -1.6024110     1.2883820    -0.5634480
  O        2.0633979    -1.6341435     0.2808939
  O        3.3803020    -0.0587520    -0.5397320
  N       -0.1215569    -0.2843248     0.2045600
  C        1.0875530     0.4615680    -0.1724770
  C        1.3782960     1.6508690     0.7367710
  C       -2.4731170    -0.8032840     0.3122730
  C       -1.3649450     0.1785500    -0.0525630
  C        2.2731730    -0.5407160    -0.1753640
  C       -3.8468580    -0.3344400    -0.1480570
  H        0.9550610     0.8289670    -1.1997950
  H        0.0672430    -1.2232590     0.4643770
  H        1.5293690     1.3045580     1.7644240
  H        2.2851470     2.1591780     0.4026320
  H        0.5420990     2.3541860     0.7225810
  H       -2.2325720    -1.7800520    -0.1237300
  H       -2.4588320    -0.9441430     1.3993390
  H       -4.0995650     0.6270340     0.3028840
  H       -3.8738130    -0.2132220    -1.2332140
  H       -4.6116960    -1.0622230     0.1365660
units angstrom
no_reorient  #important for SAPT in psi4, default
symmetry c1  #important for SAPT in psi4, default
}

set PROPERTIES_ORIGIN ["COM"]
properties('MP2/aug-cc-pvtz', properties = ['dipole'])
--------------------------------------------------------------------------

    Molecular point group: c1
  Charge       = -1
  Multiplicity = 1
  Basis Set: AUG-CC-PVTZ
    Blend: AUG-CC-PVTZ
  Basis Set: (AUG-CC-PVTZ AUX)
    Blend: AUG-CC-PVTZ-JKFIT

    Orbital Energies [Eh]
    ---------------------

    Doubly Occupied:

       1A    -20.392088     2A    -20.321711     3A    -20.298996
       4A    -15.437282     5A    -11.223797     6A    -11.147824
       7A    -11.134504     8A    -11.123936     9A    -11.110323
      10A    -11.074347    11A     -1.241300    12A     -1.216395
      13A     -1.095965    14A     -1.086692    15A     -0.948393
      16A     -0.876153    17A     -0.783773    18A     -0.718179
      19A     -0.647319    20A     -0.586431    21A     -0.538188
      22A     -0.532156    23A     -0.509628    24A     -0.484915
      25A     -0.468075    26A     -0.440551    27A     -0.426063
      28A     -0.421106    29A     -0.414042    30A     -0.408818
      31A     -0.397381    32A     -0.377541    33A     -0.372801
      34A     -0.345827    35A     -0.298842    36A     -0.257228
      37A     -0.234610    38A     -0.217396    39A     -0.212355

  @DF-RHF Final Energy:  -512.33564010252348

   => Energetics <=

    Nuclear Repulsion Energy =            535.3327583999068793
    One-Electron Energy =               -1775.6909371874123735
    Two-Electron Energy =                 728.0225386849820097
    Total Energy =                       -512.3356401025234845
  Basis Set: (AUG-CC-PVTZ AUX)
    Blend: AUG-CC-PVTZ-RI
    Molecular point group: c1

    Geometry (in Angstrom), charge = -1, multiplicity = 1:

       Center              X                  Y                   Z               Mass
    ------------   -----------------  -----------------  -----------------  -----------------
         O           -1.688465156205     1.295558865412    -0.552173729252    15.994914619570
         O            1.977343743795    -1.626966634588     0.292168170748    15.994914619570
         O            3.294247843795    -0.051575134588    -0.528457729252    15.994914619570
         N           -0.207611056205    -0.277147934588     0.215834270748    14.003074004430
         C            1.001498843795     0.468744865412    -0.161202729252    12.000000000000
         C            1.292241843795     1.658045865412     0.748045270748    12.000000000000
         C           -2.559171156205    -0.796107134588     0.323547270748    12.000000000000
         C           -1.450999156205     0.185726865412    -0.041288729252    12.000000000000
         C            2.187118843795    -0.533539134588    -0.164089729252    12.000000000000
         C           -3.932912156205    -0.327263134588    -0.136782729252    12.000000000000
         H            0.869006843795     0.836143865412    -1.188520729252     1.007825032230
         H           -0.018811156205    -1.216082134588     0.475651270748     1.007825032230
         H            1.443314843795     1.311734865412     1.775698270748     1.007825032230
         H            2.199092843795     2.166354865412     0.413906270748     1.007825032230
         H            0.456044843795     2.361362865412     0.733855270748     1.007825032230
         H           -2.318626156205    -1.772875134588    -0.112455729252     1.007825032230
         H           -2.544886156205    -0.936966134588     1.410613270748     1.007825032230
         H           -4.185619156205     0.634210865412     0.314158270748     1.007825032230
         H           -3.959867156205    -0.206045134588    -1.221939729252     1.007825032230
         H           -4.697750156205    -1.055046134588     0.147840270748     1.007825032230

  Basis Set: AUG-CC-PVTZ
    Blend: AUG-CC-PVTZ
  Basis Set: (AUG-CC-PVTZ AUX)
    Blend: AUG-CC-PVTZ-JKFIT
	 Reference Energy          =    -512.3356401025234845 [Eh]
	 Singles Energy            =      -0.0000000000000000 [Eh]
	 Same-Spin Energy          =      -0.5186624965422513 [Eh]
	 Opposite-Spin Energy      =      -1.6176281157950954 [Eh]
	 Correlation Energy        =      -2.1362906123373469 [Eh]
	 Total Energy              =    -514.4719307148608323 [Eh]

	 ================> DF-SCS-MP2 Energies <==================
	-----------------------------------------------------------
	 SCS Same-Spin Scale       =       0.3333333333333333 [-]
	 SCS Opposite-Spin Scale   =       1.2000000000000000 [-]
	 SCS Same-Spin Energy      =      -0.1728874988474171 [Eh]
	 SCS Opposite-Spin Energy  =      -1.9411537389541142 [Eh]
	 SCS Correlation Energy    =      -2.1140412378015312 [Eh]
	 SCS Total Energy          =    -514.4496813403250144 [Eh]
	-----------------------------------------------------------

  Dipole Moment: [D]
     X:    -8.8907      Y:     0.2159      Z:     1.6240     Total:     9.0404

*** Psi4 exiting successfully. Buy a developer a beer!
