                               Psi4 1.3.2 release

  ==> Input File <==

--------------------------------------------------------------------------
#psi4
#
memory 32 gb

molecule  {
-1 1
  O       -1.6024110     1.2883820    -0.5634480
  O        2.0191420    -1.7287390     0.1939930
  O        3.3803020    -0.0587520    -0.5397320
  N       -0.1147610    -0.2476350     0.2334190
  C        1.0875530     0.4615680    -0.1724770
  C        1.3782960     1.6508690     0.7367710
  C       -2.4731170    -0.8032840     0.3122730
  C       -1.3649450     0.1785500    -0.0525630
  C        2.3609523    -0.5025032    -0.2042531
  C       -3.8468580    -0.3344400    -0.1480570
  H        0.9550610     0.8289670    -1.1997950
  H        0.0672430    -1.2232590     0.4643770
  H        1.5293690     1.3045580     1.7644240
  H        2.2851470     2.1591780     0.4026320
  H        0.5420990     2.3541860     0.7225810
  H       -2.2325720    -1.7800520    -0.1237300
  H       -2.4588320    -0.9441430     1.3993390
  H       -4.0995650     0.6270340     0.3028840
  H       -3.8738130    -0.2132220    -1.2332140
  H       -4.6116960    -1.0622230     0.1365660
units angstrom
no_reorient  #important for SAPT in psi4, default
symmetry c1  #important for SAPT in psi4, default
}

set PROPERTIES_ORIGIN ["COM"]
properties('MP2/aug-cc-pvtz', properties = ['dipole'])
--------------------------------------------------------------------------

    Molecular point group: c1
  Charge       = -1
  Multiplicity = 1
  Basis Set: AUG-CC-PVTZ
    Blend: AUG-CC-PVTZ
  Basis Set: (AUG-CC-PVTZ AUX)
    Blend: AUG-CC-PVTZ-JKFIT

    Orbital Energies [Eh]
    ---------------------

    Doubly Occupied:

       1A    -20.387842     2A    -20.337640     3A    -20.303266
       4A    -15.433425     5A    -11.219720     6A    -11.160023
       7A    -11.132353     8A    -11.122019     9A    -11.109084
      10A    -11.073628    11A     -1.238943    12A     -1.234566
      13A     -1.096232    14A     -1.064782    15A     -0.945954
      16A     -0.873831    17A     -0.780613    18A     -0.711648
      19A     -0.634344    20A     -0.583197    21A     -0.542391
      22A     -0.529976    23A     -0.508593    24A     -0.484077
      25A     -0.466920    26A     -0.440013    27A     -0.430622
      28A     -0.419771    29A     -0.412626    30A     -0.407817
      31A     -0.395043    32A     -0.378245    33A     -0.373693
      34A     -0.348135    35A     -0.297290    36A     -0.253565
      37A     -0.235299    38A     -0.218608    39A     -0.208567

  @DF-RHF Final Energy:  -512.32395147451632

   => Energetics <=

    Nuclear Repulsion Energy =            533.0851218403414578
    One-Electron Energy =               -1771.2294199799457601
    Two-Electron Energy =                 725.8203466650880955
    Total Energy =                       -512.3239514745163206
  Basis Set: (AUG-CC-PVTZ AUX)
    Blend: AUG-CC-PVTZ-RI
    Molecular point group: c1

    Geometry (in Angstrom), charge = -1, multiplicity = 1:

       Center              X                  Y                   Z               Mass
    ------------   -----------------  -----------------  -----------------  -----------------
         O           -1.691523792804     1.299312166714    -0.542924313481    15.994914619570
         O            1.930029207196    -1.717808833286     0.214516686519    15.994914619570
         O            3.291189207196    -0.047821833286    -0.519208313481    15.994914619570
         N           -0.203873792804    -0.236704833286     0.253942686519    14.003074004430
         C            0.998440207196     0.472498166714    -0.151953313481    12.000000000000
         C            1.289183207196     1.661799166714     0.757294686519    12.000000000000
         C           -2.562229792804    -0.792353833286     0.332796686519    12.000000000000
         C           -1.454057792804     0.189480166714    -0.032039313481    12.000000000000
         C            2.271839507196    -0.491573033286    -0.183729413481    12.000000000000
         C           -3.935970792804    -0.323509833286    -0.127533313481    12.000000000000
         H            0.865948207196     0.839897166714    -1.179271313481     1.007825032230
         H           -0.021869792804    -1.212328833286     0.484900686519     1.007825032230
         H            1.440256207196     1.315488166714     1.784947686519     1.007825032230
         H            2.196034207196     2.170108166714     0.423155686519     1.007825032230
         H            0.452986207196     2.365116166714     0.743104686519     1.007825032230
         H           -2.321684792804    -1.769121833286    -0.103206313481     1.007825032230
         H           -2.547944792804    -0.933212833286     1.419862686519     1.007825032230
         H           -4.188677792804     0.637964166714     0.323407686519     1.007825032230
         H           -3.962925792804    -0.202291833286    -1.212690313481     1.007825032230
         H           -4.700808792804    -1.051292833286     0.157089686519     1.007825032230

  Basis Set: AUG-CC-PVTZ
    Blend: AUG-CC-PVTZ
  Basis Set: (AUG-CC-PVTZ AUX)
    Blend: AUG-CC-PVTZ-JKFIT
	 Reference Energy          =    -512.3239514745163206 [Eh]
	 Singles Energy            =      -0.0000000000000000 [Eh]
	 Same-Spin Energy          =      -0.5194045101708200 [Eh]
	 Opposite-Spin Energy      =      -1.6197641820373061 [Eh]
	 Correlation Energy        =      -2.1391686922081261 [Eh]
	 Total Energy              =    -514.4631201667244795 [Eh]

	 ================> DF-SCS-MP2 Energies <==================
	-----------------------------------------------------------
	 SCS Same-Spin Scale       =       0.3333333333333333 [-]
	 SCS Opposite-Spin Scale   =       1.2000000000000000 [-]
	 SCS Same-Spin Energy      =      -0.1731348367236067 [Eh]
	 SCS Opposite-Spin Energy  =      -1.9437170184447672 [Eh]
	 SCS Correlation Energy    =      -2.1168518551683739 [Eh]
	 SCS Total Energy          =    -514.4408033296847407 [Eh]
	-----------------------------------------------------------

  Dipole Moment: [D]
     X:    -7.8209      Y:     1.0979      Z:     1.2792     Total:     8.0005

*** Psi4 exiting successfully. Buy a developer a beer!
