                               Psi4 1.3.2 release

  ==> Input File <==

--------------------------------------------------------------------------
#psi4
#
memory 32 gb

molecule  {
-1 1
  O       -1.6024110     1.2883820    -0.5634480
  O        2.0191420    -1.7287390     0.1939930
  O        3.3803020    -0.0587520    -0.5397320
  N       -0.1147610    -0.2476350     0.2334190
  C        1.0875530     0.4615680    -0.1724770
  C        1.3782960     1.6508690     0.7367710
  C       -2.4731170    -0.8032840     0.3122730
  C       -1.3649450     0.1785500    -0.0525630
  C        2.1831073    -0.4982091    -0.1843828
  C       -3.8468580    -0.3344400    -0.1480570
  H        0.9550610     0.8289670    -1.1997950
  H        0.0672430    -1.2232590     0.4643770
  H        1.5293690     1.3045580     1.7644240
  H        2.2851470     2.1591780     0.4026320
  H        0.5420990     2.3541860     0.7225810
  H       -2.2325720    -1.7800520    -0.1237300
  H       -2.4588320    -0.9441430     1.3993390
  H       -4.0995650     0.6270340     0.3028840
  H       -3.8738130    -0.2132220    -1.2332140
  H       -4.6116960    -1.0622230     0.1365660
units angstrom
no_reorient  #important for SAPT in psi4, default
symmetry c1  #important for SAPT in psi4, default
}

set PROPERTIES_ORIGIN ["COM"]
properties('MP2/aug-cc-pvtz', properties = ['dipole'])
--------------------------------------------------------------------------

    Molecular point group: c1
  Charge       = -1
  Multiplicity = 1
  Basis Set: AUG-CC-PVTZ
    Blend: AUG-CC-PVTZ
  Basis Set: (AUG-CC-PVTZ AUX)
    Blend: AUG-CC-PVTZ-JKFIT

    Orbital Energies [Eh]
    ---------------------

    Doubly Occupied:

       1A    -20.396065     2A    -20.324304     3A    -20.305727
       4A    -15.442873     5A    -11.227852     6A    -11.165100
       7A    -11.138214     8A    -11.126560     9A    -11.122590
      10A    -11.082149    11A     -1.246104    12A     -1.171202
      13A     -1.093913    14A     -1.055299    15A     -0.953304
      16A     -0.891796    17A     -0.788623    18A     -0.740340
      19A     -0.646459    20A     -0.598957    21A     -0.547937
      22A     -0.536662    23A     -0.517237    24A     -0.484590
      25A     -0.468674    26A     -0.440784    27A     -0.427361
      28A     -0.419954    29A     -0.412700    30A     -0.400884
      31A     -0.394924    32A     -0.377153    33A     -0.367432
      34A     -0.327453    35A     -0.302544    36A     -0.261774
      37A     -0.241765    38A     -0.216843    39A     -0.202450

  @DF-RHF Final Energy:  -512.31577083694674

   => Energetics <=

    Nuclear Repulsion Energy =            533.9852749804598488
    One-Electron Energy =               -1772.8689835267841772
    Two-Electron Energy =                 726.5679377093774747
    Total Energy =                       -512.3157708369467400
  Basis Set: (AUG-CC-PVTZ AUX)
    Blend: AUG-CC-PVTZ-RI
    Molecular point group: c1

    Geometry (in Angstrom), charge = -1, multiplicity = 1:

       Center              X                  Y                   Z               Mass
    ------------   -----------------  -----------------  -----------------  -----------------
         O           -1.676710172727     1.298954489152    -0.544579412444    15.994914619570
         O            1.944842827273    -1.718166510848     0.212861587556    15.994914619570
         O            3.306002827273    -0.048179510848    -0.520863412444    15.994914619570
         N           -0.189060172727    -0.237062510848     0.252287587556    14.003074004430
         C            1.013253827273     0.472140489152    -0.153608412444    12.000000000000
         C            1.303996827273     1.661441489152     0.755639587556    12.000000000000
         C           -2.547416172727    -0.792711510848     0.331141587556    12.000000000000
         C           -1.439244172727     0.189122489152    -0.033694412444    12.000000000000
         C            2.108808127273    -0.487636610848    -0.165514212444    12.000000000000
         C           -3.921157172727    -0.323867510848    -0.129188412444    12.000000000000
         H            0.880761827273     0.839539489152    -1.180926412444     1.007825032230
         H           -0.007056172727    -1.212686510848     0.483245587556     1.007825032230
         H            1.455069827273     1.315130489152     1.783292587556     1.007825032230
         H            2.210847827273     2.169750489152     0.421500587556     1.007825032230
         H            0.467799827273     2.364758489152     0.741449587556     1.007825032230
         H           -2.306871172727    -1.769479510848    -0.104861412444     1.007825032230
         H           -2.533131172727    -0.933570510848     1.418207587556     1.007825032230
         H           -4.173864172727     0.637606489152     0.321752587556     1.007825032230
         H           -3.948112172727    -0.202649510848    -1.214345412444     1.007825032230
         H           -4.685995172727    -1.051650510848     0.155434587556     1.007825032230

  Basis Set: AUG-CC-PVTZ
    Blend: AUG-CC-PVTZ
  Basis Set: (AUG-CC-PVTZ AUX)
    Blend: AUG-CC-PVTZ-JKFIT
	 Reference Energy          =    -512.3157708369467400 [Eh]
	 Singles Energy            =      -0.0000000000000000 [Eh]
	 Same-Spin Energy          =      -0.5223366391636806 [Eh]
	 Opposite-Spin Energy      =      -1.6260944960009627 [Eh]
	 Correlation Energy        =      -2.1484311351646435 [Eh]
	 Total Energy              =    -514.4642019721113684 [Eh]

	 ================> DF-SCS-MP2 Energies <==================
	-----------------------------------------------------------
	 SCS Same-Spin Scale       =       0.3333333333333333 [-]
	 SCS Opposite-Spin Scale   =       1.2000000000000000 [-]
	 SCS Same-Spin Energy      =      -0.1741122130545602 [Eh]
	 SCS Opposite-Spin Energy  =      -1.9513133952011552 [Eh]
	 SCS Correlation Energy    =      -2.1254256082557155 [Eh]
	 SCS Total Energy          =    -514.4411964452024222 [Eh]
	-----------------------------------------------------------

  Dipole Moment: [D]
     X:    -9.2783      Y:     0.8461      Z:     1.6959     Total:     9.4699

*** Psi4 exiting successfully. Buy a developer a beer!
