                               Psi4 1.3.2 release

  ==> Input File <==

--------------------------------------------------------------------------
#psi4
#
memory 32 gb

molecule  {
-1 1
  O       -1.5024663     1.4658504    -0.6597189
  O        2.0191420    -1.7287390     0.1939930
  O        3.3480184    -0.0052477    -0.5610698
  N       -0.1147610    -0.2476350     0.2334190
  C        1.0875530     0.4615680    -0.1724770
  C        1.3782960     1.6508690     0.7367710
  C       -2.4731170    -0.8032840     0.3122730
  C       -1.3649450     0.1785500    -0.0525630
  C        2.2731730    -0.5407160    -0.1753640
  C       -3.8468580    -0.3344400    -0.1480570
  H        0.9550610     0.8289670    -1.1997950
  H        0.0672430    -1.2232590     0.4643770
  H        1.5293690     1.3045580     1.7644240
  H        2.2851470     2.1591780     0.4026320
  H        0.5420990     2.3541860     0.7225810
  H       -2.2325720    -1.7800520    -0.1237300
  H       -2.4588320    -0.9441430     1.3993390
  H       -4.0995650     0.6270340     0.3028840
  H       -3.8738130    -0.2132220    -1.2332140
  H       -4.6116960    -1.0622230     0.1365660
units angstrom
no_reorient  #important for SAPT in psi4, default
symmetry c1  #important for SAPT in psi4, default
}

set PROPERTIES_ORIGIN ["COM"]
properties('MP2/aug-cc-pvtz', properties = ['dipole'])
--------------------------------------------------------------------------

    Molecular point group: c1
  Charge       = -1
  Multiplicity = 1
  Basis Set: AUG-CC-PVTZ
    Blend: AUG-CC-PVTZ
  Basis Set: (AUG-CC-PVTZ AUX)
    Blend: AUG-CC-PVTZ-JKFIT

    Orbital Energies [Eh]
    ---------------------

    Doubly Occupied:

       1A    -20.382944     2A    -20.329915     3A    -20.317986
       4A    -15.460239     5A    -11.246858     6A    -11.166363
       7A    -11.152073     8A    -11.129932     9A    -11.114142
      10A    -11.073155    11A     -1.197072    12A     -1.162651
      13A     -1.098752    14A     -1.069386    15A     -0.959737
      16A     -0.880409    17A     -0.791662    18A     -0.723898
      19A     -0.650189    20A     -0.589349    21A     -0.540446
      22A     -0.536809    23A     -0.511280    24A     -0.468702
      25A     -0.455337    26A     -0.434018    27A     -0.430905
      28A     -0.419308    29A     -0.410373    30A     -0.398622
      31A     -0.392382    32A     -0.369004    33A     -0.363798
      34A     -0.324522    35A     -0.288481    36A     -0.255040
      37A     -0.244456    38A     -0.224731    39A     -0.220169

  @DF-RHF Final Energy:  -512.28549958891313

   => Energetics <=

    Nuclear Repulsion Energy =            529.0608846889298320
    One-Electron Energy =               -1763.1225747772868999
    Two-Electron Energy =                 721.7761904994438282
    Total Energy =                       -512.2854995889131260
  Basis Set: (AUG-CC-PVTZ AUX)
    Blend: AUG-CC-PVTZ-RI
    Molecular point group: c1

    Geometry (in Angstrom), charge = -1, multiplicity = 1:

       Center              X                  Y                   Z               Mass
    ------------   -----------------  -----------------  -----------------  -----------------
         O           -1.591779569695     1.454319795370    -0.628544045345    15.994914619570
         O            1.929828730305    -1.740269604630     0.225167854655    15.994914619570
         O            3.258705130305    -0.016778304630    -0.529894945345    15.994914619570
         N           -0.204074269695    -0.259165604630     0.264593854655    14.003074004430
         C            0.998239730305     0.450037395370    -0.141302145345    12.000000000000
         C            1.288982730305     1.639338395370     0.767945854655    12.000000000000
         C           -2.562430269695    -0.814814604630     0.343447854655    12.000000000000
         C           -1.454258269695     0.167019395370    -0.021388145345    12.000000000000
         C            2.183859730305    -0.552246604630    -0.144189145345    12.000000000000
         C           -3.936171269695    -0.345970604630    -0.116882145345    12.000000000000
         H            0.865747730305     0.817436395370    -1.168620145345     1.007825032230
         H           -0.022070269695    -1.234789604630     0.495551854655     1.007825032230
         H            1.440055730305     1.293027395370     1.795598854655     1.007825032230
         H            2.195833730305     2.147647395370     0.433806854655     1.007825032230
         H            0.452785730305     2.342655395370     0.753755854655     1.007825032230
         H           -2.321885269695    -1.791582604630    -0.092555145345     1.007825032230
         H           -2.548145269695    -0.955673604630     1.430513854655     1.007825032230
         H           -4.188878269695     0.615503395370     0.334058854655     1.007825032230
         H           -3.963126269695    -0.224752604630    -1.202039145345     1.007825032230
         H           -4.701009269695    -1.073753604630     0.167740854655     1.007825032230

  Basis Set: AUG-CC-PVTZ
    Blend: AUG-CC-PVTZ
  Basis Set: (AUG-CC-PVTZ AUX)
    Blend: AUG-CC-PVTZ-JKFIT
	 Reference Energy          =    -512.2854995889131260 [Eh]
	 Singles Energy            =      -0.0000000000000000 [Eh]
	 Same-Spin Energy          =      -0.5240245097986429 [Eh]
	 Opposite-Spin Energy      =      -1.6315945009058330 [Eh]
	 Correlation Energy        =      -2.1556190107044761 [Eh]
	 Total Energy              =    -514.4411185996176528 [Eh]

	 ================> DF-SCS-MP2 Energies <==================
	-----------------------------------------------------------
	 SCS Same-Spin Scale       =       0.3333333333333333 [-]
	 SCS Opposite-Spin Scale   =       1.2000000000000000 [-]
	 SCS Same-Spin Energy      =      -0.1746748365995476 [Eh]
	 SCS Opposite-Spin Energy  =      -1.9579134010869996 [Eh]
	 SCS Correlation Energy    =      -2.1325882376865470 [Eh]
	 SCS Total Energy          =    -514.4180878265996171 [Eh]
	-----------------------------------------------------------

  Dipole Moment: [D]
     X:    -8.3511      Y:    -0.3291      Z:     2.0479     Total:     8.6049

*** Psi4 exiting successfully. Buy a developer a beer!
