                               Psi4 1.3.2 release

  ==> Input File <==

--------------------------------------------------------------------------
#psi4
#
memory 32 gb

molecule  {
-1 1
  O       -1.6024110     1.2883820    -0.5634480
  O        2.0191420    -1.7287390     0.1939930
  O        3.3803020    -0.0587520    -0.5397320
  N       -0.1147610    -0.2476350     0.2334190
  C        1.0946343     0.4526438    -0.1668959
  C        1.3782960     1.6508690     0.7367710
  C       -2.4731170    -0.8032840     0.3122730
  C       -1.3693711     0.1691698    -0.0469498
  C        2.2731730    -0.5407160    -0.1753640
  C       -3.8468580    -0.3344400    -0.1480570
  H        0.9550610     0.8289670    -1.1997950
  H        0.0672430    -1.2232590     0.4643770
  H        1.5293690     1.3045580     1.7644240
  H        2.2851470     2.1591780     0.4026320
  H        0.5420990     2.3541860     0.7225810
  H       -2.2325720    -1.7800520    -0.1237300
  H       -2.4588320    -0.9441430     1.3993390
  H       -4.0995650     0.6270340     0.3028840
  H       -3.8738130    -0.2132220    -1.2332140
  H       -4.6116960    -1.0622230     0.1365660
units angstrom
no_reorient  #important for SAPT in psi4, default
symmetry c1  #important for SAPT in psi4, default
}

set PROPERTIES_ORIGIN ["COM"]
properties('MP2/aug-cc-pvtz', properties = ['dipole'])
--------------------------------------------------------------------------

    Molecular point group: c1
  Charge       = -1
  Multiplicity = 1
  Basis Set: AUG-CC-PVTZ
    Blend: AUG-CC-PVTZ
  Basis Set: (AUG-CC-PVTZ AUX)
    Blend: AUG-CC-PVTZ-JKFIT

    Orbital Energies [Eh]
    ---------------------

    Doubly Occupied:

       1A    -20.390333     2A    -20.322168     3A    -20.313813
       4A    -15.438798     5A    -11.224351     6A    -11.161682
       7A    -11.136203     8A    -11.124938     9A    -11.115751
      10A    -11.075834    11A     -1.235900    12A     -1.190953
      13A     -1.096451    14A     -1.080796    15A     -0.951277
      16A     -0.878839    17A     -0.785902    18A     -0.722566
      19A     -0.638796    20A     -0.589468    21A     -0.543650
      22A     -0.533825    23A     -0.510014    24A     -0.481103
      25A     -0.465829    26A     -0.437723    27A     -0.426733
      28A     -0.419738    29A     -0.413154    30A     -0.403937
      31A     -0.396841    32A     -0.374524    33A     -0.369563
      34A     -0.339098    35A     -0.299794    36A     -0.256076
      37A     -0.237097    38A     -0.224423    39A     -0.215687

  @DF-RHF Final Energy:  -512.33465423760367

   => Energetics <=

    Nuclear Repulsion Energy =            533.4140830465745466
    One-Electron Energy =               -1771.8502156666654628
    Two-Electron Energy =                 726.1014783824873575
    Total Energy =                       -512.3346542376036723
  Basis Set: (AUG-CC-PVTZ AUX)
    Blend: AUG-CC-PVTZ-RI
    Molecular point group: c1

    Geometry (in Angstrom), charge = -1, multiplicity = 1:

       Center              X                  Y                   Z               Mass
    ------------   -----------------  -----------------  -----------------  -----------------
         O           -1.684433370938     1.304019773498    -0.546263064973    15.994914619570
         O            1.937119629062    -1.713101226502     0.211177935027    15.994914619570
         O            3.298279629062    -0.043114226502    -0.522547064973    15.994914619570
         N           -0.196783370938    -0.231997226502     0.250603935027    14.003074004430
         C            1.012611929062     0.468281573498    -0.149710964973    12.000000000000
         C            1.296273629062     1.666506773498     0.753955935027    12.000000000000
         C           -2.555139370938    -0.787646226502     0.329457935027    12.000000000000
         C           -1.451393470938     0.184807573498    -0.029764864973    12.000000000000
         C            2.191150629062    -0.525078226502    -0.158179064973    12.000000000000
         C           -3.928880370938    -0.318802226502    -0.130872064973    12.000000000000
         H            0.873038629062     0.844604773498    -1.182610064973     1.007825032230
         H           -0.014779370938    -1.207621226502     0.481561935027     1.007825032230
         H            1.447346629062     1.320195773498     1.781608935027     1.007825032230
         H            2.203124629062     2.174815773498     0.419816935027     1.007825032230
         H            0.460076629062     2.369823773498     0.739765935027     1.007825032230
         H           -2.314594370938    -1.764414226502    -0.106545064973     1.007825032230
         H           -2.540854370938    -0.928505226502     1.416523935027     1.007825032230
         H           -4.181587370938     0.642671773498     0.320068935027     1.007825032230
         H           -3.955835370938    -0.197584226502    -1.216029064973     1.007825032230
         H           -4.693718370938    -1.046585226502     0.153750935027     1.007825032230

  Basis Set: AUG-CC-PVTZ
    Blend: AUG-CC-PVTZ
  Basis Set: (AUG-CC-PVTZ AUX)
    Blend: AUG-CC-PVTZ-JKFIT
	 Reference Energy          =    -512.3346542376036723 [Eh]
	 Singles Energy            =      -0.0000000000000000 [Eh]
	 Same-Spin Energy          =      -0.5204165320564379 [Eh]
	 Opposite-Spin Energy      =      -1.6218590110797453 [Eh]
	 Correlation Energy        =      -2.1422755431361833 [Eh]
	 Total Energy              =    -514.4769297807398516 [Eh]

	 ================> DF-SCS-MP2 Energies <==================
	-----------------------------------------------------------
	 SCS Same-Spin Scale       =       0.3333333333333333 [-]
	 SCS Opposite-Spin Scale   =       1.2000000000000000 [-]
	 SCS Same-Spin Energy      =      -0.1734721773521460 [Eh]
	 SCS Opposite-Spin Energy  =      -1.9462308132956943 [Eh]
	 SCS Correlation Energy    =      -2.1197029906478404 [Eh]
	 SCS Total Energy          =    -514.4543572282515242 [Eh]
	-----------------------------------------------------------

  Dipole Moment: [D]
     X:    -8.6991      Y:     0.5742      Z:     1.6355     Total:     8.8701

*** Psi4 exiting successfully. Buy a developer a beer!
