                               Psi4 1.4a3.dev225

  ==> Input File <==

--------------------------------------------------------------------------
#psi4
#
memory 32 gb

molecule  {
-1 1
  O       -1.5868420     1.2523650    -0.8113290
  O        2.0299390    -1.6922460     0.2543140
  O        3.4074630     0.0142020    -0.3584910
  N       -0.1383540    -0.2870410     0.0455440
  C        1.0782140     0.4735880    -0.1782270
  C        1.2275190     1.6106150     0.8299030
  C       -2.4816390    -0.8906360    -0.1487800
  C       -1.3641120     0.1217370    -0.3343690
  C        2.2410606    -0.5179085    -0.0818258
  C       -3.7126180    -0.2515540     0.4884160
  H        1.0494870     0.8996880    -1.1894520
  H        0.0515970    -1.2513350     0.3145600
  H        1.2660770     1.2028380     1.8451460
  H        2.1536960     2.1558630     0.6353850
  H        0.3800930     2.2967220     0.7589720
  H       -2.7387560    -1.2794370    -1.1416750
  H       -2.1327770    -1.7398080     0.4477120
  H       -3.4838230     0.1112750     1.4946450
  H       -4.0489630     0.5957980    -0.1116680
  H       -4.5299760    -0.9736440     0.5641870
units angstrom
no_reorient  #important for SAPT in psi4, default
symmetry c1  #important for SAPT in psi4, default
}

set PROPERTIES_ORIGIN ["COM"]
properties('MP2/aug-cc-pvtz', properties = ['dipole'])
--------------------------------------------------------------------------

    Molecular point group: c1
  Charge       = -1
  Multiplicity = 1
  Basis Set: AUG-CC-PVTZ
    Blend: AUG-CC-PVTZ
  Basis Set: (AUG-CC-PVTZ AUX)
    Blend: AUG-CC-PVTZ-JKFIT

    Orbital Energies [Eh]
    ---------------------

    Doubly Occupied:

       1A    -20.389229     2A    -20.333111     3A    -20.303304
       4A    -15.444384     5A    -11.224217     6A    -11.162989
       7A    -11.135956     8A    -11.128471     9A    -11.117885
      10A    -11.078384    11A     -1.240540    12A     -1.197058
      13A     -1.093380    14A     -1.073334    15A     -0.952049
      16A     -0.881638    17A     -0.785725    18A     -0.729724
      19A     -0.645724    20A     -0.591903    21A     -0.547852
      22A     -0.524746    23A     -0.516947    24A     -0.485086
      25A     -0.466719    26A     -0.443618    27A     -0.435961
      28A     -0.415195    29A     -0.412301    30A     -0.405976
      31A     -0.396825    32A     -0.377016    33A     -0.369871
      34A     -0.341622    35A     -0.297929    36A     -0.260089
      37A     -0.239370    38A     -0.219441    39A     -0.210113

  @DF-RHF Final Energy:  -512.33079420503714

   => Energetics <=

    Nuclear Repulsion Energy =            534.6084179388589064
    One-Electron Energy =               -1774.1270555474898174
    Two-Electron Energy =                 727.1878434035936607
    Total Energy =                       -512.3307942050371366
  Basis Set: (AUG-CC-PVTZ AUX)
    Blend: AUG-CC-PVTZ-RI
    Molecular point group: c1

    Geometry (in Angstrom), charge = -1, multiplicity = 1:

       Center              X                  Y                   Z               Mass
    ------------   -----------------  -----------------  -----------------  -----------------
         O           -1.665872309966     1.267943318003    -0.787325038142    15.994914619570
         O            1.950908690034    -1.676667681997     0.278317961858    15.994914619570
         O            3.328432690034     0.029780318003    -0.334487038142    15.994914619570
         N           -0.217384309966    -0.271462681997     0.069547961858    14.003074004430
         C            0.999183690034     0.489166318003    -0.154223038142    12.000000000000
         C            1.148488690034     1.626193318003     0.853906961858    12.000000000000
         C           -2.560669309966    -0.875057681997    -0.124776038142    12.000000000000
         C           -1.443142309966     0.137315318003    -0.310365038142    12.000000000000
         C            2.162030290034    -0.502330181997    -0.057821838142    12.000000000000
         C           -3.791648309966    -0.235975681997     0.512419961858    12.000000000000
         H            0.970456690034     0.915266318003    -1.165448038142     1.007825032230
         H           -0.027433309966    -1.235756681997     0.338563961858     1.007825032230
         H            1.187046690034     1.218416318003     1.869149961858     1.007825032230
         H            2.074665690034     2.171441318003     0.659388961858     1.007825032230
         H            0.301062690034     2.312300318003     0.782975961858     1.007825032230
         H           -2.817786309966    -1.263858681997    -1.117671038142     1.007825032230
         H           -2.211807309966    -1.724229681997     0.471715961858     1.007825032230
         H           -3.562853309966     0.126853318003     1.518648961858     1.007825032230
         H           -4.127993309966     0.611376318003    -0.087664038142     1.007825032230
         H           -4.609006309966    -0.958065681997     0.588190961858     1.007825032230

  Basis Set: AUG-CC-PVTZ
    Blend: AUG-CC-PVTZ
  Basis Set: (AUG-CC-PVTZ AUX)
    Blend: AUG-CC-PVTZ-JKFIT
	 Reference Energy          =    -512.3307942050371366 [Eh]
	 Singles Energy            =      -0.0000000000000000 [Eh]
	 Same-Spin Energy          =      -0.5208340127113436 [Eh]
	 Opposite-Spin Energy      =      -1.6227080852664695 [Eh]
	 Correlation Energy        =      -2.1435420979778130 [Eh]
	 Total Energy              =    -514.4743363030149794 [Eh]

	 ================> DF-SCS-MP2 Energies <==================
	-----------------------------------------------------------
	 SCS Same-Spin Scale       =       0.3333333333333333 [-]
	 SCS Opposite-Spin Scale   =       1.2000000000000000 [-]
	 SCS Same-Spin Energy      =      -0.1736113375704478 [Eh]
	 SCS Opposite-Spin Energy  =      -1.9472497023197632 [Eh]
	 SCS Correlation Energy    =      -2.1208610398902112 [Eh]
	 SCS Total Energy          =    -514.4516552449273377 [Eh]
	-----------------------------------------------------------

  Dipole Moment: [D]
     X:    -9.0715      Y:     0.1473      Z:     1.3470     Total:     9.1721

*** Psi4 exiting successfully. Buy a developer a beer!
