                               Psi4 1.3.2 release

  ==> Input File <==

--------------------------------------------------------------------------
#psi4
#
memory 32 gb

molecule  {
-1 1
  O       -1.6024110     1.2883820    -0.5634480
  O        2.0191420    -1.7287390     0.1939930
  O        3.3803020    -0.0587520    -0.5397320
  N       -0.1147610    -0.2476350     0.2334190
  C        1.0875530     0.4615680    -0.1724770
  C        1.3782960     1.6508690     0.7367710
  C       -2.4731170    -0.8032840     0.3122730
  C       -1.3586512     0.1688883    -0.0592044
  C        2.2731730    -0.5407160    -0.1753640
  C       -3.8468580    -0.3344400    -0.1480570
  H        0.9550610     0.8289670    -1.1997950
  H        0.0672430    -1.2232590     0.4643770
  H        1.5293690     1.3045580     1.7644240
  H        2.2851470     2.1591780     0.4026320
  H        0.5420990     2.3541860     0.7225810
  H       -2.2245379    -1.7763841    -0.1274096
  H       -2.4588320    -0.9441430     1.3993390
  H       -4.0995650     0.6270340     0.3028840
  H       -3.8738130    -0.2132220    -1.2332140
  H       -4.6116960    -1.0622230     0.1365660
units angstrom
no_reorient  #important for SAPT in psi4, default
symmetry c1  #important for SAPT in psi4, default
}

set PROPERTIES_ORIGIN ["COM"]
properties('MP2/aug-cc-pvtz', properties = ['dipole'])
--------------------------------------------------------------------------

    Molecular point group: c1
  Charge       = -1
  Multiplicity = 1
  Basis Set: AUG-CC-PVTZ
    Blend: AUG-CC-PVTZ
  Basis Set: (AUG-CC-PVTZ AUX)
    Blend: AUG-CC-PVTZ-JKFIT

    Orbital Energies [Eh]
    ---------------------

    Doubly Occupied:

       1A    -20.389768     2A    -20.322828     3A    -20.314214
       4A    -15.439464     5A    -11.223062     6A    -11.162453
       7A    -11.135402     8A    -11.124224     9A    -11.115483
      10A    -11.075939    11A     -1.237273    12A     -1.190991
      13A     -1.097817    14A     -1.082506    15A     -0.949034
      16A     -0.879582    17A     -0.784286    18A     -0.721930
      19A     -0.640489    20A     -0.588366    21A     -0.542056
      22A     -0.533312    23A     -0.511320    24A     -0.481285
      25A     -0.466021    26A     -0.438524    27A     -0.426259
      28A     -0.419200    29A     -0.412754    30A     -0.404047
      31A     -0.396580    32A     -0.375495    33A     -0.369966
      34A     -0.341158    35A     -0.298314    36A     -0.258055
      37A     -0.237424    38A     -0.223536    39A     -0.216113

  @DF-RHF Final Energy:  -512.33561975068130

   => Energetics <=

    Nuclear Repulsion Energy =            533.4546553990344364
    One-Electron Energy =               -1771.9274858360952294
    Two-Electron Energy =                 726.1372106863794897
    Total Energy =                       -512.3356197506813032
  Basis Set: (AUG-CC-PVTZ AUX)
    Blend: AUG-CC-PVTZ-RI
    Molecular point group: c1

    Geometry (in Angstrom), charge = -1, multiplicity = 1:

       Center              X                  Y                   Z               Mass
    ------------   -----------------  -----------------  -----------------  -----------------
         O           -1.684792651702     1.303274219720    -0.544751697336    15.994914619570
         O            1.936760348298    -1.713846780280     0.212689302664    15.994914619570
         O            3.297920348298    -0.043859780280    -0.521035697336    15.994914619570
         N           -0.197142651702    -0.232742780280     0.252115302664    14.003074004430
         C            1.005171348298     0.476460219720    -0.153780697336    12.000000000000
         C            1.295914348298     1.665761219720     0.755467302664    12.000000000000
         C           -2.555498651702    -0.788391780280     0.330969302664    12.000000000000
         C           -1.441032851702     0.183780519720    -0.040508097336    12.000000000000
         C            2.190791348298    -0.525823780280    -0.156667697336    12.000000000000
         C           -3.929239651702    -0.319547780280    -0.129360697336    12.000000000000
         H            0.872679348298     0.843859219720    -1.181098697336     1.007825032230
         H           -0.015138651702    -1.208366780280     0.483073302664     1.007825032230
         H            1.446987348298     1.319450219720     1.783120302664     1.007825032230
         H            2.202765348298     2.174070219720     0.421328302664     1.007825032230
         H            0.459717348298     2.369078219720     0.741277302664     1.007825032230
         H           -2.306919551702    -1.761491880280    -0.108713297336     1.007825032230
         H           -2.541213651702    -0.929250780280     1.418035302664     1.007825032230
         H           -4.181946651702     0.641926219720     0.321580302664     1.007825032230
         H           -3.956194651702    -0.198329780280    -1.214517697336     1.007825032230
         H           -4.694077651702    -1.047330780280     0.155262302664     1.007825032230

  Basis Set: AUG-CC-PVTZ
    Blend: AUG-CC-PVTZ
  Basis Set: (AUG-CC-PVTZ AUX)
    Blend: AUG-CC-PVTZ-JKFIT
	 Reference Energy          =    -512.3356197506813032 [Eh]
	 Singles Energy            =      -0.0000000000000000 [Eh]
	 Same-Spin Energy          =      -0.5202590125498479 [Eh]
	 Opposite-Spin Energy      =      -1.6215420801548799 [Eh]
	 Correlation Energy        =      -2.1418010927047275 [Eh]
	 Total Energy              =    -514.4774208433860849 [Eh]

	 ================> DF-SCS-MP2 Energies <==================
	-----------------------------------------------------------
	 SCS Same-Spin Scale       =       0.3333333333333333 [-]
	 SCS Opposite-Spin Scale   =       1.2000000000000000 [-]
	 SCS Same-Spin Energy      =      -0.1734196708499493 [Eh]
	 SCS Opposite-Spin Energy  =      -1.9458504961858558 [Eh]
	 SCS Correlation Energy    =      -2.1192701670358050 [Eh]
	 SCS Total Energy          =    -514.4548899177170824 [Eh]
	-----------------------------------------------------------

  Dipole Moment: [D]
     X:    -8.6180      Y:     0.5887      Z:     1.6145     Total:     8.7877

*** Psi4 exiting successfully. Buy a developer a beer!
