                               Psi4 1.3.2 release

  ==> Input File <==

--------------------------------------------------------------------------
#psi4
#
memory 32 gb

molecule  {
-1 1
  O       -1.6024110     1.2883820    -0.5634480
  O        2.0191420    -1.7287390     0.1939930
  O        3.3803020    -0.0587520    -0.5397320
  N       -0.1147610    -0.2476350     0.2334190
  C        1.0875530     0.4615680    -0.1724770
  C        1.3782960     1.6508690     0.7367710
  C       -2.4731170    -0.8032840     0.3122730
  C       -1.3649450     0.1785500    -0.0525630
  C        2.2731730    -0.5407160    -0.1753640
  C       -3.8468580    -0.3344400    -0.1480570
  H        0.9671161     0.7955383    -1.1063220
  H        0.0672430    -1.2232590     0.4643770
  H        1.5293690     1.3045580     1.7644240
  H        2.2851470     2.1591780     0.4026320
  H        0.5420990     2.3541860     0.7225810
  H       -2.2325720    -1.7800520    -0.1237300
  H       -2.4588320    -0.9441430     1.3993390
  H       -4.0995650     0.6270340     0.3028840
  H       -3.8738130    -0.2132220    -1.2332140
  H       -4.6116960    -1.0622230     0.1365660
units angstrom
no_reorient  #important for SAPT in psi4, default
symmetry c1  #important for SAPT in psi4, default
}

set PROPERTIES_ORIGIN ["COM"]
properties('MP2/aug-cc-pvtz', properties = ['dipole'])
--------------------------------------------------------------------------

    Molecular point group: c1
  Charge       = -1
  Multiplicity = 1
  Basis Set: AUG-CC-PVTZ
    Blend: AUG-CC-PVTZ
  Basis Set: (AUG-CC-PVTZ AUX)
    Blend: AUG-CC-PVTZ-JKFIT

    Orbital Energies [Eh]
    ---------------------

    Doubly Occupied:

       1A    -20.391472     2A    -20.321934     3A    -20.314037
       4A    -15.436948     5A    -11.223376     6A    -11.161412
       7A    -11.135170     8A    -11.124224     9A    -11.102464
      10A    -11.074736    11A     -1.241496    12A     -1.190561
      13A     -1.096554    14A     -1.081353    15A     -0.949574
      16A     -0.881992    17A     -0.783704    18A     -0.725064
      19A     -0.644187    20A     -0.588994    21A     -0.541906
      22A     -0.535377    23A     -0.518875    24A     -0.482771
      25A     -0.466298    26A     -0.439190    27A     -0.425686
      28A     -0.419159    29A     -0.413355    30A     -0.403659
      31A     -0.396820    32A     -0.375795    33A     -0.373043
      34A     -0.345557    35A     -0.299648    36A     -0.257747
      37A     -0.236998    38A     -0.222850    39A     -0.215653

  @DF-RHF Final Energy:  -512.33097740401377

   => Energetics <=

    Nuclear Repulsion Energy =            533.9843468837279943
    One-Electron Energy =               -1772.9513696050739782
    Two-Electron Energy =                 726.6360453173322185
    Total Energy =                       -512.3309774040137654
  Basis Set: (AUG-CC-PVTZ AUX)
    Blend: AUG-CC-PVTZ-RI
    Molecular point group: c1

    Geometry (in Angstrom), charge = -1, multiplicity = 1:

       Center              X                  Y                   Z               Mass
    ------------   -----------------  -----------------  -----------------  -----------------
         O           -1.684296538103     1.302728959348    -0.545984531857    15.994914619570
         O            1.937256461897    -1.714392040652     0.211456468143    15.994914619570
         O            3.298416461897    -0.044405040652    -0.522268531857    15.994914619570
         N           -0.196646538103    -0.233288040652     0.250882468143    14.003074004430
         C            1.005667461897     0.475914959348    -0.155013531857    12.000000000000
         C            1.296410461897     1.665215959348     0.754234468143    12.000000000000
         C           -2.555002538103    -0.788937040652     0.329736468143    12.000000000000
         C           -1.446830538103     0.192896959348    -0.035099531857    12.000000000000
         C            2.191287461897    -0.526369040652    -0.157900531857    12.000000000000
         C           -3.928743538103    -0.320093040652    -0.130593531857    12.000000000000
         H            0.885230561897     0.809885259348    -1.088858531857     1.007825032230
         H           -0.014642538103    -1.208912040652     0.481840468143     1.007825032230
         H            1.447483461897     1.318904959348     1.781887468143     1.007825032230
         H            2.203261461897     2.173524959348     0.420095468143     1.007825032230
         H            0.460213461897     2.368532959348     0.740044468143     1.007825032230
         H           -2.314457538103    -1.765705040652    -0.106266531857     1.007825032230
         H           -2.540717538103    -0.929796040652     1.416802468143     1.007825032230
         H           -4.181450538103     0.641380959348     0.320347468143     1.007825032230
         H           -3.955698538103    -0.198875040652    -1.215750531857     1.007825032230
         H           -4.693581538103    -1.047876040652     0.154029468143     1.007825032230

  Basis Set: AUG-CC-PVTZ
    Blend: AUG-CC-PVTZ
  Basis Set: (AUG-CC-PVTZ AUX)
    Blend: AUG-CC-PVTZ-JKFIT
	 Reference Energy          =    -512.3309774040137654 [Eh]
	 Singles Energy            =      -0.0000000000000000 [Eh]
	 Same-Spin Energy          =      -0.5199780816426873 [Eh]
	 Opposite-Spin Energy      =      -1.6207176866850381 [Eh]
	 Correlation Energy        =      -2.1406957683277255 [Eh]
	 Total Energy              =    -514.4716731723415251 [Eh]

	 ================> DF-SCS-MP2 Energies <==================
	-----------------------------------------------------------
	 SCS Same-Spin Scale       =       0.3333333333333333 [-]
	 SCS Opposite-Spin Scale   =       1.2000000000000000 [-]
	 SCS Same-Spin Energy      =      -0.1733260272142291 [Eh]
	 SCS Opposite-Spin Energy  =      -1.9448612240220458 [Eh]
	 SCS Correlation Energy    =      -2.1181872512362747 [Eh]
	 SCS Total Energy          =    -514.4491646552500015 [Eh]
	-----------------------------------------------------------

  Dipole Moment: [D]
     X:    -8.6678      Y:     0.6311      Z:     1.5640     Total:     8.8303

*** Psi4 exiting successfully. Buy a developer a beer!
