                               Psi4 1.3.2 release

  ==> Input File <==

--------------------------------------------------------------------------
#psi4
#
memory 32 gb

molecule  {
-1 1
  O       -1.6164148     1.2557395    -0.5756321
  O        2.0191420    -1.7287390     0.1939930
  O        3.3803020    -0.0587520    -0.5397320
  N       -0.1147610    -0.2476350     0.2334190
  C        1.0958390     0.4712650    -0.1679095
  C        1.3782960     1.6508690     0.7367710
  C       -2.4731170    -0.8032840     0.3122730
  C       -1.3649450     0.1785500    -0.0525630
  C        2.2731730    -0.5407160    -0.1753640
  C       -3.8468580    -0.3344400    -0.1480570
  H        0.9550610     0.8289670    -1.1997950
  H        0.0672430    -1.2232590     0.4643770
  H        1.5293690     1.3045580     1.7644240
  H        2.2851470     2.1591780     0.4026320
  H        0.5420990     2.3541860     0.7225810
  H       -2.2325720    -1.7800520    -0.1237300
  H       -2.4588320    -0.9441430     1.3993390
  H       -4.0995650     0.6270340     0.3028840
  H       -3.8738130    -0.2132220    -1.2332140
  H       -4.6116960    -1.0622230     0.1365660
units angstrom
no_reorient  #important for SAPT in psi4, default
symmetry c1  #important for SAPT in psi4, default
}

set PROPERTIES_ORIGIN ["COM"]
properties('MP2/aug-cc-pvtz', properties = ['dipole'])
--------------------------------------------------------------------------

    Molecular point group: c1
  Charge       = -1
  Multiplicity = 1
  Basis Set: AUG-CC-PVTZ
    Blend: AUG-CC-PVTZ
  Basis Set: (AUG-CC-PVTZ AUX)
    Blend: AUG-CC-PVTZ-JKFIT

    Orbital Energies [Eh]
    ---------------------

    Doubly Occupied:

       1A    -20.391965     2A    -20.322208     3A    -20.313548
       4A    -15.434747     5A    -11.219396     6A    -11.161819
       7A    -11.132290     8A    -11.123113     9A    -11.114990
      10A    -11.076046    11A     -1.253570    12A     -1.190519
      13A     -1.095577    14A     -1.080102    15A     -0.947276
      16A     -0.880355    17A     -0.782477    18A     -0.720146
      19A     -0.637334    20A     -0.587817    21A     -0.542063
      22A     -0.532438    23A     -0.512158    24A     -0.485715
      25A     -0.466486    26A     -0.439659    27A     -0.425341
      28A     -0.420120    29A     -0.413258    30A     -0.405170
      31A     -0.396056    32A     -0.377567    33A     -0.369845
      34A     -0.343006    35A     -0.298882    36A     -0.257547
      37A     -0.236731    38A     -0.222837    39A     -0.215405

  @DF-RHF Final Energy:  -512.33759512391646

   => Energetics <=

    Nuclear Repulsion Energy =            533.9288721902836414
    One-Electron Energy =               -1772.8817764267712391
    Two-Electron Energy =                 726.6153091125710262
    Total Energy =                       -512.3375951239164579
  Basis Set: (AUG-CC-PVTZ AUX)
    Blend: AUG-CC-PVTZ-RI
    Molecular point group: c1

    Geometry (in Angstrom), charge = -1, multiplicity = 1:

       Center              X                  Y                   Z               Mass
    ------------   -----------------  -----------------  -----------------  -----------------
         O           -1.697351419190     1.272669022505    -0.556542446931    15.994914619570
         O            1.938205380810    -1.711809477495     0.213082653069    15.994914619570
         O            3.299365380810    -0.041822477495    -0.520642346931    15.994914619570
         N           -0.195697619190    -0.230705477495     0.252508653069    14.003074004430
         C            1.014902380810     0.488194522505    -0.148819846931    12.000000000000
         C            1.297359380810     1.667798522505     0.755860653069    12.000000000000
         C           -2.554053619190    -0.786354477495     0.331362653069    12.000000000000
         C           -1.445881619190     0.195479522505    -0.033473346931    12.000000000000
         C            2.192236380810    -0.523786477495    -0.156274346931    12.000000000000
         C           -3.927794619190    -0.317510477495    -0.128967346931    12.000000000000
         H            0.874124380810     0.845896522505    -1.180705346931     1.007825032230
         H           -0.013693619190    -1.206329477495     0.483466653069     1.007825032230
         H            1.448432380810     1.321487522505     1.783513653069     1.007825032230
         H            2.204210380810     2.176107522505     0.421721653069     1.007825032230
         H            0.461162380810     2.371115522505     0.741670653069     1.007825032230
         H           -2.313508619190    -1.763122477495    -0.104640346931     1.007825032230
         H           -2.539768619190    -0.927213477495     1.418428653069     1.007825032230
         H           -4.180501619190     0.643963522505     0.321973653069     1.007825032230
         H           -3.954749619190    -0.196292477495    -1.214124346931     1.007825032230
         H           -4.692632619190    -1.045293477495     0.155655653069     1.007825032230

  Basis Set: AUG-CC-PVTZ
    Blend: AUG-CC-PVTZ
  Basis Set: (AUG-CC-PVTZ AUX)
    Blend: AUG-CC-PVTZ-JKFIT
	 Reference Energy          =    -512.3375951239164579 [Eh]
	 Singles Energy            =      -0.0000000000000000 [Eh]
	 Same-Spin Energy          =      -0.5196925218227761 [Eh]
	 Opposite-Spin Energy      =      -1.6201910755617921 [Eh]
	 Correlation Energy        =      -2.1398835973845682 [Eh]
	 Total Energy              =    -514.4774787213010541 [Eh]

	 ================> DF-SCS-MP2 Energies <==================
	-----------------------------------------------------------
	 SCS Same-Spin Scale       =       0.3333333333333333 [-]
	 SCS Opposite-Spin Scale   =       1.2000000000000000 [-]
	 SCS Same-Spin Energy      =      -0.1732308406075920 [Eh]
	 SCS Opposite-Spin Energy  =      -1.9442292906741505 [Eh]
	 SCS Correlation Energy    =      -2.1174601312817427 [Eh]
	 SCS Total Energy          =    -514.4550552551982037 [Eh]
	-----------------------------------------------------------

  Dipole Moment: [D]
     X:    -8.6526      Y:     0.7622      Z:     1.5892     Total:     8.8303

*** Psi4 exiting successfully. Buy a developer a beer!
