                               Psi4 1.3.2 release

  ==> Input File <==

--------------------------------------------------------------------------
#psi4
#
memory 32 gb

molecule  {
-1 1
  O       -1.6024110     1.2883820    -0.5634480
  O        2.0191420    -1.7287390     0.1939930
  O        3.3803020    -0.0587520    -0.5397320
  N       -0.1147610    -0.2476350     0.2334190
  C        1.0983974     0.4644593    -0.1796290
  C        1.3782960     1.6508690     0.7367710
  C       -2.4731170    -0.8032840     0.3122730
  C       -1.3649450     0.1785500    -0.0525630
  C        2.2731730    -0.5407160    -0.1753640
  C       -3.8468580    -0.3344400    -0.1480570
  H        0.9550610     0.8289670    -1.1997950
  H        0.0672430    -1.2232590     0.4643770
  H        1.5293690     1.3045580     1.7644240
  H        2.2860322     2.1528577     0.3955555
  H        0.5420990     2.3541860     0.7225810
  H       -2.2325720    -1.7800520    -0.1237300
  H       -2.4588320    -0.9441430     1.3993390
  H       -4.0995650     0.6270340     0.3028840
  H       -3.8738130    -0.2132220    -1.2332140
  H       -4.6116960    -1.0622230     0.1365660
units angstrom
no_reorient  #important for SAPT in psi4, default
symmetry c1  #important for SAPT in psi4, default
}

set PROPERTIES_ORIGIN ["COM"]
properties('MP2/aug-cc-pvtz', properties = ['dipole'])
--------------------------------------------------------------------------

    Molecular point group: c1
  Charge       = -1
  Multiplicity = 1
  Basis Set: AUG-CC-PVTZ
    Blend: AUG-CC-PVTZ
  Basis Set: (AUG-CC-PVTZ AUX)
    Blend: AUG-CC-PVTZ-JKFIT

    Orbital Energies [Eh]
    ---------------------

    Doubly Occupied:

       1A    -20.391118     2A    -20.322525     3A    -20.313767
       4A    -15.437162     5A    -11.222942     6A    -11.161871
       7A    -11.134967     8A    -11.124060     9A    -11.115206
      10A    -11.075999    11A     -1.240805    12A     -1.190910
      13A     -1.095525    14A     -1.079836    15A     -0.948785
      16A     -0.879120    17A     -0.783226    18A     -0.721423
      19A     -0.638895    20A     -0.587835    21A     -0.541278
      22A     -0.532814    23A     -0.511650    24A     -0.482375
      25A     -0.465360    26A     -0.438284    27A     -0.425802
      28A     -0.419330    29A     -0.413229    30A     -0.405405
      31A     -0.396239    32A     -0.374548    33A     -0.369819
      34A     -0.342166    35A     -0.299000    36A     -0.257143
      37A     -0.237346    38A     -0.223766    39A     -0.215762

  @DF-RHF Final Energy:  -512.33599711651766

   => Energetics <=

    Nuclear Repulsion Energy =            533.3240586156530298
    One-Electron Energy =               -1771.6855214212509964
    Two-Electron Energy =                 726.0254656890803062
    Total Energy =                       -512.3359971165176603
  Basis Set: (AUG-CC-PVTZ AUX)
    Blend: AUG-CC-PVTZ-RI
    Molecular point group: c1

    Geometry (in Angstrom), charge = -1, multiplicity = 1:

       Center              X                  Y                   Z               Mass
    ------------   -----------------  -----------------  -----------------  -----------------
         O           -1.685121683793     1.302298489322    -0.544685403579    15.994914619570
         O            1.936431316207    -1.714822510678     0.212755596421    15.994914619570
         O            3.297591316207    -0.044835510678    -0.520969403579    15.994914619570
         N           -0.197471683793    -0.233718510678     0.252181596421    14.003074004430
         C            1.015686716207     0.478375789322    -0.160866403579    12.000000000000
         C            1.295585316207     1.664785489322     0.755533596421    12.000000000000
         C           -2.555827683793    -0.789367510678     0.331035596421    12.000000000000
         C           -1.447655683793     0.192466489322    -0.033800403579    12.000000000000
         C            2.190462316207    -0.526799510678    -0.156601403579    12.000000000000
         C           -3.929568683793    -0.320523510678    -0.129294403579    12.000000000000
         H            0.872350316207     0.842883489322    -1.181032403579     1.007825032230
         H           -0.015467683793    -1.209342510678     0.483139596421     1.007825032230
         H            1.446658316207     1.318474489322     1.783186596421     1.007825032230
         H            2.203321516207     2.166774189322     0.414318096421     1.007825032230
         H            0.459388316207     2.368102489322     0.741343596421     1.007825032230
         H           -2.315282683793    -1.766135510678    -0.104967403579     1.007825032230
         H           -2.541542683793    -0.930226510678     1.418101596421     1.007825032230
         H           -4.182275683793     0.640950489322     0.321646596421     1.007825032230
         H           -3.956523683793    -0.199305510678    -1.214451403579     1.007825032230
         H           -4.694406683793    -1.048306510678     0.155328596421     1.007825032230

  Basis Set: AUG-CC-PVTZ
    Blend: AUG-CC-PVTZ
  Basis Set: (AUG-CC-PVTZ AUX)
    Blend: AUG-CC-PVTZ-JKFIT
	 Reference Energy          =    -512.3359971165176603 [Eh]
	 Singles Energy            =      -0.0000000000000000 [Eh]
	 Same-Spin Energy          =      -0.5200933711323479 [Eh]
	 Opposite-Spin Energy      =      -1.6213472592808200 [Eh]
	 Correlation Energy        =      -2.1414406304131681 [Eh]
	 Total Energy              =    -514.4774377469308320 [Eh]

	 ================> DF-SCS-MP2 Energies <==================
	-----------------------------------------------------------
	 SCS Same-Spin Scale       =       0.3333333333333333 [-]
	 SCS Opposite-Spin Scale   =       1.2000000000000000 [-]
	 SCS Same-Spin Energy      =      -0.1733644570441160 [Eh]
	 SCS Opposite-Spin Energy  =      -1.9456167111369840 [Eh]
	 SCS Correlation Energy    =      -2.1189811681810999 [Eh]
	 SCS Total Energy          =    -514.4549782846987682 [Eh]
	-----------------------------------------------------------

  Dipole Moment: [D]
     X:    -8.6482      Y:     0.6375      Z:     1.5898     Total:     8.8162

*** Psi4 exiting successfully. Buy a developer a beer!
