                               Psi4 1.3.2 release

  ==> Input File <==

--------------------------------------------------------------------------
#psi4
#
memory 32 gb

molecule  {
-1 1
  O       -1.6024110     1.2883820    -0.5634480
  O        2.0191420    -1.7287390     0.1939930
  O        3.3803020    -0.0587520    -0.5397320
  N       -0.1533338    -0.1824578     0.2259073
  C        1.0875530     0.4615680    -0.1724770
  C        1.3782960     1.6508690     0.7367710
  C       -2.4731170    -0.8032840     0.3122730
  C       -1.3649450     0.1785500    -0.0525630
  C        2.3216549    -0.4800015    -0.1992313
  C       -3.8468580    -0.3344400    -0.1480570
  H        0.9550610     0.8289670    -1.1997950
  H        0.0672430    -1.2232590     0.4643770
  H        1.5293690     1.3045580     1.7644240
  H        2.2851470     2.1591780     0.4026320
  H        0.5420990     2.3541860     0.7225810
  H       -2.2325720    -1.7800520    -0.1237300
  H       -2.4588320    -0.9441430     1.3993390
  H       -4.0995650     0.6270340     0.3028840
  H       -3.8738130    -0.2132220    -1.2332140
  H       -4.6116960    -1.0622230     0.1365660
units angstrom
no_reorient  #important for SAPT in psi4, default
symmetry c1  #important for SAPT in psi4, default
}

set PROPERTIES_ORIGIN ["COM"]
properties('MP2/aug-cc-pvtz', properties = ['dipole'])
--------------------------------------------------------------------------

    Molecular point group: c1
  Charge       = -1
  Multiplicity = 1
  Basis Set: AUG-CC-PVTZ
    Blend: AUG-CC-PVTZ
  Basis Set: (AUG-CC-PVTZ AUX)
    Blend: AUG-CC-PVTZ-JKFIT

    Orbital Energies [Eh]
    ---------------------

    Doubly Occupied:

       1A    -20.377217     2A    -20.337107     3A    -20.308207
       4A    -15.440923     5A    -11.211179     6A    -11.165792
       7A    -11.132288     8A    -11.121373     9A    -11.118331
      10A    -11.077683    11A     -1.239617    12A     -1.219601
      13A     -1.099113    14A     -1.065788    15A     -0.946511
      16A     -0.885764    17A     -0.780691    18A     -0.725735
      19A     -0.629503    20A     -0.587378    21A     -0.548456
      22A     -0.531893    23A     -0.509283    24A     -0.480545
      25A     -0.468505    26A     -0.440509    27A     -0.428760
      28A     -0.421304    29A     -0.411225    30A     -0.405871
      31A     -0.395748    32A     -0.376374    33A     -0.365671
      34A     -0.345386    35A     -0.293200    36A     -0.255907
      37A     -0.234312    38A     -0.222660    39A     -0.217782

  @DF-RHF Final Energy:  -512.31829989654602

   => Energetics <=

    Nuclear Repulsion Energy =            533.9795286852818208
    One-Electron Energy =               -1772.9492741313069928
    Two-Electron Energy =                 726.6514455494791491
    Total Energy =                       -512.3182998965460229
  Basis Set: (AUG-CC-PVTZ AUX)
    Blend: AUG-CC-PVTZ-RI
    Molecular point group: c1

    Geometry (in Angstrom), charge = -1, multiplicity = 1:

       Center              X                  Y                   Z               Mass
    ------------   -----------------  -----------------  -----------------  -----------------
         O           -1.684501274693     1.291102728017    -0.542612475367    15.994914619570
         O            1.937051725307    -1.726018271983     0.214828524633    15.994914619570
         O            3.298211725307    -0.056031271983    -0.518896475367    15.994914619570
         N           -0.235424074693    -0.179737071983     0.246742824633    14.003074004430
         C            1.005462725307     0.464288728017    -0.151641475367    12.000000000000
         C            1.296205725307     1.653589728017     0.757606524633    12.000000000000
         C           -2.555207274693    -0.800563271983     0.333108524633    12.000000000000
         C           -1.447035274693     0.181270728017    -0.031727475367    12.000000000000
         C            2.239564625307    -0.477280771983    -0.178395775367    12.000000000000
         C           -3.928948274693    -0.331719271983    -0.127221475367    12.000000000000
         H            0.872970725307     0.831687728017    -1.178959475367     1.007825032230
         H           -0.014847274693    -1.220538271983     0.485212524633     1.007825032230
         H            1.447278725307     1.307278728017     1.785259524633     1.007825032230
         H            2.203056725307     2.161898728017     0.423467524633     1.007825032230
         H            0.460008725307     2.356906728017     0.743416524633     1.007825032230
         H           -2.314662274693    -1.777331271983    -0.102894475367     1.007825032230
         H           -2.540922274693    -0.941422271983     1.420174524633     1.007825032230
         H           -4.181655274693     0.629754728017     0.323719524633     1.007825032230
         H           -3.955903274693    -0.210501271983    -1.212378475367     1.007825032230
         H           -4.693786274693    -1.059502271983     0.157401524633     1.007825032230

  Basis Set: AUG-CC-PVTZ
    Blend: AUG-CC-PVTZ
  Basis Set: (AUG-CC-PVTZ AUX)
    Blend: AUG-CC-PVTZ-JKFIT
	 Reference Energy          =    -512.3182998965460229 [Eh]
	 Singles Energy            =      -0.0000000000000000 [Eh]
	 Same-Spin Energy          =      -0.5206592701454866 [Eh]
	 Opposite-Spin Energy      =      -1.6220607635181632 [Eh]
	 Correlation Energy        =      -2.1427200336636498 [Eh]
	 Total Energy              =    -514.4610199302096589 [Eh]

	 ================> DF-SCS-MP2 Energies <==================
	-----------------------------------------------------------
	 SCS Same-Spin Scale       =       0.3333333333333333 [-]
	 SCS Opposite-Spin Scale   =       1.2000000000000000 [-]
	 SCS Same-Spin Energy      =      -0.1735530900484955 [Eh]
	 SCS Opposite-Spin Energy  =      -1.9464729162217957 [Eh]
	 SCS Correlation Energy    =      -2.1200260062702911 [Eh]
	 SCS Total Energy          =    -514.4383259028163593 [Eh]
	-----------------------------------------------------------

  Dipole Moment: [D]
     X:    -7.7646      Y:     1.0519      Z:     1.3918     Total:     7.9582

*** Psi4 exiting successfully. Buy a developer a beer!
