                               Psi4 1.3.2 release

  ==> Input File <==

--------------------------------------------------------------------------
#psi4
#
memory 32 gb

molecule  {
-1 1
  O       -1.6024110     1.2883820    -0.5634480
  O        2.0191420    -1.7287390     0.1939930
  O        3.3803020    -0.0587520    -0.5397320
  N       -0.1147610    -0.2476350     0.2334190
  C        1.0583177     0.4967178    -0.1944882
  C        1.3782960     1.6508690     0.7367710
  C       -2.4731170    -0.8032840     0.3122730
  C       -1.3462921     0.2157390    -0.0747939
  C        2.2731730    -0.5407160    -0.1753640
  C       -3.8468580    -0.3344400    -0.1480570
  H        0.9550610     0.8289670    -1.1997950
  H        0.0672430    -1.2232590     0.4643770
  H        1.5293690     1.3045580     1.7644240
  H        2.2851470     2.1591780     0.4026320
  H        0.5420990     2.3541860     0.7225810
  H       -2.2325720    -1.7800520    -0.1237300
  H       -2.4588320    -0.9441430     1.3993390
  H       -4.0995650     0.6270340     0.3028840
  H       -3.8738130    -0.2132220    -1.2332140
  H       -4.6116960    -1.0622230     0.1365660
units angstrom
no_reorient  #important for SAPT in psi4, default
symmetry c1  #important for SAPT in psi4, default
}

set PROPERTIES_ORIGIN ["COM"]
properties('MP2/aug-cc-pvtz', properties = ['dipole'])
--------------------------------------------------------------------------

    Molecular point group: c1
  Charge       = -1
  Multiplicity = 1
  Basis Set: AUG-CC-PVTZ
    Blend: AUG-CC-PVTZ
  Basis Set: (AUG-CC-PVTZ AUX)
    Blend: AUG-CC-PVTZ-JKFIT

    Orbital Energies [Eh]
    ---------------------

    Doubly Occupied:

       1A    -20.397599     2A    -20.322851     3A    -20.313570
       4A    -15.434886     5A    -11.220709     6A    -11.162859
       7A    -11.131408     8A    -11.121876     9A    -11.110932
      10A    -11.074943    11A     -1.266184    12A     -1.188999
      13A     -1.097368    14A     -1.082360    15A     -0.941633
      16A     -0.876983    17A     -0.776220    18A     -0.715167
      19A     -0.643232    20A     -0.584848    21A     -0.537310
      22A     -0.531034    23A     -0.516938    24A     -0.490020
      25A     -0.464592    26A     -0.442327    27A     -0.423104
      28A     -0.418402    29A     -0.414039    30A     -0.403507
      31A     -0.395773    32A     -0.381176    33A     -0.372002
      34A     -0.348794    35A     -0.296395    36A     -0.260986
      37A     -0.236254    38A     -0.218104    39A     -0.213716

  @DF-RHF Final Energy:  -512.33383808411702

   => Energetics <=

    Nuclear Repulsion Energy =            533.4735227120570471
    One-Electron Energy =               -1771.9565220387819409
    Two-Electron Energy =                 726.1491612426078746
    Total Energy =                       -512.3338380841170192
  Basis Set: (AUG-CC-PVTZ AUX)
    Blend: AUG-CC-PVTZ-RI
    Molecular point group: c1

    Geometry (in Angstrom), charge = -1, multiplicity = 1:

       Center              X                  Y                   Z               Mass
    ------------   -----------------  -----------------  -----------------  -----------------
         O           -1.683330743497     1.296469637552    -0.541645483551    15.994914619570
         O            1.938222256503    -1.720651362448     0.215795516449    15.994914619570
         O            3.299382256503    -0.050664362448    -0.517929483551    15.994914619570
         N           -0.195680743497    -0.239547362448     0.255221516449    14.003074004430
         C            0.977397956503     0.504805437552    -0.172685683551    12.000000000000
         C            1.297376256503     1.658956637552     0.758573516449    12.000000000000
         C           -2.554036743497    -0.795196362448     0.334075516449    12.000000000000
         C           -1.427211843497     0.223826637552    -0.052991383551    12.000000000000
         C            2.192253256503    -0.532628362448    -0.153561483551    12.000000000000
         C           -3.927777743497    -0.326352362448    -0.126254483551    12.000000000000
         H            0.874141256503     0.837054637552    -1.177992483551     1.007825032230
         H           -0.013676743497    -1.215171362448     0.486179516449     1.007825032230
         H            1.448449256503     1.312645637552     1.786226516449     1.007825032230
         H            2.204227256503     2.167265637552     0.424434516449     1.007825032230
         H            0.461179256503     2.362273637552     0.744383516449     1.007825032230
         H           -2.313491743497    -1.771964362448    -0.101927483551     1.007825032230
         H           -2.539751743497    -0.936055362448     1.421141516449     1.007825032230
         H           -4.180484743497     0.635121637552     0.324686516449     1.007825032230
         H           -3.954732743497    -0.205134362448    -1.211411483551     1.007825032230
         H           -4.692615743497    -1.054135362448     0.158368516449     1.007825032230

  Basis Set: AUG-CC-PVTZ
    Blend: AUG-CC-PVTZ
  Basis Set: (AUG-CC-PVTZ AUX)
    Blend: AUG-CC-PVTZ-JKFIT
	 Reference Energy          =    -512.3338380841170192 [Eh]
	 Singles Energy            =      -0.0000000000000000 [Eh]
	 Same-Spin Energy          =      -0.5194418355331515 [Eh]
	 Opposite-Spin Energy      =      -1.6198411929886867 [Eh]
	 Correlation Energy        =      -2.1392830285218380 [Eh]
	 Total Energy              =    -514.4731211126388644 [Eh]

	 ================> DF-SCS-MP2 Energies <==================
	-----------------------------------------------------------
	 SCS Same-Spin Scale       =       0.3333333333333333 [-]
	 SCS Opposite-Spin Scale   =       1.2000000000000000 [-]
	 SCS Same-Spin Energy      =      -0.1731472785110505 [Eh]
	 SCS Opposite-Spin Energy  =      -1.9438094315864238 [Eh]
	 SCS Correlation Energy    =      -2.1169567100974742 [Eh]
	 SCS Total Energy          =    -514.4507947942145165 [Eh]
	-----------------------------------------------------------

  Dipole Moment: [D]
     X:    -8.6005      Y:     0.8348      Z:     1.4572     Total:     8.7630

*** Psi4 exiting successfully. Buy a developer a beer!
