                               Psi4 1.4a3.dev225

  ==> Input File <==

--------------------------------------------------------------------------
#psi4
#
memory 32 gb

molecule  {
-1 1
  O       -1.5868420     1.2523650    -0.8113290
  O        2.0299390    -1.6922460     0.2543140
  O        3.4074630     0.0142020    -0.3584910
  N       -0.1383540    -0.2870410     0.0455440
  C        1.0782140     0.4735880    -0.1782270
  C        1.2294747     1.6255082     0.8431079
  C       -2.4816390    -0.8906360    -0.1487800
  C       -1.3641120     0.1217370    -0.3343690
  C        2.2855270    -0.4976230    -0.0923730
  C       -3.7126180    -0.2515540     0.4884160
  H        1.0494870     0.8996880    -1.1894520
  H        0.0515970    -1.2513350     0.3145600
  H        1.2660770     1.2028380     1.8451460
  H        2.1536960     2.1558630     0.6353850
  H        0.3800930     2.2967220     0.7589720
  H       -2.7387560    -1.2794370    -1.1416750
  H       -2.1327770    -1.7398080     0.4477120
  H       -3.4838230     0.1112750     1.4946450
  H       -4.0489630     0.5957980    -0.1116680
  H       -4.5299760    -0.9736440     0.5641870
units angstrom
no_reorient  #important for SAPT in psi4, default
symmetry c1  #important for SAPT in psi4, default
}

set PROPERTIES_ORIGIN ["COM"]
properties('MP2/aug-cc-pvtz', properties = ['dipole'])
--------------------------------------------------------------------------

    Molecular point group: c1
  Charge       = -1
  Multiplicity = 1
  Basis Set: AUG-CC-PVTZ
    Blend: AUG-CC-PVTZ
  Basis Set: (AUG-CC-PVTZ AUX)
    Blend: AUG-CC-PVTZ-JKFIT

    Orbital Energies [Eh]
    ---------------------

    Doubly Occupied:

       1A    -20.387436     2A    -20.323270     3A    -20.314797
       4A    -15.442459     5A    -11.222464     6A    -11.162912
       7A    -11.134570     8A    -11.127353     9A    -11.116406
      10A    -11.076778    11A     -1.238588    12A     -1.191344
      13A     -1.098093    14A     -1.082383    15A     -0.950259
      16A     -0.877002    17A     -0.784334    18A     -0.726153
      19A     -0.643211    20A     -0.588657    21A     -0.546725
      22A     -0.522842    23A     -0.513525    24A     -0.483353
      25A     -0.462606    26A     -0.443223    27A     -0.434119
      28A     -0.418806    29A     -0.412087    30A     -0.407180
      31A     -0.396701    32A     -0.376198    33A     -0.370920
      34A     -0.340152    35A     -0.297011    36A     -0.257576
      37A     -0.238275    38A     -0.223631    39A     -0.216200

  @DF-RHF Final Energy:  -512.33640656822547

   => Energetics <=

    Nuclear Repulsion Energy =            533.9551887355628423
    One-Electron Energy =               -1772.8839836429260686
    Two-Electron Energy =                 726.5923883391377558
    Total Energy =                       -512.3364065682254704
  Basis Set: (AUG-CC-PVTZ AUX)
    Blend: AUG-CC-PVTZ-RI
    Molecular point group: c1

    Geometry (in Angstrom), charge = -1, multiplicity = 1:

       Center              X                  Y                   Z               Mass
    ------------   -----------------  -----------------  -----------------  -----------------
         O           -1.669739044215     1.265013104072    -0.787546411574    15.994914619570
         O            1.947041955785    -1.679597895928     0.278096588426    15.994914619570
         O            3.324565955785     0.026850104072    -0.334708411574    15.994914619570
         N           -0.221251044215    -0.274392895928     0.069326588426    14.003074004430
         C            0.995316955785     0.486236104072    -0.154444411574    12.000000000000
         C            1.146577655785     1.638156304072     0.866890488426    12.000000000000
         C           -2.564536044215    -0.877987895928    -0.124997411574    12.000000000000
         C           -1.447009044215     0.134385104072    -0.310586411574    12.000000000000
         C            2.202629955785    -0.484974895928    -0.068590411574    12.000000000000
         C           -3.795515044215    -0.238905895928     0.512198588426    12.000000000000
         H            0.966589955785     0.912336104072    -1.165669411574     1.007825032230
         H           -0.031300044215    -1.238686895928     0.338342588426     1.007825032230
         H            1.183179955785     1.215486104072     1.868928588426     1.007825032230
         H            2.070798955785     2.168511104072     0.659167588426     1.007825032230
         H            0.297195955785     2.309370104072     0.782754588426     1.007825032230
         H           -2.821653044215    -1.266788895928    -1.117892411574     1.007825032230
         H           -2.215674044215    -1.727159895928     0.471494588426     1.007825032230
         H           -3.566720044215     0.123923104072     1.518427588426     1.007825032230
         H           -4.131860044215     0.608446104072    -0.087885411574     1.007825032230
         H           -4.612873044215    -0.960995895928     0.587969588426     1.007825032230

  Basis Set: AUG-CC-PVTZ
    Blend: AUG-CC-PVTZ
  Basis Set: (AUG-CC-PVTZ AUX)
    Blend: AUG-CC-PVTZ-JKFIT
	 Reference Energy          =    -512.3364065682254704 [Eh]
	 Singles Energy            =      -0.0000000000000000 [Eh]
	 Same-Spin Energy          =      -0.5203234196079782 [Eh]
	 Opposite-Spin Energy      =      -1.6216922984897084 [Eh]
	 Correlation Energy        =      -2.1420157180976869 [Eh]
	 Total Energy              =    -514.4784222863231662 [Eh]

	 ================> DF-SCS-MP2 Energies <==================
	-----------------------------------------------------------
	 SCS Same-Spin Scale       =       0.3333333333333333 [-]
	 SCS Opposite-Spin Scale   =       1.2000000000000000 [-]
	 SCS Same-Spin Energy      =      -0.1734411398693261 [Eh]
	 SCS Opposite-Spin Energy  =      -1.9460307581876499 [Eh]
	 SCS Correlation Energy    =      -2.1194718980569758 [Eh]
	 SCS Total Energy          =    -514.4558784662824564 [Eh]
	-----------------------------------------------------------

  Dipole Moment: [D]
     X:    -8.6540      Y:     0.3799      Z:     1.2293     Total:     8.7491

*** Psi4 exiting successfully. Buy a developer a beer!
