                               Psi4 1.3.2 release

  ==> Input File <==

--------------------------------------------------------------------------
#psi4
#
memory 32 gb

molecule  {
-1 1
  O       -1.6024110     1.2883820    -0.5634480
  O        2.0191420    -1.7287390     0.1939930
  O        3.3803020    -0.0587520    -0.5397320
  N       -0.1250066    -0.2428054     0.2107159
  C        1.0875530     0.4615680    -0.1724770
  C        1.3782960     1.6508690     0.7367710
  C       -2.4731170    -0.8032840     0.3122730
  C       -1.3649450     0.1785500    -0.0525630
  C        2.2731730    -0.5407160    -0.1753640
  C       -3.8468580    -0.3344400    -0.1480570
  H        0.9375174     0.8212173    -1.2001249
  H        0.0672430    -1.2232590     0.4643770
  H        1.5293690     1.3045580     1.7644240
  H        2.2851470     2.1591780     0.4026320
  H        0.5420990     2.3541860     0.7225810
  H       -2.2325720    -1.7800520    -0.1237300
  H       -2.4588320    -0.9441430     1.3993390
  H       -4.0995650     0.6270340     0.3028840
  H       -3.8738130    -0.2132220    -1.2332140
  H       -4.6116960    -1.0622230     0.1365660
units angstrom
no_reorient  #important for SAPT in psi4, default
symmetry c1  #important for SAPT in psi4, default
}

set PROPERTIES_ORIGIN ["COM"]
properties('MP2/aug-cc-pvtz', properties = ['dipole'])
--------------------------------------------------------------------------

    Molecular point group: c1
  Charge       = -1
  Multiplicity = 1
  Basis Set: AUG-CC-PVTZ
    Blend: AUG-CC-PVTZ
  Basis Set: (AUG-CC-PVTZ AUX)
    Blend: AUG-CC-PVTZ-JKFIT

    Orbital Energies [Eh]
    ---------------------

    Doubly Occupied:

       1A    -20.387984     2A    -20.323375     3A    -20.314709
       4A    -15.438819     5A    -11.220476     6A    -11.163119
       7A    -11.134650     8A    -11.123694     9A    -11.115648
      10A    -11.076605    11A     -1.240917    12A     -1.191366
      13A     -1.097677    14A     -1.082807    15A     -0.948720
      16A     -0.879978    17A     -0.783735    18A     -0.722931
      19A     -0.638245    20A     -0.588973    21A     -0.543339
      22A     -0.532866    23A     -0.510069    24A     -0.481271
      25A     -0.467038    26A     -0.439036    27A     -0.425438
      28A     -0.419439    29A     -0.412917    30A     -0.404418
      31A     -0.397319    32A     -0.375576    33A     -0.369308
      34A     -0.341949    35A     -0.297855    36A     -0.256651
      37A     -0.237859    38A     -0.224207    39A     -0.216433

  @DF-RHF Final Energy:  -512.33598197319532

   => Energetics <=

    Nuclear Repulsion Energy =            533.6404105666703117
    One-Electron Energy =               -1772.2979547964941958
    Two-Electron Energy =                 726.3215622566286811
    Total Energy =                       -512.3359819731953166
  Basis Set: (AUG-CC-PVTZ AUX)
    Blend: AUG-CC-PVTZ-RI
    Molecular point group: c1

    Geometry (in Angstrom), charge = -1, multiplicity = 1:

       Center              X                  Y                   Z               Mass
    ------------   -----------------  -----------------  -----------------  -----------------
         O           -1.683093616361     1.302079887805    -0.543121608580    15.994914619570
         O            1.938459383639    -1.715041112195     0.214319391420    15.994914619570
         O            3.299619383639    -0.045054112195    -0.519405608580    15.994914619570
         N           -0.205689216361    -0.229107512195     0.231042291420    14.003074004430
         C            1.006870383639     0.475265887805    -0.152150608580    12.000000000000
         C            1.297613383639     1.664566887805     0.757097391420    12.000000000000
         C           -2.553799616361    -0.789586112195     0.332599391420    12.000000000000
         C           -1.445627616361     0.192247887805    -0.032236608580    12.000000000000
         C            2.192490383639    -0.527018112195    -0.155037608580    12.000000000000
         C           -3.927540616361    -0.320742112195    -0.127730608580    12.000000000000
         H            0.856834783639     0.834915187805    -1.179798508580     1.007825032230
         H           -0.013439616361    -1.209561112195     0.484703391420     1.007825032230
         H            1.448686383639     1.318255887805     1.784750391420     1.007825032230
         H            2.204464383639     2.172875887805     0.422958391420     1.007825032230
         H            0.461416383639     2.367883887805     0.742907391420     1.007825032230
         H           -2.313254616361    -1.766354112195    -0.103403608580     1.007825032230
         H           -2.539514616361    -0.930445112195     1.419665391420     1.007825032230
         H           -4.180247616361     0.640731887805     0.323210391420     1.007825032230
         H           -3.954495616361    -0.199524112195    -1.212887608580     1.007825032230
         H           -4.692378616361    -1.048525112195     0.156892391420     1.007825032230

  Basis Set: AUG-CC-PVTZ
    Blend: AUG-CC-PVTZ
  Basis Set: (AUG-CC-PVTZ AUX)
    Blend: AUG-CC-PVTZ-JKFIT
	 Reference Energy          =    -512.3359819731953166 [Eh]
	 Singles Energy            =      -0.0000000000000000 [Eh]
	 Same-Spin Energy          =      -0.5202236869355384 [Eh]
	 Opposite-Spin Energy      =      -1.6213186950171523 [Eh]
	 Correlation Energy        =      -2.1415423819526906 [Eh]
	 Total Energy              =    -514.4775243551480344 [Eh]

	 ================> DF-SCS-MP2 Energies <==================
	-----------------------------------------------------------
	 SCS Same-Spin Scale       =       0.3333333333333333 [-]
	 SCS Opposite-Spin Scale   =       1.2000000000000000 [-]
	 SCS Same-Spin Energy      =      -0.1734078956451795 [Eh]
	 SCS Opposite-Spin Energy  =      -1.9455824340205827 [Eh]
	 SCS Correlation Energy    =      -2.1189903296657624 [Eh]
	 SCS Total Energy          =    -514.4549723028610515 [Eh]
	-----------------------------------------------------------

  Dipole Moment: [D]
     X:    -8.5688      Y:     0.5951      Z:     1.6462     Total:     8.7457

*** Psi4 exiting successfully. Buy a developer a beer!
