                               Psi4 1.3.2 release

  ==> Input File <==

--------------------------------------------------------------------------
#psi4
#
memory 32 gb

molecule  {
-1 1
  O       -1.6024110     1.2883820    -0.5634480
  O        2.0191420    -1.7287390     0.1939930
  O        3.3803020    -0.0587520    -0.5397320
  N       -0.1080088    -0.2583136     0.2345633
  C        1.0875530     0.4615680    -0.1724770
  C        1.3782960     1.6508690     0.7367710
  C       -2.4731170    -0.8032840     0.3122730
  C       -1.3649450     0.1785500    -0.0525630
  C        2.2647730    -0.5505724    -0.1713836
  C       -3.8468580    -0.3344400    -0.1480570
  H        0.9550610     0.8289670    -1.1997950
  H        0.0672430    -1.2232590     0.4643770
  H        1.5293690     1.3045580     1.7644240
  H        2.2851470     2.1591780     0.4026320
  H        0.5420990     2.3541860     0.7225810
  H       -2.2325720    -1.7800520    -0.1237300
  H       -2.4588320    -0.9441430     1.3993390
  H       -4.0995650     0.6270340     0.3028840
  H       -3.8738130    -0.2132220    -1.2332140
  H       -4.6116960    -1.0622230     0.1365660
units angstrom
no_reorient  #important for SAPT in psi4, default
symmetry c1  #important for SAPT in psi4, default
}

set PROPERTIES_ORIGIN ["COM"]
properties('MP2/aug-cc-pvtz', properties = ['dipole'])
--------------------------------------------------------------------------

    Molecular point group: c1
  Charge       = -1
  Multiplicity = 1
  Basis Set: AUG-CC-PVTZ
    Blend: AUG-CC-PVTZ
  Basis Set: (AUG-CC-PVTZ AUX)
    Blend: AUG-CC-PVTZ-JKFIT

    Orbital Energies [Eh]
    ---------------------

    Doubly Occupied:

       1A    -20.394173     2A    -20.324644     3A    -20.309820
       4A    -15.437269     5A    -11.225590     6A    -11.161051
       7A    -11.135915     8A    -11.124849     9A    -11.114235
      10A    -11.075259    11A     -1.242241    12A     -1.191441
      13A     -1.093598    14A     -1.081491    15A     -0.949798
      16A     -0.877309    17A     -0.784585    18A     -0.720195
      19A     -0.641694    20A     -0.588655    21A     -0.540878
      22A     -0.533277    23A     -0.512139    24A     -0.484287
      25A     -0.465601    26A     -0.438223    27A     -0.425618
      28A     -0.419265    29A     -0.413533    30A     -0.404072
      31A     -0.396800    32A     -0.376558    33A     -0.370339
      34A     -0.341670    35A     -0.300487    36A     -0.257209
      37A     -0.237115    38A     -0.221140    39A     -0.214016

  @DF-RHF Final Energy:  -512.33523001795822

   => Energetics <=

    Nuclear Repulsion Energy =            533.3561136856875464
    One-Electron Energy =               -1771.7306125721336230
    Two-Electron Energy =                 726.0392688684877385
    Total Energy =                       -512.3352300179582244
  Basis Set: (AUG-CC-PVTZ AUX)
    Blend: AUG-CC-PVTZ-RI
    Molecular point group: c1

    Geometry (in Angstrom), charge = -1, multiplicity = 1:

       Center              X                  Y                   Z               Mass
    ------------   -----------------  -----------------  -----------------  -----------------
         O           -1.684168833672     1.304354045313    -0.545773407114    15.994914619570
         O            1.937384166328    -1.712766954687     0.211667592886    15.994914619570
         O            3.298544166328    -0.042779954687    -0.522057407114    15.994914619570
         N           -0.189766633672    -0.242341554687     0.252237892886    14.003074004430
         C            1.005795166328     0.477540045313    -0.154802407114    12.000000000000
         C            1.296538166328     1.666841045313     0.754445592886    12.000000000000
         C           -2.554874833672    -0.787311954687     0.329947592886    12.000000000000
         C           -1.446702833672     0.194522045313    -0.034888407114    12.000000000000
         C            2.183015166328    -0.534600354687    -0.153709007114    12.000000000000
         C           -3.928615833672    -0.318467954687    -0.130382407114    12.000000000000
         H            0.873303166328     0.844939045313    -1.182120407114     1.007825032230
         H           -0.014514833672    -1.207286954687     0.482051592886     1.007825032230
         H            1.447611166328     1.320530045313     1.782098592886     1.007825032230
         H            2.203389166328     2.175150045313     0.420306592886     1.007825032230
         H            0.460341166328     2.370158045313     0.740255592886     1.007825032230
         H           -2.314329833672    -1.764079954687    -0.106055407114     1.007825032230
         H           -2.540589833672    -0.928170954687     1.417013592886     1.007825032230
         H           -4.181322833672     0.643006045313     0.320558592886     1.007825032230
         H           -3.955570833672    -0.197249954687    -1.215539407114     1.007825032230
         H           -4.693453833672    -1.046250954687     0.154240592886     1.007825032230

  Basis Set: AUG-CC-PVTZ
    Blend: AUG-CC-PVTZ
  Basis Set: (AUG-CC-PVTZ AUX)
    Blend: AUG-CC-PVTZ-JKFIT
	 Reference Energy          =    -512.3352300179582244 [Eh]
	 Singles Energy            =      -0.0000000000000000 [Eh]
	 Same-Spin Energy          =      -0.5201132544947387 [Eh]
	 Opposite-Spin Energy      =      -1.6213280284114948 [Eh]
	 Correlation Energy        =      -2.1414412829062335 [Eh]
	 Total Energy              =    -514.4766713008644956 [Eh]

	 ================> DF-SCS-MP2 Energies <==================
	-----------------------------------------------------------
	 SCS Same-Spin Scale       =       0.3333333333333333 [-]
	 SCS Opposite-Spin Scale   =       1.2000000000000000 [-]
	 SCS Same-Spin Energy      =      -0.1733710848315795 [Eh]
	 SCS Opposite-Spin Energy  =      -1.9455936340937936 [Eh]
	 SCS Correlation Energy    =      -2.1189647189253731 [Eh]
	 SCS Total Energy          =    -514.4541947368835508 [Eh]
	-----------------------------------------------------------

  Dipole Moment: [D]
     X:    -8.8408      Y:     0.5581      Z:     1.6350     Total:     9.0081

*** Psi4 exiting successfully. Buy a developer a beer!
