                               Psi4 1.3.2 release

  ==> Input File <==

--------------------------------------------------------------------------
#psi4
#
memory 32 gb

molecule  {
-1 1
  O       -1.6024110     1.2883820    -0.5634480
  O        2.0191420    -1.7287390     0.1939930
  O        3.3803020    -0.0587520    -0.5397320
  N       -0.1147610    -0.2476350     0.2334190
  C        1.0875530     0.4615680    -0.1724770
  C        1.3782960     1.6508690     0.7367710
  C       -2.4731170    -0.8032840     0.3122730
  C       -1.2780036     0.1295494    -0.0462287
  C        2.2731730    -0.5407160    -0.1753640
  C       -3.8468580    -0.3344400    -0.1480570
  H        0.9550610     0.8289670    -1.1997950
  H        0.0672430    -1.2232590     0.4643770
  H        1.5293690     1.3045580     1.7644240
  H        2.2851470     2.1591780     0.4026320
  H        0.5420990     2.3541860     0.7225810
  H       -2.2325720    -1.7800520    -0.1237300
  H       -2.4588320    -0.9441430     1.3993390
  H       -4.0995650     0.6270340     0.3028840
  H       -3.8738130    -0.2132220    -1.2332140
  H       -4.6116960    -1.0622230     0.1365660
units angstrom
no_reorient  #important for SAPT in psi4, default
symmetry c1  #important for SAPT in psi4, default
}

set PROPERTIES_ORIGIN ["COM"]
properties('MP2/aug-cc-pvtz', properties = ['dipole'])
--------------------------------------------------------------------------

    Molecular point group: c1
  Charge       = -1
  Multiplicity = 1
  Basis Set: AUG-CC-PVTZ
    Blend: AUG-CC-PVTZ
  Basis Set: (AUG-CC-PVTZ AUX)
    Blend: AUG-CC-PVTZ-JKFIT

    Orbital Energies [Eh]
    ---------------------

    Doubly Occupied:

       1A    -20.370827     2A    -20.329517     3A    -20.319882
       4A    -15.454839     5A    -11.216223     6A    -11.168899
       7A    -11.134017     8A    -11.124153     9A    -11.120359
      10A    -11.081278    11A     -1.219043    12A     -1.193923
      13A     -1.110947    14A     -1.093198    15A     -0.940899
      16A     -0.892745    17A     -0.782242    18A     -0.733157
      19A     -0.657394    20A     -0.592081    21A     -0.538490
      22A     -0.533007    23A     -0.514072    24A     -0.473954
      25A     -0.467473    26A     -0.443237    27A     -0.427237
      28A     -0.419354    29A     -0.410456    30A     -0.402747
      31A     -0.393643    32A     -0.374134    33A     -0.370954
      34A     -0.339539    35A     -0.281497    36A     -0.263650
      37A     -0.244014    38A     -0.229862    39A     -0.222524

  @DF-RHF Final Energy:  -512.32058780332261

   => Energetics <=

    Nuclear Repulsion Energy =            533.9941288440412563
    One-Electron Energy =               -1772.8585008938414376
    Two-Electron Energy =                 726.5437842464776850
    Total Energy =                       -512.3205878033226099
  Basis Set: (AUG-CC-PVTZ AUX)
    Blend: AUG-CC-PVTZ-RI
    Molecular point group: c1

    Geometry (in Angstrom), charge = -1, multiplicity = 1:

       Center              X                  Y                   Z               Mass
    ------------   -----------------  -----------------  -----------------  -----------------
         O           -1.691453999825     1.306576617067    -0.545858250704    15.994914619570
         O            1.930099000175    -1.710544382933     0.211582749296    15.994914619570
         O            3.291259000175    -0.040557382933    -0.522142250704    15.994914619570
         N           -0.203803999825    -0.229440382933     0.251008749296    14.003074004430
         C            0.998510000175     0.479762617067    -0.154887250704    12.000000000000
         C            1.289253000175     1.669063617067     0.754360749296    12.000000000000
         C           -2.562159999825    -0.785089382933     0.329862749296    12.000000000000
         C           -1.367046599825     0.147744017067    -0.028638950704    12.000000000000
         C            2.184130000175    -0.522521382933    -0.157774250704    12.000000000000
         C           -3.935900999825    -0.316245382933    -0.130467250704    12.000000000000
         H            0.866018000175     0.847161617067    -1.182205250704     1.007825032230
         H           -0.021799999825    -1.205064382933     0.481966749296     1.007825032230
         H            1.440326000175     1.322752617067     1.782013749296     1.007825032230
         H            2.196104000175     2.177372617067     0.420221749296     1.007825032230
         H            0.453056000175     2.372380617067     0.740170749296     1.007825032230
         H           -2.321614999825    -1.761857382933    -0.106140250704     1.007825032230
         H           -2.547874999825    -0.925948382933     1.416928749296     1.007825032230
         H           -4.188607999825     0.645228617067     0.320473749296     1.007825032230
         H           -3.962855999825    -0.195027382933    -1.215624250704     1.007825032230
         H           -4.700738999825    -1.044028382933     0.154155749296     1.007825032230

  Basis Set: AUG-CC-PVTZ
    Blend: AUG-CC-PVTZ
  Basis Set: (AUG-CC-PVTZ AUX)
    Blend: AUG-CC-PVTZ-JKFIT
	 Reference Energy          =    -512.3205878033226099 [Eh]
	 Singles Energy            =      -0.0000000000000000 [Eh]
	 Same-Spin Energy          =      -0.5208012642590631 [Eh]
	 Opposite-Spin Energy      =      -1.6227214241517967 [Eh]
	 Correlation Energy        =      -2.1435226884108598 [Eh]
	 Total Energy              =    -514.4641104917334360 [Eh]

	 ================> DF-SCS-MP2 Energies <==================
	-----------------------------------------------------------
	 SCS Same-Spin Scale       =       0.3333333333333333 [-]
	 SCS Opposite-Spin Scale   =       1.2000000000000000 [-]
	 SCS Same-Spin Energy      =      -0.1736004214196877 [Eh]
	 SCS Opposite-Spin Energy  =      -1.9472657089821559 [Eh]
	 SCS Correlation Energy    =      -2.1208661304018435 [Eh]
	 SCS Total Energy          =    -514.4414539337244605 [Eh]
	-----------------------------------------------------------

  Dipole Moment: [D]
     X:    -7.8092      Y:     0.3099      Z:     1.8163     Total:     8.0236

*** Psi4 exiting successfully. Buy a developer a beer!
