                               Psi4 1.3.2 release

  ==> Input File <==

--------------------------------------------------------------------------
#psi4
#
memory 32 gb

molecule  {
-1 1
  O       -1.6024110     1.2883820    -0.5634480
  O        2.0191420    -1.7287390     0.1939930
  O        3.3803020    -0.0587520    -0.5397320
  N       -0.1147610    -0.2476350     0.2334190
  C        1.0875530     0.4615680    -0.1724770
  C        1.3799264     1.6342977     0.7575355
  C       -2.4731170    -0.8032840     0.3122730
  C       -1.3649450     0.1785500    -0.0525630
  C        2.2731730    -0.5407160    -0.1753640
  C       -3.8468580    -0.3344400    -0.1480570
  H        0.9520018     0.8109620    -1.2056605
  H        0.0672430    -1.2232590     0.4643770
  H        1.5293690     1.3045580     1.7644240
  H        2.2851470     2.1591780     0.4026320
  H        0.5420990     2.3541860     0.7225810
  H       -2.2325720    -1.7800520    -0.1237300
  H       -2.4588320    -0.9441430     1.3993390
  H       -4.0995650     0.6270340     0.3028840
  H       -3.8738130    -0.2132220    -1.2332140
  H       -4.6116960    -1.0622230     0.1365660
units angstrom
no_reorient  #important for SAPT in psi4, default
symmetry c1  #important for SAPT in psi4, default
}

set PROPERTIES_ORIGIN ["COM"]
properties('MP2/aug-cc-pvtz', properties = ['dipole'])
--------------------------------------------------------------------------

    Molecular point group: c1
  Charge       = -1
  Multiplicity = 1
  Basis Set: AUG-CC-PVTZ
    Blend: AUG-CC-PVTZ
  Basis Set: (AUG-CC-PVTZ AUX)
    Blend: AUG-CC-PVTZ-JKFIT

    Orbital Energies [Eh]
    ---------------------

    Doubly Occupied:

       1A    -20.391497     2A    -20.322099     3A    -20.313648
       4A    -15.437372     5A    -11.223307     6A    -11.161576
       7A    -11.135228     8A    -11.124240     9A    -11.114768
      10A    -11.075758    11A     -1.241364    12A     -1.190468
      13A     -1.096486    14A     -1.081046    15A     -0.949188
      16A     -0.878255    17A     -0.783822    18A     -0.721297
      19A     -0.639460    20A     -0.588336    21A     -0.541880
      22A     -0.532935    23A     -0.511685    24A     -0.482441
      25A     -0.465119    26A     -0.439084    27A     -0.425974
      28A     -0.419025    29A     -0.413298    30A     -0.406060
      31A     -0.394328    32A     -0.373205    33A     -0.370452
      34A     -0.343471    35A     -0.299163    36A     -0.257278
      37A     -0.236509    38A     -0.222588    39A     -0.215458

  @DF-RHF Final Energy:  -512.33513627215507

   => Energetics <=

    Nuclear Repulsion Energy =            533.4961155092247509
    One-Electron Energy =               -1772.0241661832392310
    Two-Electron Energy =                 726.1929144018595252
    Total Energy =                       -512.3351362721550686
  Basis Set: (AUG-CC-PVTZ AUX)
    Blend: AUG-CC-PVTZ-RI
    Molecular point group: c1

    Geometry (in Angstrom), charge = -1, multiplicity = 1:

       Center              X                  Y                   Z               Mass
    ------------   -----------------  -----------------  -----------------  -----------------
         O           -1.684326609238     1.304001370065    -0.547019183354    15.994914619570
         O            1.937226390762    -1.713119629935     0.210421816646    15.994914619570
         O            3.298386390762    -0.043132629935    -0.523303183354    15.994914619570
         N           -0.196676609238    -0.232015629935     0.249847816646    14.003074004430
         C            1.005637390762     0.477187370065    -0.156048183354    12.000000000000
         C            1.298010790762     1.649917070065     0.773964316646    12.000000000000
         C           -2.555032609238    -0.787664629935     0.328701816646    12.000000000000
         C           -1.446860609238     0.194169370065    -0.036134183354    12.000000000000
         C            2.191257390762    -0.525096629935    -0.158935183354    12.000000000000
         C           -3.928773609238    -0.318820629935    -0.131628183354    12.000000000000
         H            0.870086190762     0.826581370065    -1.189231683354     1.007825032230
         H           -0.014672609238    -1.207639629935     0.480805816646     1.007825032230
         H            1.447453390762     1.320177370065     1.780852816646     1.007825032230
         H            2.203231390762     2.174797370065     0.419060816646     1.007825032230
         H            0.460183390762     2.369805370065     0.739009816646     1.007825032230
         H           -2.314487609238    -1.764432629935    -0.107301183354     1.007825032230
         H           -2.540747609238    -0.928523629935     1.415767816646     1.007825032230
         H           -4.181480609238     0.642653370065     0.319312816646     1.007825032230
         H           -3.955728609238    -0.197602629935    -1.216785183354     1.007825032230
         H           -4.693611609238    -1.046603629935     0.152994816646     1.007825032230

  Basis Set: AUG-CC-PVTZ
    Blend: AUG-CC-PVTZ
  Basis Set: (AUG-CC-PVTZ AUX)
    Blend: AUG-CC-PVTZ-JKFIT
	 Reference Energy          =    -512.3351362721550686 [Eh]
	 Singles Energy            =      -0.0000000000000000 [Eh]
	 Same-Spin Energy          =      -0.5202077875137439 [Eh]
	 Opposite-Spin Energy      =      -1.6214230418217297 [Eh]
	 Correlation Energy        =      -2.1416308293354733 [Eh]
	 Total Energy              =    -514.4767671014905090 [Eh]

	 ================> DF-SCS-MP2 Energies <==================
	-----------------------------------------------------------
	 SCS Same-Spin Scale       =       0.3333333333333333 [-]
	 SCS Opposite-Spin Scale   =       1.2000000000000000 [-]
	 SCS Same-Spin Energy      =      -0.1734025958379146 [Eh]
	 SCS Opposite-Spin Energy  =      -1.9457076501860755 [Eh]
	 SCS Correlation Energy    =      -2.1191102460239901 [Eh]
	 SCS Total Energy          =    -514.4542465181790476 [Eh]
	-----------------------------------------------------------

  Dipole Moment: [D]
     X:    -8.6685      Y:     0.6098      Z:     1.6208     Total:     8.8398

*** Psi4 exiting successfully. Buy a developer a beer!
