                               Psi4 1.3.2 release

  ==> Input File <==

--------------------------------------------------------------------------
#psi4
#
memory 32 gb

molecule  {
-1 1
  O       -1.6024110     1.2883820    -0.5634480
  O        2.0191420    -1.7287390     0.1939930
  O        3.3803020    -0.0587520    -0.5397320
  N       -0.1147610    -0.2476350     0.2334190
  C        1.0875530     0.4615680    -0.1724770
  C        1.3782960     1.6508690     0.7367710
  C       -2.4731170    -0.8032840     0.3122730
  C       -1.5499606     0.2416214    -0.0948857
  C        2.2731730    -0.5407160    -0.1753640
  C       -3.8468580    -0.3344400    -0.1480570
  H        0.9550610     0.8289670    -1.1997950
  H        0.0672430    -1.2232590     0.4643770
  H        1.5293690     1.3045580     1.7644240
  H        2.2851470     2.1591780     0.4026320
  H        0.5420990     2.3541860     0.7225810
  H       -2.2325720    -1.7800520    -0.1237300
  H       -2.4588320    -0.9441430     1.3993390
  H       -4.0995650     0.6270340     0.3028840
  H       -3.8738130    -0.2132220    -1.2332140
  H       -4.6116960    -1.0622230     0.1365660
units angstrom
no_reorient  #important for SAPT in psi4, default
symmetry c1  #important for SAPT in psi4, default
}

set PROPERTIES_ORIGIN ["COM"]
properties('MP2/aug-cc-pvtz', properties = ['dipole'])
--------------------------------------------------------------------------

    Molecular point group: c1
  Charge       = -1
  Multiplicity = 1
  Basis Set: AUG-CC-PVTZ
    Blend: AUG-CC-PVTZ
  Basis Set: (AUG-CC-PVTZ AUX)
    Blend: AUG-CC-PVTZ-JKFIT

    Orbital Energies [Eh]
    ---------------------

    Doubly Occupied:

       1A    -20.430502     2A    -20.307727     3A    -20.301555
       4A    -15.398406     5A    -11.235768     6A    -11.147912
       7A    -11.144261     8A    -11.134737     9A    -11.096230
      10A    -11.063898    11A     -1.323477    12A     -1.176764
      13A     -1.077367    14A     -1.029817    15A     -0.973460
      16A     -0.852318    17A     -0.792953    18A     -0.695955
      19A     -0.633713    20A     -0.587284    21A     -0.550052
      22A     -0.539165    23A     -0.529966    24A     -0.483199
      25A     -0.458808    26A     -0.441841    27A     -0.441406
      28A     -0.426894    29A     -0.412138    30A     -0.407579
      31A     -0.392319    32A     -0.381068    33A     -0.356535
      34A     -0.332715    35A     -0.304457    36A     -0.228041
      37A     -0.220985    38A     -0.208157    39A     -0.199023

  @DF-RHF Final Energy:  -512.29096738197097

   => Energetics <=

    Nuclear Repulsion Energy =            532.5905882737857837
    One-Electron Energy =               -1770.3262078904713235
    Two-Electron Energy =                 725.4446522347146811
    Total Energy =                       -512.2909673819709724
  Basis Set: (AUG-CC-PVTZ AUX)
    Blend: AUG-CC-PVTZ-RI
    Molecular point group: c1

    Geometry (in Angstrom), charge = -1, multiplicity = 1:

       Center              X                  Y                   Z               Mass
    ------------   -----------------  -----------------  -----------------  -----------------
         O           -1.668801309701     1.297241566719    -0.541805360198    15.994914619570
         O            1.952751690299    -1.719879433281     0.215635639802    15.994914619570
         O            3.313911690299    -0.049892433281    -0.518089360198    15.994914619570
         N           -0.181151309701    -0.238775433281     0.255061639802    14.003074004430
         C            1.021162690299     0.470427566719    -0.150834360198    12.000000000000
         C            1.311905690299     1.659728566719     0.758413639802    12.000000000000
         C           -2.539507309701    -0.794424433281     0.333915639802    12.000000000000
         C           -1.616350909701     0.250480966719    -0.073243060198    12.000000000000
         C            2.206782690299    -0.531856433281    -0.153721360198    12.000000000000
         C           -3.913248309701    -0.325580433281    -0.126414360198    12.000000000000
         H            0.888670690299     0.837826566719    -1.178152360198     1.007825032230
         H            0.000852690299    -1.214399433281     0.486019639802     1.007825032230
         H            1.462978690299     1.313417566719     1.786066639802     1.007825032230
         H            2.218756690299     2.168037566719     0.424274639802     1.007825032230
         H            0.475708690299     2.363045566719     0.744223639802     1.007825032230
         H           -2.298962309701    -1.771192433281    -0.102087360198     1.007825032230
         H           -2.525222309701    -0.935283433281     1.420981639802     1.007825032230
         H           -4.165955309701     0.635893566719     0.324526639802     1.007825032230
         H           -3.940203309701    -0.204362433281    -1.211571360198     1.007825032230
         H           -4.678086309701    -1.053363433281     0.158208639802     1.007825032230

  Basis Set: AUG-CC-PVTZ
    Blend: AUG-CC-PVTZ
  Basis Set: (AUG-CC-PVTZ AUX)
    Blend: AUG-CC-PVTZ-JKFIT
	 Reference Energy          =    -512.2909673819709724 [Eh]
	 Singles Energy            =      -0.0000000000000000 [Eh]
	 Same-Spin Energy          =      -0.5202401466144253 [Eh]
	 Opposite-Spin Energy      =      -1.6215779205374816 [Eh]
	 Correlation Energy        =      -2.1418180671519069 [Eh]
	 Total Energy              =    -514.4327854491228891 [Eh]

	 ================> DF-SCS-MP2 Energies <==================
	-----------------------------------------------------------
	 SCS Same-Spin Scale       =       0.3333333333333333 [-]
	 SCS Opposite-Spin Scale   =       1.2000000000000000 [-]
	 SCS Same-Spin Energy      =      -0.1734133822048084 [Eh]
	 SCS Opposite-Spin Energy  =      -1.9458935046449779 [Eh]
	 SCS Correlation Energy    =      -2.1193068868497864 [Eh]
	 SCS Total Energy          =    -514.4102742688207854 [Eh]
	-----------------------------------------------------------

  Dipole Moment: [D]
     X:   -10.6619      Y:     1.1005      Z:     1.1856     Total:    10.7839

*** Psi4 exiting successfully. Buy a developer a beer!
