                               Psi4 1.3.2 release

  ==> Input File <==

--------------------------------------------------------------------------
#psi4
#
memory 32 gb

molecule  {
-1 1
  O       -1.6024110     1.2883820    -0.5634480
  O        1.9954644    -1.7751725     0.1504233
  O        3.3803020    -0.0587520    -0.5397320
  N       -0.1119338    -0.2290926     0.2477200
  C        1.0875530     0.4615680    -0.1724770
  C        1.3782960     1.6508690     0.7367710
  C       -2.4731170    -0.8032840     0.3122730
  C       -1.3649450     0.1785500    -0.0525630
  C        2.2731730    -0.5407160    -0.1753640
  C       -3.8468580    -0.3344400    -0.1480570
  H        0.9550610     0.8289670    -1.1997950
  H        0.0672430    -1.2232590     0.4643770
  H        1.5293690     1.3045580     1.7644240
  H        2.2851470     2.1591780     0.4026320
  H        0.5420990     2.3541860     0.7225810
  H       -2.2325720    -1.7800520    -0.1237300
  H       -2.4588320    -0.9441430     1.3993390
  H       -4.0995650     0.6270340     0.3028840
  H       -3.8738130    -0.2132220    -1.2332140
  H       -4.6116960    -1.0622230     0.1365660
units angstrom
no_reorient  #important for SAPT in psi4, default
symmetry c1  #important for SAPT in psi4, default
}

set PROPERTIES_ORIGIN ["COM"]
properties('MP2/aug-cc-pvtz', properties = ['dipole'])
--------------------------------------------------------------------------

    Molecular point group: c1
  Charge       = -1
  Multiplicity = 1
  Basis Set: AUG-CC-PVTZ
    Blend: AUG-CC-PVTZ
  Basis Set: (AUG-CC-PVTZ AUX)
    Blend: AUG-CC-PVTZ-JKFIT

    Orbital Energies [Eh]
    ---------------------

    Doubly Occupied:

       1A    -20.391680     2A    -20.322342     3A    -20.321656
       4A    -15.438228     5A    -11.223533     6A    -11.169057
       7A    -11.135792     8A    -11.124537     9A    -11.117024
      10A    -11.076314    11A     -1.241940    12A     -1.182258
      13A     -1.095879    14A     -1.074979    15A     -0.949741
      16A     -0.879607    17A     -0.784107    18A     -0.722444
      19A     -0.635897    20A     -0.589612    21A     -0.544327
      22A     -0.533449    23A     -0.512366    24A     -0.482061
      25A     -0.464820    26A     -0.437649    27A     -0.426083
      28A     -0.418608    29A     -0.413023    30A     -0.401386
      31A     -0.396490    32A     -0.375038    33A     -0.368872
      34A     -0.339060    35A     -0.299961    36A     -0.257221
      37A     -0.236784    38A     -0.225563    39A     -0.216244

  @DF-RHF Final Energy:  -512.33045064939699

   => Energetics <=

    Nuclear Repulsion Energy =            532.4265576009664755
    One-Electron Energy =               -1769.8627531984682264
    Two-Electron Energy =                 725.1057449481048707
    Total Energy =                       -512.3304506493969939
  Basis Set: (AUG-CC-PVTZ AUX)
    Blend: AUG-CC-PVTZ-RI
    Molecular point group: c1

    Geometry (in Angstrom), charge = -1, multiplicity = 1:

       Center              X                  Y                   Z               Mass
    ------------   -----------------  -----------------  -----------------  -----------------
         O           -1.681858204528     1.305848076803    -0.541883357259    15.994914619570
         O            1.916017195472    -1.757706423197     0.171987942741    15.994914619570
         O            3.300854795472    -0.041285923197    -0.518167357259    15.994914619570
         N           -0.191381004528    -0.211626523197     0.269284642741    14.003074004430
         C            1.008105795472     0.479034076803    -0.150912357259    12.000000000000
         C            1.298848795472     1.668335076803     0.758335642741    12.000000000000
         C           -2.552564204528    -0.785817923197     0.333837642741    12.000000000000
         C           -1.444392204528     0.196016076803    -0.030998357259    12.000000000000
         C            2.193725795472    -0.523249923197    -0.153799357259    12.000000000000
         C           -3.926305204528    -0.316973923197    -0.126492357259    12.000000000000
         H            0.875613795472     0.846433076803    -1.178230357259     1.007825032230
         H           -0.012204204528    -1.205792923197     0.485941642741     1.007825032230
         H            1.449921795472     1.322024076803     1.785988642741     1.007825032230
         H            2.205699795472     2.176644076803     0.424196642741     1.007825032230
         H            0.462651795472     2.371652076803     0.744145642741     1.007825032230
         H           -2.312019204528    -1.762585923197    -0.102165357259     1.007825032230
         H           -2.538279204528    -0.926676923197     1.420903642741     1.007825032230
         H           -4.179012204528     0.644500076803     0.324448642741     1.007825032230
         H           -3.953260204528    -0.195755923197    -1.211649357259     1.007825032230
         H           -4.691143204528    -1.044756923197     0.158130642741     1.007825032230

  Basis Set: AUG-CC-PVTZ
    Blend: AUG-CC-PVTZ
  Basis Set: (AUG-CC-PVTZ AUX)
    Blend: AUG-CC-PVTZ-JKFIT
	 Reference Energy          =    -512.3304506493969939 [Eh]
	 Singles Energy            =      -0.0000000000000000 [Eh]
	 Same-Spin Energy          =      -0.5210244040141698 [Eh]
	 Opposite-Spin Energy      =      -1.6235418183609078 [Eh]
	 Correlation Energy        =      -2.1445662223750777 [Eh]
	 Total Energy              =    -514.4750168717720271 [Eh]

	 ================> DF-SCS-MP2 Energies <==================
	-----------------------------------------------------------
	 SCS Same-Spin Scale       =       0.3333333333333333 [-]
	 SCS Opposite-Spin Scale   =       1.2000000000000000 [-]
	 SCS Same-Spin Energy      =      -0.1736748013380566 [Eh]
	 SCS Opposite-Spin Energy  =      -1.9482501820330893 [Eh]
	 SCS Correlation Energy    =      -2.1219249833711458 [Eh]
	 SCS Total Energy          =    -514.4523756327681667 [Eh]
	-----------------------------------------------------------

  Dipole Moment: [D]
     X:    -8.5707      Y:     0.8465      Z:     1.5969     Total:     8.7592

*** Psi4 exiting successfully. Buy a developer a beer!
