                               Psi4 1.3.2 release

  ==> Input File <==

--------------------------------------------------------------------------
#psi4
#
memory 32 gb

molecule  {
-1 1
  O       -1.6024110     1.2883820    -0.5634480
  O        2.0191420    -1.7287390     0.1939930
  O        3.3803020    -0.0587520    -0.5397320
  N       -0.1147610    -0.2476350     0.2334190
  C        1.0451342     0.5240685    -0.1817872
  C        1.3782960     1.6508690     0.7367710
  C       -2.4731170    -0.8032840     0.3122730
  C       -1.3649450     0.1785500    -0.0525630
  C        2.2731730    -0.5407160    -0.1753640
  C       -3.8468580    -0.3344400    -0.1480570
  H        0.9550610     0.8289670    -1.1997950
  H        0.0153082    -1.2289338     0.4751709
  H        1.5293690     1.3045580     1.7644240
  H        2.2851470     2.1591780     0.4026320
  H        0.5420990     2.3541860     0.7225810
  H       -2.2325720    -1.7800520    -0.1237300
  H       -2.4588320    -0.9441430     1.3993390
  H       -4.0995650     0.6270340     0.3028840
  H       -3.8738130    -0.2132220    -1.2332140
  H       -4.6116960    -1.0622230     0.1365660
units angstrom
no_reorient  #important for SAPT in psi4, default
symmetry c1  #important for SAPT in psi4, default
}

set PROPERTIES_ORIGIN ["COM"]
properties('MP2/aug-cc-pvtz', properties = ['dipole'])
--------------------------------------------------------------------------

    Molecular point group: c1
  Charge       = -1
  Multiplicity = 1
  Basis Set: AUG-CC-PVTZ
    Blend: AUG-CC-PVTZ
  Basis Set: (AUG-CC-PVTZ AUX)
    Blend: AUG-CC-PVTZ-JKFIT

    Orbital Energies [Eh]
    ---------------------

    Doubly Occupied:

       1A    -20.391046     2A    -20.321765     3A    -20.313347
       4A    -15.438882     5A    -11.221307     6A    -11.163239
       7A    -11.135222     8A    -11.124328     9A    -11.112309
      10A    -11.073805    11A     -1.241501    12A     -1.186872
      13A     -1.095138    14A     -1.081087    15A     -0.949454
      16A     -0.882564    17A     -0.783745    18A     -0.713960
      19A     -0.638626    20A     -0.584817    21A     -0.537951
      22A     -0.532190    23A     -0.516585    24A     -0.482722
      25A     -0.464462    26A     -0.440657    27A     -0.425270
      28A     -0.417711    29A     -0.413045    30A     -0.405094
      31A     -0.394012    32A     -0.378835    33A     -0.369748
      34A     -0.348370    35A     -0.298461    36A     -0.260492
      37A     -0.234546    38A     -0.216323    39A     -0.210163

  @DF-RHF Final Energy:  -512.32948996201856

   => Energetics <=

    Nuclear Repulsion Energy =            533.0229617971982634
    One-Electron Energy =               -1771.1056059637671751
    Two-Electron Energy =                 725.7531542045504693
    Total Energy =                       -512.3294899620185561
  Basis Set: (AUG-CC-PVTZ AUX)
    Blend: AUG-CC-PVTZ-RI
    Molecular point group: c1

    Geometry (in Angstrom), charge = -1, multiplicity = 1:

       Center              X                  Y                   Z               Mass
    ------------   -----------------  -----------------  -----------------  -----------------
         O           -1.680315613030     1.297328818392    -0.544630649787    15.994914619570
         O            1.941237386970    -1.719792181608     0.212810350213    15.994914619570
         O            3.302397386970    -0.049805181608    -0.520914649787    15.994914619570
         N           -0.192665613030    -0.238688181608     0.252236350213    14.003074004430
         C            0.967229586970     0.533015318392    -0.162969849787    12.000000000000
         C            1.300391386970     1.659815818392     0.755588350213    12.000000000000
         C           -2.551021613030    -0.794337181608     0.331090350213    12.000000000000
         C           -1.442849613030     0.187496818392    -0.033745649787    12.000000000000
         C            2.195268386970    -0.531769181608    -0.156546649787    12.000000000000
         C           -3.924762613030    -0.325493181608    -0.129239649787    12.000000000000
         H            0.877156386970     0.837913818392    -1.180977649787     1.007825032230
         H           -0.062596413030    -1.219986981608     0.493988250213     1.007825032230
         H            1.451464386970     1.313504818392     1.783241350213     1.007825032230
         H            2.207242386970     2.168124818392     0.421449350213     1.007825032230
         H            0.464194386970     2.363132818392     0.741398350213     1.007825032230
         H           -2.310476613030    -1.771105181608    -0.104912649787     1.007825032230
         H           -2.536736613030    -0.935196181608     1.418156350213     1.007825032230
         H           -4.177469613030     0.635980818392     0.321701350213     1.007825032230
         H           -3.951717613030    -0.204275181608    -1.214396649787     1.007825032230
         H           -4.689600613030    -1.053276181608     0.155383350213     1.007825032230

  Basis Set: AUG-CC-PVTZ
    Blend: AUG-CC-PVTZ
  Basis Set: (AUG-CC-PVTZ AUX)
    Blend: AUG-CC-PVTZ-JKFIT
	 Reference Energy          =    -512.3294899620185561 [Eh]
	 Singles Energy            =      -0.0000000000000000 [Eh]
	 Same-Spin Energy          =      -0.5204418936807402 [Eh]
	 Opposite-Spin Energy      =      -1.6217287564925971 [Eh]
	 Correlation Energy        =      -2.1421706501733375 [Eh]
	 Total Energy              =    -514.4716606121918403 [Eh]

	 ================> DF-SCS-MP2 Energies <==================
	-----------------------------------------------------------
	 SCS Same-Spin Scale       =       0.3333333333333333 [-]
	 SCS Opposite-Spin Scale   =       1.2000000000000000 [-]
	 SCS Same-Spin Energy      =      -0.1734806312269134 [Eh]
	 SCS Opposite-Spin Energy  =      -1.9460745077911163 [Eh]
	 SCS Correlation Energy    =      -2.1195551390180296 [Eh]
	 SCS Total Energy          =    -514.4490451010366314 [Eh]
	-----------------------------------------------------------

  Dipole Moment: [D]
     X:    -8.6958      Y:     0.6230      Z:     1.6120     Total:     8.8658

*** Psi4 exiting successfully. Buy a developer a beer!
