                               Psi4 1.3.2 release

  ==> Input File <==

--------------------------------------------------------------------------
#psi4
#
memory 32 gb

molecule  {
-1 1
  O       -1.6024110     1.2883820    -0.5634480
  O        2.0191420    -1.7287390     0.1939930
  O        3.3803020    -0.0587520    -0.5397320
  N       -0.1147610    -0.2476350     0.2334190
  C        1.0875530     0.4615680    -0.1724770
  C        1.3306684     1.6709943     0.7241183
  C       -2.4731170    -0.8032840     0.3122730
  C       -1.3649450     0.1785500    -0.0525630
  C        2.2454688    -0.5719233    -0.2099347
  C       -3.8468580    -0.3344400    -0.1480570
  H        0.9550610     0.8289670    -1.1997950
  H        0.0672430    -1.2232590     0.4643770
  H        1.5293690     1.3045580     1.7644240
  H        2.2851470     2.1591780     0.4026320
  H        0.5420990     2.3541860     0.7225810
  H       -2.2325720    -1.7800520    -0.1237300
  H       -2.4588320    -0.9441430     1.3993390
  H       -4.0995650     0.6270340     0.3028840
  H       -3.8738130    -0.2132220    -1.2332140
  H       -4.6116960    -1.0622230     0.1365660
units angstrom
no_reorient  #important for SAPT in psi4, default
symmetry c1  #important for SAPT in psi4, default
}

set PROPERTIES_ORIGIN ["COM"]
properties('MP2/aug-cc-pvtz', properties = ['dipole'])
--------------------------------------------------------------------------

    Molecular point group: c1
  Charge       = -1
  Multiplicity = 1
  Basis Set: AUG-CC-PVTZ
    Blend: AUG-CC-PVTZ
  Basis Set: (AUG-CC-PVTZ AUX)
    Blend: AUG-CC-PVTZ-JKFIT

    Orbital Energies [Eh]
    ---------------------

    Doubly Occupied:

       1A    -20.392324     2A    -20.329746     3A    -20.307741
       4A    -15.438009     5A    -11.223920     6A    -11.163412
       7A    -11.135821     8A    -11.124731     9A    -11.115258
      10A    -11.076197    11A     -1.242235    12A     -1.195355
      13A     -1.091404    14A     -1.082038    15A     -0.949799
      16A     -0.877514    17A     -0.784459    18A     -0.723418
      19A     -0.640230    20A     -0.588527    21A     -0.541885
      22A     -0.533338    23A     -0.511349    24A     -0.483920
      25A     -0.470186    26A     -0.439023    27A     -0.424016
      28A     -0.421496    29A     -0.412975    30A     -0.406195
      31A     -0.397518    32A     -0.375928    33A     -0.366710
      34A     -0.339350    35A     -0.299961    36A     -0.256405
      37A     -0.239439    38A     -0.221139    39A     -0.213817

  @DF-RHF Final Energy:  -512.32941376196902

   => Energetics <=

    Nuclear Repulsion Energy =            533.4893550278904968
    One-Electron Energy =               -1771.9639630817021043
    Two-Electron Energy =                 726.1451942918425857
    Total Energy =                       -512.3294137619690218
  Basis Set: (AUG-CC-PVTZ AUX)
    Blend: AUG-CC-PVTZ-RI
    Molecular point group: c1

    Geometry (in Angstrom), charge = -1, multiplicity = 1:

       Center              X                  Y                   Z               Mass
    ------------   -----------------  -----------------  -----------------  -----------------
         O           -1.677937434651     1.303418182845    -0.541397155818    15.994914619570
         O            1.943615565349    -1.713702817155     0.216043844182    15.994914619570
         O            3.304775565349    -0.043715817155    -0.517681155818    15.994914619570
         N           -0.190287434651    -0.232598817155     0.255469844182    14.003074004430
         C            1.012026565349     0.476604182845    -0.150426155818    12.000000000000
         C            1.255141965349     1.686030482845     0.746169144182    12.000000000000
         C           -2.548643434651    -0.788247817155     0.334323844182    12.000000000000
         C           -1.440471434651     0.193586182845    -0.030512155818    12.000000000000
         C            2.169942365349    -0.556887117155    -0.187883855818    12.000000000000
         C           -3.922384434651    -0.319403817155    -0.126006155818    12.000000000000
         H            0.879534565349     0.844003182845    -1.177744155818     1.007825032230
         H           -0.008283434651    -1.208222817155     0.486427844182     1.007825032230
         H            1.453842565349     1.319594182845     1.786474844182     1.007825032230
         H            2.209620565349     2.174214182845     0.424682844182     1.007825032230
         H            0.466572565349     2.369222182845     0.744631844182     1.007825032230
         H           -2.308098434651    -1.765015817155    -0.101679155818     1.007825032230
         H           -2.534358434651    -0.929106817155     1.421389844182     1.007825032230
         H           -4.175091434651     0.642070182845     0.324934844182     1.007825032230
         H           -3.949339434651    -0.198185817155    -1.211163155818     1.007825032230
         H           -4.687222434651    -1.047186817155     0.158616844182     1.007825032230

  Basis Set: AUG-CC-PVTZ
    Blend: AUG-CC-PVTZ
  Basis Set: (AUG-CC-PVTZ AUX)
    Blend: AUG-CC-PVTZ-JKFIT
	 Reference Energy          =    -512.3294137619690218 [Eh]
	 Singles Energy            =      -0.0000000000000000 [Eh]
	 Same-Spin Energy          =      -0.5203875363453279 [Eh]
	 Opposite-Spin Energy      =      -1.6219234214551141 [Eh]
	 Correlation Energy        =      -2.1423109578004418 [Eh]
	 Total Energy              =    -514.4717247197694405 [Eh]

	 ================> DF-SCS-MP2 Energies <==================
	-----------------------------------------------------------
	 SCS Same-Spin Scale       =       0.3333333333333333 [-]
	 SCS Opposite-Spin Scale   =       1.2000000000000000 [-]
	 SCS Same-Spin Energy      =      -0.1734625121151093 [Eh]
	 SCS Opposite-Spin Energy  =      -1.9463081057461369 [Eh]
	 SCS Correlation Energy    =      -2.1197706178612461 [Eh]
	 SCS Total Energy          =    -514.4491843798302853 [Eh]
	-----------------------------------------------------------

  Dipole Moment: [D]
     X:    -8.9004      Y:     0.4345      Z:     1.6597     Total:     9.0642

*** Psi4 exiting successfully. Buy a developer a beer!
