                               Psi4 1.3.2 release

  ==> Input File <==

--------------------------------------------------------------------------
#psi4
#
memory 32 gb

molecule  {
-1 1
  O       -1.6024110     1.2883820    -0.5634480
  O        1.9151879    -1.8952070     0.2488441
  O        3.3803020    -0.0587520    -0.5397320
  N       -0.1147610    -0.2476350     0.2334190
  C        1.0875530     0.4615680    -0.1724770
  C        1.3782960     1.6508690     0.7367710
  C       -2.4171549    -0.8591766     0.3231049
  C       -1.3649450     0.1785500    -0.0525630
  C        2.2731730    -0.5407160    -0.1753640
  C       -3.8468580    -0.3344400    -0.1480570
  H        0.9550610     0.8289670    -1.1997950
  H        0.0672430    -1.2232590     0.4643770
  H        1.5293690     1.3045580     1.7644240
  H        2.2851470     2.1591780     0.4026320
  H        0.5420990     2.3541860     0.7225810
  H       -2.2325720    -1.7800520    -0.1237300
  H       -2.4588320    -0.9441430     1.3993390
  H       -4.0995650     0.6270340     0.3028840
  H       -3.8738130    -0.2132220    -1.2332140
  H       -4.6116960    -1.0622230     0.1365660
units angstrom
no_reorient  #important for SAPT in psi4, default
symmetry c1  #important for SAPT in psi4, default
}

set PROPERTIES_ORIGIN ["COM"]
properties('MP2/aug-cc-pvtz', properties = ['dipole'])
--------------------------------------------------------------------------

    Molecular point group: c1
  Charge       = -1
  Multiplicity = 1
  Basis Set: AUG-CC-PVTZ
    Blend: AUG-CC-PVTZ
  Basis Set: (AUG-CC-PVTZ AUX)
    Blend: AUG-CC-PVTZ-JKFIT

    Orbital Energies [Eh]
    ---------------------

    Doubly Occupied:

       1A    -20.393120     2A    -20.353262     3A    -20.321990
       4A    -15.434801     5A    -11.223244     6A    -11.193429
       7A    -11.131114     8A    -11.126007     9A    -11.125149
      10A    -11.082508    11A     -1.241498    12A     -1.179342
      13A     -1.094851    14A     -1.030710    15A     -0.940849
      16A     -0.882127    17A     -0.785588    18A     -0.728402
      19A     -0.640792    20A     -0.594447    21A     -0.546416
      22A     -0.536955    23A     -0.515142    24A     -0.479981
      25A     -0.464848    26A     -0.439031    27A     -0.422058
      28A     -0.418206    29A     -0.409590    30A     -0.396695
      31A     -0.391820    32A     -0.376888    33A     -0.366747
      34A     -0.333825    35A     -0.301112    36A     -0.257317
      37A     -0.234658    38A     -0.227213    39A     -0.214735

  @DF-RHF Final Energy:  -512.28692665992776

   => Energetics <=

    Nuclear Repulsion Energy =            528.4858462277053377
    One-Electron Energy =               -1761.8726170185686897
    Two-Electron Energy =                 721.0998441309357077
    Total Energy =                       -512.2869266599277580
  Basis Set: (AUG-CC-PVTZ AUX)
    Blend: AUG-CC-PVTZ-RI
    Molecular point group: c1

    Geometry (in Angstrom), charge = -1, multiplicity = 1:

       Center              X                  Y                   Z               Mass
    ------------   -----------------  -----------------  -----------------  -----------------
         O           -1.677332086321     1.325632772909    -0.552322714356    15.994914619570
         O            1.840266813679    -1.857956227091     0.259969385644    15.994914619570
         O            3.305380913679    -0.021501227091    -0.528606714356    15.994914619570
         N           -0.189682086321    -0.210384227091     0.244544285644    14.003074004430
         C            1.012631913679     0.498818772909    -0.161351714356    12.000000000000
         C            1.303374913679     1.688119772909     0.747896285644    12.000000000000
         C           -2.492075986321    -0.821925827091     0.334230185644    12.000000000000
         C           -1.439866086321     0.215800772909    -0.041437714356    12.000000000000
         C            2.198251913679    -0.503465227091    -0.164238714356    12.000000000000
         C           -3.921779086321    -0.297189227091    -0.136931714356    12.000000000000
         H            0.880139913679     0.866217772909    -1.188669714356     1.007825032230
         H           -0.007678086321    -1.186008227091     0.475502285644     1.007825032230
         H            1.454447913679     1.341808772909     1.775549285644     1.007825032230
         H            2.210225913679     2.196428772909     0.413757285644     1.007825032230
         H            0.467177913679     2.391436772909     0.733706285644     1.007825032230
         H           -2.307493086321    -1.742801227091    -0.112604714356     1.007825032230
         H           -2.533753086321    -0.906892227091     1.410464285644     1.007825032230
         H           -4.174486086321     0.664284772909     0.314009285644     1.007825032230
         H           -3.948734086321    -0.175971227091    -1.222088714356     1.007825032230
         H           -4.686617086321    -1.024972227091     0.147691285644     1.007825032230

  Basis Set: AUG-CC-PVTZ
    Blend: AUG-CC-PVTZ
  Basis Set: (AUG-CC-PVTZ AUX)
    Blend: AUG-CC-PVTZ-JKFIT
	 Reference Energy          =    -512.2869266599277580 [Eh]
	 Singles Energy            =      -0.0000000000000000 [Eh]
	 Same-Spin Energy          =      -0.5234448182515188 [Eh]
	 Opposite-Spin Energy      =      -1.6316541141486369 [Eh]
	 Correlation Energy        =      -2.1550989324001559 [Eh]
	 Total Energy              =    -514.4420255923279228 [Eh]

	 ================> DF-SCS-MP2 Energies <==================
	-----------------------------------------------------------
	 SCS Same-Spin Scale       =       0.3333333333333333 [-]
	 SCS Opposite-Spin Scale   =       1.2000000000000000 [-]
	 SCS Same-Spin Energy      =      -0.1744816060838396 [Eh]
	 SCS Opposite-Spin Energy  =      -1.9579849369783642 [Eh]
	 SCS Correlation Energy    =      -2.1324665430622036 [Eh]
	 SCS Total Energy          =    -514.4193932029899088 [Eh]
	-----------------------------------------------------------

  Dipole Moment: [D]
     X:    -7.9327      Y:     1.7405      Z:     1.2351     Total:     8.2148

*** Psi4 exiting successfully. Buy a developer a beer!
