                               Psi4 1.3.2 release

  ==> Input File <==

--------------------------------------------------------------------------
#psi4
#
memory 32 gb

molecule  {
-1 1
  O       -1.6024110     1.2883820    -0.5634480
  O        2.0417888    -1.6817246     0.2374876
  O        3.3803020    -0.0587520    -0.5397320
  N       -0.1179690    -0.2660476     0.2190309
  C        1.0875530     0.4615680    -0.1724770
  C        1.3782960     1.6508690     0.7367710
  C       -2.4731170    -0.8032840     0.3122730
  C       -1.3649450     0.1785500    -0.0525630
  C        2.2731730    -0.5407160    -0.1753640
  C       -3.8468580    -0.3344400    -0.1480570
  H        0.9550610     0.8289670    -1.1997950
  H        0.0672430    -1.2232590     0.4643770
  H        1.5293690     1.3045580     1.7644240
  H        2.2851470     2.1591780     0.4026320
  H        0.5420990     2.3541860     0.7225810
  H       -2.2325720    -1.7800520    -0.1237300
  H       -2.4588320    -0.9441430     1.3993390
  H       -4.0995650     0.6270340     0.3028840
  H       -3.8738130    -0.2132220    -1.2332140
  H       -4.6116960    -1.0622230     0.1365660
units angstrom
no_reorient  #important for SAPT in psi4, default
symmetry c1  #important for SAPT in psi4, default
}

set PROPERTIES_ORIGIN ["COM"]
properties('MP2/aug-cc-pvtz', properties = ['dipole'])
--------------------------------------------------------------------------

    Molecular point group: c1
  Charge       = -1
  Multiplicity = 1
  Basis Set: AUG-CC-PVTZ
    Blend: AUG-CC-PVTZ
  Basis Set: (AUG-CC-PVTZ AUX)
    Blend: AUG-CC-PVTZ-JKFIT

    Orbital Energies [Eh]
    ---------------------

    Doubly Occupied:

       1A    -20.391895     2A    -20.322065     3A    -20.306149
       4A    -15.437595     5A    -11.223650     6A    -11.154782
       7A    -11.134951     8A    -11.124151     9A    -11.112443
      10A    -11.074915    11A     -1.241359    12A     -1.202298
      13A     -1.096733    14A     -1.084737    15A     -0.948856
      16A     -0.877270    17A     -0.783861    18A     -0.719532
      19A     -0.643320    20A     -0.587448    21A     -0.540007
      22A     -0.532610    23A     -0.510555    24A     -0.483870
      25A     -0.466694    26A     -0.439309    27A     -0.425745
      28A     -0.420287    29A     -0.413821    30A     -0.406325
      31A     -0.397058    32A     -0.376557    33A     -0.371308
      34A     -0.343831    35A     -0.299217    36A     -0.257113
      37A     -0.236143    38A     -0.220210    39A     -0.214277

  @DF-RHF Final Energy:  -512.33784855781391

   => Energetics <=

    Nuclear Repulsion Energy =            534.3909169324435879
    One-Electron Energy =               -1773.8116346999463531
    Two-Electron Energy =                 727.0828692096888517
    Total Energy =                       -512.3378485578139134
  Basis Set: (AUG-CC-PVTZ AUX)
    Blend: AUG-CC-PVTZ-RI
    Molecular point group: c1

    Geometry (in Angstrom), charge = -1, multiplicity = 1:

       Center              X                  Y                   Z               Mass
    ------------   -----------------  -----------------  -----------------  -----------------
         O           -1.686414749166     1.299065025149    -0.548761107634    15.994914619570
         O            1.957785050834    -1.671041574851     0.252174492366    15.994914619570
         O            3.296298250834    -0.048068974851    -0.525045107634    15.994914619570
         N           -0.201972749166    -0.255364574851     0.233717792366    14.003074004430
         C            1.003549250834     0.472251025149    -0.157790107634    12.000000000000
         C            1.294292250834     1.661552025149     0.751457892366    12.000000000000
         C           -2.557120749166    -0.792600974851     0.326959892366    12.000000000000
         C           -1.448948749166     0.189233025149    -0.037876107634    12.000000000000
         C            2.189169250834    -0.530032974851    -0.160677107634    12.000000000000
         C           -3.930861749166    -0.323756974851    -0.133370107634    12.000000000000
         H            0.871057250834     0.839650025149    -1.185108107634     1.007825032230
         H           -0.016760749166    -1.212575974851     0.479063892366     1.007825032230
         H            1.445365250834     1.315241025149     1.779110892366     1.007825032230
         H            2.201143250834     2.169861025149     0.417318892366     1.007825032230
         H            0.458095250834     2.364869025149     0.737267892366     1.007825032230
         H           -2.316575749166    -1.769368974851    -0.109043107634     1.007825032230
         H           -2.542835749166    -0.933459974851     1.414025892366     1.007825032230
         H           -4.183568749166     0.637717025149     0.317570892366     1.007825032230
         H           -3.957816749166    -0.202538974851    -1.218527107634     1.007825032230
         H           -4.695699749166    -1.051539974851     0.151252892366     1.007825032230

  Basis Set: AUG-CC-PVTZ
    Blend: AUG-CC-PVTZ
  Basis Set: (AUG-CC-PVTZ AUX)
    Blend: AUG-CC-PVTZ-JKFIT
	 Reference Energy          =    -512.3378485578139134 [Eh]
	 Singles Energy            =      -0.0000000000000000 [Eh]
	 Same-Spin Energy          =      -0.5193656574489136 [Eh]
	 Opposite-Spin Energy      =      -1.6193523225594719 [Eh]
	 Correlation Energy        =      -2.1387179800083853 [Eh]
	 Total Energy              =    -514.4765665378223503 [Eh]

	 ================> DF-SCS-MP2 Energies <==================
	-----------------------------------------------------------
	 SCS Same-Spin Scale       =       0.3333333333333333 [-]
	 SCS Opposite-Spin Scale   =       1.2000000000000000 [-]
	 SCS Same-Spin Energy      =      -0.1731218858163045 [Eh]
	 SCS Opposite-Spin Energy  =      -1.9432227870713663 [Eh]
	 SCS Correlation Energy    =      -2.1163446728876707 [Eh]
	 SCS Total Energy          =    -514.4541932307015486 [Eh]
	-----------------------------------------------------------

  Dipole Moment: [D]
     X:    -8.7913      Y:     0.4145      Z:     1.6095     Total:     8.9470

*** Psi4 exiting successfully. Buy a developer a beer!
