                               Psi4 1.3.2 release

  ==> Input File <==

--------------------------------------------------------------------------
#psi4
#
memory 32 gb

molecule  {
-1 1
  O       -1.6024110     1.2883820    -0.5634480
  O        2.0191420    -1.7287390     0.1939930
  O        3.3803020    -0.0587520    -0.5397320
  N       -0.1147610    -0.2476350     0.2334190
  C        1.0875530     0.4615680    -0.1724770
  C        1.3782960     1.6508690     0.7367710
  C       -2.4731170    -0.8032840     0.3122730
  C       -1.3649450     0.1785500    -0.0525630
  C        2.2731730    -0.5407160    -0.1753640
  C       -3.8468580    -0.3344400    -0.1480570
  H        0.9550610     0.8289670    -1.1997950
  H        0.0672430    -1.2232590     0.4643770
  H        1.5293690     1.3045580     1.7644240
  H        2.2851470     2.1591780     0.4026320
  H        0.5420990     2.3541860     0.7225810
  H       -2.2325720    -1.7800520    -0.1237300
  H       -2.4588320    -0.9441430     1.3993390
  H       -4.0995650     0.6270340     0.3028840
  H       -3.8738130    -0.2132220    -1.2332140
  H       -4.6116960    -1.0622230     0.1365660
units angstrom
no_reorient  #important for SAPT in psi4, default
symmetry c1  #important for SAPT in psi4, default
}

set PROPERTIES_ORIGIN ["COM"]
properties('MP2/aug-cc-pvtz', properties = ['dipole'])
--------------------------------------------------------------------------

    Molecular point group: c1
  Charge       = -1
  Multiplicity = 1
  Basis Set: AUG-CC-PVTZ
    Blend: AUG-CC-PVTZ
  Basis Set: (AUG-CC-PVTZ AUX)
    Blend: AUG-CC-PVTZ-JKFIT

    Orbital Energies [Eh]
    ---------------------

    Doubly Occupied:

       1A    -20.391760     2A    -20.322269     3A    -20.313735
       4A    -15.437910     5A    -11.223562     6A    -11.161915
       7A    -11.135380     8A    -11.124351     9A    -11.114695
      10A    -11.075576    11A     -1.241603    12A     -1.190548
      13A     -1.096597    14A     -1.081167    15A     -0.949307
      16A     -0.878429    17A     -0.783975    18A     -0.720959
      19A     -0.639475    20A     -0.588520    21A     -0.542087
      22A     -0.533041    23A     -0.511462    24A     -0.482910
      25A     -0.465588    26A     -0.438343    27A     -0.425841
      28A     -0.419386    29A     -0.413491    30A     -0.403820
      31A     -0.396740    32A     -0.375822    33A     -0.369911
      34A     -0.341452    35A     -0.299592    36A     -0.257115
      37A     -0.236881    38A     -0.223018    39A     -0.215570

  @DF-RHF Final Energy:  -512.33605289366233

   => Energetics <=

    Nuclear Repulsion Energy =            533.4191794028988625
    One-Electron Energy =               -1771.8628528979515977
    Two-Electron Energy =                 726.1076206013904084
    Total Energy =                       -512.3360528936623268
  Basis Set: (AUG-CC-PVTZ AUX)
    Blend: AUG-CC-PVTZ-RI
    Molecular point group: c1

    Geometry (in Angstrom), charge = -1, multiplicity = 1:

       Center              X                  Y                   Z               Mass
    ------------   -----------------  -----------------  -----------------  -----------------
         O           -1.684212205743     1.302495106359    -0.545330634445    15.994914619570
         O            1.937340794257    -1.714625893641     0.212110365555    15.994914619570
         O            3.298500794257    -0.044638893641    -0.521614634445    15.994914619570
         N           -0.196562205743    -0.233521893641     0.251536365555    14.003074004430
         C            1.005751794257     0.475681106359    -0.154359634445    12.000000000000
         C            1.296494794257     1.664982106359     0.754888365555    12.000000000000
         C           -2.554918205743    -0.789170893641     0.330390365555    12.000000000000
         C           -1.446746205743     0.192663106359    -0.034445634445    12.000000000000
         C            2.191371794257    -0.526602893641    -0.157246634445    12.000000000000
         C           -3.928659205743    -0.320326893641    -0.129939634445    12.000000000000
         H            0.873259794257     0.843080106359    -1.181677634445     1.007825032230
         H           -0.014558205743    -1.209145893641     0.482494365555     1.007825032230
         H            1.447567794257     1.318671106359     1.782541365555     1.007825032230
         H            2.203345794257     2.173291106359     0.420749365555     1.007825032230
         H            0.460297794257     2.368299106359     0.740698365555     1.007825032230
         H           -2.314373205743    -1.765938893641    -0.105612634445     1.007825032230
         H           -2.540633205743    -0.930029893641     1.417456365555     1.007825032230
         H           -4.181366205743     0.641147106359     0.321001365555     1.007825032230
         H           -3.955614205743    -0.199108893641    -1.215096634445     1.007825032230
         H           -4.693497205743    -1.048109893641     0.154683365555     1.007825032230

  Basis Set: AUG-CC-PVTZ
    Blend: AUG-CC-PVTZ
  Basis Set: (AUG-CC-PVTZ AUX)
    Blend: AUG-CC-PVTZ-JKFIT
	 Reference Energy          =    -512.3360528936623268 [Eh]
	 Singles Energy            =      -0.0000000000000000 [Eh]
	 Same-Spin Energy          =      -0.5201589112354417 [Eh]
	 Opposite-Spin Energy      =      -1.6213343548617807 [Eh]
	 Correlation Energy        =      -2.1414932660972221 [Eh]
	 Total Energy              =    -514.4775461597595267 [Eh]

	 ================> DF-SCS-MP2 Energies <==================
	-----------------------------------------------------------
	 SCS Same-Spin Scale       =       0.3333333333333333 [-]
	 SCS Opposite-Spin Scale   =       1.2000000000000000 [-]
	 SCS Same-Spin Energy      =      -0.1733863037451472 [Eh]
	 SCS Opposite-Spin Energy  =      -1.9456012258341366 [Eh]
	 SCS Correlation Energy    =      -2.1189875295792837 [Eh]
	 SCS Total Energy          =    -514.4550404232415985 [Eh]
	-----------------------------------------------------------

  Dipole Moment: [D]
     X:    -8.6844      Y:     0.6252      Z:     1.6004     Total:     8.8527

*** Psi4 exiting successfully. Buy a developer a beer!
