                               Psi4 1.3.2 release

  ==> Input File <==

--------------------------------------------------------------------------
#psi4
#
memory 32 gb

molecule  {
-1 1
  O       -1.6024110     1.2883820    -0.5634480
  O        2.0191420    -1.7287390     0.1939930
  O        3.3803020    -0.0587520    -0.5397320
  N       -0.1147610    -0.2476350     0.2334190
  C        1.0875530     0.4615680    -0.1724770
  C        1.3782960     1.6508690     0.7367710
  C       -2.4731170    -0.8032840     0.3122730
  C       -1.3649450     0.1785500    -0.0525630
  C        2.2731730    -0.5407160    -0.1753640
  C       -3.8468580    -0.3344400    -0.1480570
  H        0.9430059     0.8623957    -1.2932680
  H        0.0672430    -1.2232590     0.4643770
  H        1.5293690     1.3045580     1.7644240
  H        2.2851470     2.1591780     0.4026320
  H        0.5420990     2.3541860     0.7225810
  H       -2.2325720    -1.7800520    -0.1237300
  H       -2.4588320    -0.9441430     1.3993390
  H       -4.0995650     0.6270340     0.3028840
  H       -3.8738130    -0.2132220    -1.2332140
  H       -4.6116960    -1.0622230     0.1365660
units angstrom
no_reorient  #important for SAPT in psi4, default
symmetry c1  #important for SAPT in psi4, default
}

set PROPERTIES_ORIGIN ["COM"]
properties('MP2/aug-cc-pvtz', properties = ['dipole'])
--------------------------------------------------------------------------

    Molecular point group: c1
  Charge       = -1
  Multiplicity = 1
  Basis Set: AUG-CC-PVTZ
    Blend: AUG-CC-PVTZ
  Basis Set: (AUG-CC-PVTZ AUX)
    Blend: AUG-CC-PVTZ-JKFIT

    Orbital Energies [Eh]
    ---------------------

    Doubly Occupied:

       1A    -20.392134     2A    -20.322783     3A    -20.313584
       4A    -15.439184     5A    -11.223876     6A    -11.162665
       7A    -11.135672     8A    -11.126317     9A    -11.124524
      10A    -11.076690    11A     -1.241802    12A     -1.190733
      13A     -1.096900    14A     -1.081340    15A     -0.949288
      16A     -0.876366    17A     -0.784383    18A     -0.718611
      19A     -0.636189    20A     -0.588402    21A     -0.542636
      22A     -0.532133    23A     -0.504043    24A     -0.483106
      25A     -0.464719    26A     -0.437527    27A     -0.426107
      28A     -0.419727    29A     -0.413707    30A     -0.404168
      31A     -0.396854    32A     -0.376176    33A     -0.367373
      34A     -0.335648    35A     -0.299476    36A     -0.256217
      37A     -0.236814    38A     -0.223387    39A     -0.215554

  @DF-RHF Final Energy:  -512.32905577902238

   => Energetics <=

    Nuclear Repulsion Energy =            532.9054891716323255
    One-Electron Energy =               -1770.8354672716177447
    Two-Electron Energy =                 725.6009223209630363
    Total Energy =                       -512.3290557790223829
  Basis Set: (AUG-CC-PVTZ AUX)
    Blend: AUG-CC-PVTZ-RI
    Molecular point group: c1

    Geometry (in Angstrom), charge = -1, multiplicity = 1:

       Center              X                  Y                   Z               Mass
    ------------   -----------------  -----------------  -----------------  -----------------
         O           -1.684127873383     1.302261253370    -0.544676737032    15.994914619570
         O            1.937425126617    -1.714859746630     0.212764262968    15.994914619570
         O            3.298585126617    -0.044872746630    -0.520960737032    15.994914619570
         N           -0.196477873383    -0.233755746630     0.252190262968    14.003074004430
         C            1.005836126617     0.475447253370    -0.153705737032    12.000000000000
         C            1.296579126617     1.664748253370     0.755542262968    12.000000000000
         C           -2.554833873383    -0.789404746630     0.331044262968    12.000000000000
         C           -1.446661873383     0.192429253370    -0.033791737032    12.000000000000
         C            2.191456126617    -0.526836746630    -0.156592737032    12.000000000000
         C           -3.928574873383    -0.320560746630    -0.129285737032    12.000000000000
         H            0.861289026617     0.876274953370    -1.274496737032     1.007825032230
         H           -0.014473873383    -1.209379746630     0.483148262968     1.007825032230
         H            1.447652126617     1.318437253370     1.783195262968     1.007825032230
         H            2.203430126617     2.173057253370     0.421403262968     1.007825032230
         H            0.460382126617     2.368065253370     0.741352262968     1.007825032230
         H           -2.314288873383    -1.766172746630    -0.104958737032     1.007825032230
         H           -2.540548873383    -0.930263746630     1.418110262968     1.007825032230
         H           -4.181281873383     0.640913253370     0.321655262968     1.007825032230
         H           -3.955529873383    -0.199342746630    -1.214442737032     1.007825032230
         H           -4.693412873383    -1.048343746630     0.155337262968     1.007825032230

  Basis Set: AUG-CC-PVTZ
    Blend: AUG-CC-PVTZ
  Basis Set: (AUG-CC-PVTZ AUX)
    Blend: AUG-CC-PVTZ-JKFIT
	 Reference Energy          =    -512.3290557790223829 [Eh]
	 Singles Energy            =      -0.0000000000000000 [Eh]
	 Same-Spin Energy          =      -0.5203878844989258 [Eh]
	 Opposite-Spin Energy      =      -1.6222389469026517 [Eh]
	 Correlation Energy        =      -2.1426268314015777 [Eh]
	 Total Energy              =    -514.4716826104239544 [Eh]

	 ================> DF-SCS-MP2 Energies <==================
	-----------------------------------------------------------
	 SCS Same-Spin Scale       =       0.3333333333333333 [-]
	 SCS Opposite-Spin Scale   =       1.2000000000000000 [-]
	 SCS Same-Spin Energy      =      -0.1734626281663086 [Eh]
	 SCS Opposite-Spin Energy  =      -1.9466867362831819 [Eh]
	 SCS Correlation Energy    =      -2.1201493644494906 [Eh]
	 SCS Total Energy          =    -514.4492051434718860 [Eh]
	-----------------------------------------------------------

  Dipole Moment: [D]
     X:    -8.7030      Y:     0.6125      Z:     1.6586     Total:     8.8807

*** Psi4 exiting successfully. Buy a developer a beer!
