                               Psi4 1.4a3.dev225

  ==> Input File <==

--------------------------------------------------------------------------
#psi4
#
memory 32 gb

molecule  {
-1 1
  O       -1.5868420     1.2523650    -0.8113290
  O        2.0299390    -1.6922460     0.2543140
  O        3.4074630     0.0142020    -0.3584910
  N       -0.1383540    -0.2870410     0.0455440
  C        1.0782140     0.4735880    -0.1782270
  C        1.2275190     1.6106150     0.8299030
  C       -2.4816390    -0.8906360    -0.1487800
  C       -1.3788233     0.1084100    -0.3319259
  C        2.2855270    -0.4976230    -0.0923730
  C       -3.7126180    -0.2515540     0.4884160
  H        1.0494870     0.8996880    -1.1894520
  H        0.0515970    -1.2513350     0.3145600
  H        1.2660770     1.2028380     1.8451460
  H        2.1536960     2.1558630     0.6353850
  H        0.3800930     2.2967220     0.7589720
  H       -2.7387560    -1.2794370    -1.1416750
  H       -2.1327770    -1.7398080     0.4477120
  H       -3.4838230     0.1112750     1.4946450
  H       -4.0489630     0.5957980    -0.1116680
  H       -4.5299760    -0.9736440     0.5641870
units angstrom
no_reorient  #important for SAPT in psi4, default
symmetry c1  #important for SAPT in psi4, default
}

set PROPERTIES_ORIGIN ["COM"]
properties('MP2/aug-cc-pvtz', properties = ['dipole'])
--------------------------------------------------------------------------

    Molecular point group: c1
  Charge       = -1
  Multiplicity = 1
  Basis Set: AUG-CC-PVTZ
    Blend: AUG-CC-PVTZ
  Basis Set: (AUG-CC-PVTZ AUX)
    Blend: AUG-CC-PVTZ-JKFIT

    Orbital Energies [Eh]
    ---------------------

    Doubly Occupied:

       1A    -20.386634     2A    -20.322843     3A    -20.314544
       4A    -15.442238     5A    -11.223847     6A    -11.162632
       7A    -11.135759     8A    -11.128664     9A    -11.115313
      10A    -11.076824    11A     -1.232704    12A     -1.190923
      13A     -1.096344    14A     -1.080340    15A     -0.954420
      16A     -0.878771    17A     -0.787350    18A     -0.724653
      19A     -0.641153    20A     -0.589399    21A     -0.548258
      22A     -0.524824    23A     -0.513048    24A     -0.481138
      25A     -0.462521    26A     -0.443561    27A     -0.435037
      28A     -0.419088    29A     -0.411479    30A     -0.405712
      31A     -0.395777    32A     -0.374397    33A     -0.368647
      34A     -0.339961    35A     -0.298047    36A     -0.256849
      37A     -0.237704    38A     -0.223332    39A     -0.215826

  @DF-RHF Final Energy:  -512.33447484456224

   => Energetics <=

    Nuclear Repulsion Energy =            534.1621992362964875
    One-Electron Energy =               -1773.3122293715430260
    Two-Electron Energy =                 726.8155552906844150
    Total Energy =                       -512.3344748445622372
  Basis Set: (AUG-CC-PVTZ AUX)
    Blend: AUG-CC-PVTZ-RI
    Molecular point group: c1

    Geometry (in Angstrom), charge = -1, multiplicity = 1:

       Center              X                  Y                   Z               Mass
    ------------   -----------------  -----------------  -----------------  -----------------
         O           -1.668350764501     1.267363708931    -0.786650006185    15.994914619570
         O            1.948430235499    -1.677247291069     0.278992993815    15.994914619570
         O            3.325954235499     0.029200708931    -0.333812006185    15.994914619570
         N           -0.219862764501    -0.272042291069     0.070222993815    14.003074004430
         C            0.996705235499     0.488586708931    -0.153548006185    12.000000000000
         C            1.146010235499     1.625613708931     0.854581993815    12.000000000000
         C           -2.563147764501    -0.875637291069    -0.124101006185    12.000000000000
         C           -1.460332064501     0.123408708931    -0.307246906185    12.000000000000
         C            2.204018235499    -0.482624291069    -0.067694006185    12.000000000000
         C           -3.794126764501    -0.236555291069     0.513094993815    12.000000000000
         H            0.967978235499     0.914686708931    -1.164773006185     1.007825032230
         H           -0.029911764501    -1.236336291069     0.339238993815     1.007825032230
         H            1.184568235499     1.217836708931     1.869824993815     1.007825032230
         H            2.072187235499     2.170861708931     0.660063993815     1.007825032230
         H            0.298584235499     2.311720708931     0.783650993815     1.007825032230
         H           -2.820264764501    -1.264438291069    -1.116996006185     1.007825032230
         H           -2.214285764501    -1.724809291069     0.472390993815     1.007825032230
         H           -3.565331764501     0.126273708931     1.519323993815     1.007825032230
         H           -4.130471764501     0.610796708931    -0.086989006185     1.007825032230
         H           -4.611484764501    -0.958645291069     0.588865993815     1.007825032230

  Basis Set: AUG-CC-PVTZ
    Blend: AUG-CC-PVTZ
  Basis Set: (AUG-CC-PVTZ AUX)
    Blend: AUG-CC-PVTZ-JKFIT
	 Reference Energy          =    -512.3344748445622372 [Eh]
	 Singles Energy            =      -0.0000000000000000 [Eh]
	 Same-Spin Energy          =      -0.5207891472684709 [Eh]
	 Opposite-Spin Energy      =      -1.6224721851955910 [Eh]
	 Correlation Energy        =      -2.1432613324640619 [Eh]
	 Total Energy              =    -514.4777361770262587 [Eh]

	 ================> DF-SCS-MP2 Energies <==================
	-----------------------------------------------------------
	 SCS Same-Spin Scale       =       0.3333333333333333 [-]
	 SCS Opposite-Spin Scale   =       1.2000000000000000 [-]
	 SCS Same-Spin Energy      =      -0.1735963824228236 [Eh]
	 SCS Opposite-Spin Energy  =      -1.9469666222347091 [Eh]
	 SCS Correlation Energy    =      -2.1205630046575328 [Eh]
	 SCS Total Energy          =    -514.4550378492198206 [Eh]
	-----------------------------------------------------------

  Dipole Moment: [D]
     X:    -8.7336      Y:     0.3135      Z:     1.2398     Total:     8.8267

*** Psi4 exiting successfully. Buy a developer a beer!
