                               Psi4 1.3.2 release

  ==> Input File <==

--------------------------------------------------------------------------
#psi4
#
memory 32 gb

molecule  {
-1 1
  O       -1.6024110     1.2883820    -0.5634480
  O        2.0191420    -1.7287390     0.1939930
  O        3.3803020    -0.0587520    -0.5397320
  N       -0.1147610    -0.2476350     0.2334190
  C        1.0875530     0.4615680    -0.1724770
  C        1.3782960     1.6508690     0.7367710
  C       -2.4731170    -0.8032840     0.3122730
  C       -1.3649450     0.1785500    -0.0525630
  C        2.2812131    -0.5276796    -0.2551876
  C       -3.8468580    -0.3344400    -0.1480570
  H        0.9991551     0.7956396    -1.2157892
  H        0.0672430    -1.2232590     0.4643770
  H        1.5293690     1.3045580     1.7644240
  H        2.2851470     2.1591780     0.4026320
  H        0.5420990     2.3541860     0.7225810
  H       -2.2325720    -1.7800520    -0.1237300
  H       -2.4588320    -0.9441430     1.3993390
  H       -4.0995650     0.6270340     0.3028840
  H       -3.8738130    -0.2132220    -1.2332140
  H       -4.6116960    -1.0622230     0.1365660
units angstrom
no_reorient  #important for SAPT in psi4, default
symmetry c1  #important for SAPT in psi4, default
}

set PROPERTIES_ORIGIN ["COM"]
properties('MP2/aug-cc-pvtz', properties = ['dipole'])
--------------------------------------------------------------------------

    Molecular point group: c1
  Charge       = -1
  Multiplicity = 1
  Basis Set: AUG-CC-PVTZ
    Blend: AUG-CC-PVTZ
  Basis Set: (AUG-CC-PVTZ AUX)
    Blend: AUG-CC-PVTZ-JKFIT

    Orbital Energies [Eh]
    ---------------------

    Doubly Occupied:

       1A    -20.390807     2A    -20.323300     3A    -20.312721
       4A    -15.437286     5A    -11.222842     6A    -11.161977
       7A    -11.134690     8A    -11.123812     9A    -11.114867
      10A    -11.077156    11A     -1.240617    12A     -1.195153
      13A     -1.097974    14A     -1.072022    15A     -0.948557
      16A     -0.878441    17A     -0.783466    18A     -0.722750
      19A     -0.639163    20A     -0.586726    21A     -0.543121
      22A     -0.531650    23A     -0.509673    24A     -0.482363
      25A     -0.464553    26A     -0.438813    27A     -0.426550
      28A     -0.419812    29A     -0.413362    30A     -0.403808
      31A     -0.395988    32A     -0.375270    33A     -0.370472
      34A     -0.340855    35A     -0.299332    36A     -0.256525
      37A     -0.233324    38A     -0.222134    39A     -0.215196

  @DF-RHF Final Energy:  -512.33001461155163

   => Energetics <=

    Nuclear Repulsion Energy =            533.1548040723641861
    One-Electron Energy =               -1771.3553775037128162
    Two-Electron Energy =                 725.8705588197969973
    Total Energy =                       -512.3300146115516327
  Basis Set: (AUG-CC-PVTZ AUX)
    Blend: AUG-CC-PVTZ-RI
    Molecular point group: c1

    Geometry (in Angstrom), charge = -1, multiplicity = 1:

       Center              X                  Y                   Z               Mass
    ------------   -----------------  -----------------  -----------------  -----------------
         O           -1.685190370411     1.301642382234    -0.538569829715    15.994914619570
         O            1.936362629589    -1.715478617766     0.218871170285    15.994914619570
         O            3.297522629589    -0.045491617766    -0.514853829715    15.994914619570
         N           -0.197540370411    -0.234374617766     0.258297170285    14.003074004430
         C            1.004773629589     0.474828382234    -0.147598829715    12.000000000000
         C            1.295516629589     1.664129382234     0.761649170285    12.000000000000
         C           -2.555896370411    -0.790023617766     0.337151170285    12.000000000000
         C           -1.447724370411     0.191810382234    -0.027684829715    12.000000000000
         C            2.198433729589    -0.514419217766    -0.230309429715    12.000000000000
         C           -3.929637370411    -0.321179617766    -0.123178829715    12.000000000000
         H            0.916375729589     0.808899982234    -1.190911029715     1.007825032230
         H           -0.015536370411    -1.209998617766     0.489255170285     1.007825032230
         H            1.446589629589     1.317818382234     1.789302170285     1.007825032230
         H            2.202367629589     2.172438382234     0.427510170285     1.007825032230
         H            0.459319629589     2.367446382234     0.747459170285     1.007825032230
         H           -2.315351370411    -1.766791617766    -0.098851829715     1.007825032230
         H           -2.541611370411    -0.930882617766     1.424217170285     1.007825032230
         H           -4.182344370411     0.640294382234     0.327762170285     1.007825032230
         H           -3.956592370411    -0.199961617766    -1.208335829715     1.007825032230
         H           -4.694475370411    -1.048962617766     0.161444170285     1.007825032230

  Basis Set: AUG-CC-PVTZ
    Blend: AUG-CC-PVTZ
  Basis Set: (AUG-CC-PVTZ AUX)
    Blend: AUG-CC-PVTZ-JKFIT
	 Reference Energy          =    -512.3300146115516327 [Eh]
	 Singles Energy            =      -0.0000000000000000 [Eh]
	 Same-Spin Energy          =      -0.5203460626825736 [Eh]
	 Opposite-Spin Energy      =      -1.6218335589088309 [Eh]
	 Correlation Energy        =      -2.1421796215914046 [Eh]
	 Total Energy              =    -514.4721942331430000 [Eh]

	 ================> DF-SCS-MP2 Energies <==================
	-----------------------------------------------------------
	 SCS Same-Spin Scale       =       0.3333333333333333 [-]
	 SCS Opposite-Spin Scale   =       1.2000000000000000 [-]
	 SCS Same-Spin Energy      =      -0.1734486875608579 [Eh]
	 SCS Opposite-Spin Energy  =      -1.9462002706905970 [Eh]
	 SCS Correlation Energy    =      -2.1196489582514548 [Eh]
	 SCS Total Energy          =    -514.4496635698030786 [Eh]
	-----------------------------------------------------------

  Dipole Moment: [D]
     X:    -8.4279      Y:     0.9091      Z:     1.4408     Total:     8.5984

*** Psi4 exiting successfully. Buy a developer a beer!
