                               Psi4 1.3.2 release

  ==> Input File <==

--------------------------------------------------------------------------
#psi4
#
memory 32 gb

molecule  {
-1 1
  O       -1.6024110     1.2883820    -0.5634480
  O        2.0191420    -1.7287390     0.1939930
  O        3.3803020    -0.0587520    -0.5397320
  N       -0.1147610    -0.2476350     0.2334190
  C        1.0875530     0.4615680    -0.1724770
  C        1.3791223     1.6426283     0.7471883
  C       -2.4731170    -0.8032840     0.3122730
  C       -1.3649450     0.1785500    -0.0525630
  C        2.2731730    -0.5407160    -0.1753640
  C       -3.8468580    -0.3344400    -0.1480570
  H        0.9535263     0.8199781    -1.2027670
  H        0.0672430    -1.2232590     0.4643770
  H        1.5293690     1.3045580     1.7644240
  H        2.2851470     2.1591780     0.4026320
  H        0.5420990     2.3541860     0.7225810
  H       -2.2325720    -1.7800520    -0.1237300
  H       -2.4588320    -0.9441430     1.3993390
  H       -4.0995650     0.6270340     0.3028840
  H       -3.8738130    -0.2132220    -1.2332140
  H       -4.6116960    -1.0622230     0.1365660
units angstrom
no_reorient  #important for SAPT in psi4, default
symmetry c1  #important for SAPT in psi4, default
}

set PROPERTIES_ORIGIN ["COM"]
properties('MP2/aug-cc-pvtz', properties = ['dipole'])
--------------------------------------------------------------------------

    Molecular point group: c1
  Charge       = -1
  Multiplicity = 1
  Basis Set: AUG-CC-PVTZ
    Blend: AUG-CC-PVTZ
  Basis Set: (AUG-CC-PVTZ AUX)
    Blend: AUG-CC-PVTZ-JKFIT

    Orbital Energies [Eh]
    ---------------------

    Doubly Occupied:

       1A    -20.391626     2A    -20.322180     3A    -20.313688
       4A    -15.437637     5A    -11.223432     6A    -11.161741
       7A    -11.135302     8A    -11.124295     9A    -11.114716
      10A    -11.075632    11A     -1.241480    12A     -1.190504
      13A     -1.096537    14A     -1.081102    15A     -0.949245
      16A     -0.878323    17A     -0.783888    18A     -0.721103
      19A     -0.639457    20A     -0.588422    21A     -0.541977
      22A     -0.532987    23A     -0.511559    24A     -0.482666
      25A     -0.465356    26A     -0.438579    27A     -0.425904
      28A     -0.419208    29A     -0.413391    30A     -0.404658
      31A     -0.395699    32A     -0.374594    33A     -0.370295
      34A     -0.342539    35A     -0.299379    36A     -0.257205
      37A     -0.236694    38A     -0.222803    39A     -0.215512

  @DF-RHF Final Energy:  -512.33582084967452

   => Energetics <=

    Nuclear Repulsion Energy =            533.4571021875939323
    One-Electron Energy =               -1771.9432146341314365
    Two-Electron Energy =                 726.1502915968628713
    Total Energy =                       -512.3358208496745192
  Basis Set: (AUG-CC-PVTZ AUX)
    Blend: AUG-CC-PVTZ-RI
    Molecular point group: c1

    Geometry (in Angstrom), charge = -1, multiplicity = 1:

       Center              X                  Y                   Z               Mass
    ------------   -----------------  -----------------  -----------------  -----------------
         O           -1.684270296389     1.303244398957    -0.546177553817    15.994914619570
         O            1.937282703611    -1.713876601043     0.211263446183    15.994914619570
         O            3.298442703611    -0.043889601043    -0.522461553817    15.994914619570
         N           -0.196620296389    -0.232772601043     0.250689446183    14.003074004430
         C            1.005693703611     0.476430398957    -0.155206553817    12.000000000000
         C            1.297263003611     1.657490698957     0.764458746183    12.000000000000
         C           -2.554976296389    -0.788421601043     0.329543446183    12.000000000000
         C           -1.446804296389     0.193412398957    -0.035292553817    12.000000000000
         C            2.191313703611    -0.525853601043    -0.158093553817    12.000000000000
         C           -3.928717296389    -0.319577601043    -0.130786553817    12.000000000000
         H            0.871667003611     0.834840498957    -1.185496553817     1.007825032230
         H           -0.014616296389    -1.208396601043     0.481647446183     1.007825032230
         H            1.447509703611     1.319420398957     1.781694446183     1.007825032230
         H            2.203287703611     2.174040398957     0.419902446183     1.007825032230
         H            0.460239703611     2.369048398957     0.739851446183     1.007825032230
         H           -2.314431296389    -1.765189601043    -0.106459553817     1.007825032230
         H           -2.540691296389    -0.929280601043     1.416609446183     1.007825032230
         H           -4.181424296389     0.641896398957     0.320154446183     1.007825032230
         H           -3.955672296389    -0.198359601043    -1.215943553817     1.007825032230
         H           -4.693555296389    -1.047360601043     0.153836446183     1.007825032230

  Basis Set: AUG-CC-PVTZ
    Blend: AUG-CC-PVTZ
  Basis Set: (AUG-CC-PVTZ AUX)
    Blend: AUG-CC-PVTZ-JKFIT
	 Reference Energy          =    -512.3358208496745192 [Eh]
	 Singles Energy            =      -0.0000000000000000 [Eh]
	 Same-Spin Energy          =      -0.5201788947375456 [Eh]
	 Opposite-Spin Energy      =      -1.6213674409668637 [Eh]
	 Correlation Energy        =      -2.1415463357044091 [Eh]
	 Total Energy              =    -514.4773671853789665 [Eh]

	 ================> DF-SCS-MP2 Energies <==================
	-----------------------------------------------------------
	 SCS Same-Spin Scale       =       0.3333333333333333 [-]
	 SCS Opposite-Spin Scale   =       1.2000000000000000 [-]
	 SCS Same-Spin Energy      =      -0.1733929649125152 [Eh]
	 SCS Opposite-Spin Energy  =      -1.9456409291602363 [Eh]
	 SCS Correlation Energy    =      -2.1190338940727518 [Eh]
	 SCS Total Energy          =    -514.4548547437473189 [Eh]
	-----------------------------------------------------------

  Dipole Moment: [D]
     X:    -8.6764      Y:     0.6177      Z:     1.6110     Total:     8.8463

*** Psi4 exiting successfully. Buy a developer a beer!
