                               Psi4 1.3.2 release

  ==> Input File <==

--------------------------------------------------------------------------
#psi4
#
memory 32 gb

molecule  {
-1 1
  O       -1.6024110     1.2883820    -0.5634480
  O        2.0191420    -1.7287390     0.1939930
  O        3.3755036    -0.0489536    -0.5411850
  N       -0.1147610    -0.2476350     0.2334190
  C        1.0958841     0.4713438    -0.1767873
  C        1.3782960     1.6508690     0.7367710
  C       -2.4731170    -0.8032840     0.3122730
  C       -1.3649450     0.1785500    -0.0525630
  C        2.2731730    -0.5407160    -0.1753640
  C       -3.8468580    -0.3344400    -0.1480570
  H        0.9550610     0.8289670    -1.1997950
  H        0.0672430    -1.2232590     0.4643770
  H        1.5293690     1.3045580     1.7644240
  H        2.2851470     2.1591780     0.4026320
  H        0.5420990     2.3541860     0.7225810
  H       -2.2325720    -1.7800520    -0.1237300
  H       -2.4588320    -0.9441430     1.3993390
  H       -4.0995650     0.6270340     0.3028840
  H       -3.8738130    -0.2132220    -1.2332140
  H       -4.6116960    -1.0622230     0.1365660
units angstrom
no_reorient  #important for SAPT in psi4, default
symmetry c1  #important for SAPT in psi4, default
}

set PROPERTIES_ORIGIN ["COM"]
properties('MP2/aug-cc-pvtz', properties = ['dipole'])
--------------------------------------------------------------------------

    Molecular point group: c1
  Charge       = -1
  Multiplicity = 1
  Basis Set: AUG-CC-PVTZ
    Blend: AUG-CC-PVTZ
  Basis Set: (AUG-CC-PVTZ AUX)
    Blend: AUG-CC-PVTZ-JKFIT

    Orbital Energies [Eh]
    ---------------------

    Doubly Occupied:

       1A    -20.390858     2A    -20.323278     3A    -20.314054
       4A    -15.436907     5A    -11.222596     6A    -11.162335
       7A    -11.134776     8A    -11.123918     9A    -11.114531
      10A    -11.075420    11A     -1.240559    12A     -1.190748
      13A     -1.095799    14A     -1.080065    15A     -0.948625
      16A     -0.879467    17A     -0.783134    18A     -0.720418
      19A     -0.638550    20A     -0.587247    21A     -0.540683
      22A     -0.532642    23A     -0.511545    24A     -0.482337
      25A     -0.465632    26A     -0.438365    27A     -0.425640
      28A     -0.419306    29A     -0.413170    30A     -0.405142
      31A     -0.395960    32A     -0.374806    33A     -0.369706
      34A     -0.342612    35A     -0.298708    36A     -0.257438
      37A     -0.237890    38A     -0.222810    39A     -0.216122

  @DF-RHF Final Energy:  -512.33591444618128

   => Energetics <=

    Nuclear Repulsion Energy =            533.3536614480848357
    One-Electron Energy =               -1771.7515521304333106
    Two-Electron Energy =                 726.0619762361673111
    Total Energy =                       -512.3359144461812775
  Basis Set: (AUG-CC-PVTZ AUX)
    Blend: AUG-CC-PVTZ-RI
    Molecular point group: c1

    Geometry (in Angstrom), charge = -1, multiplicity = 1:

       Center              X                  Y                   Z               Mass
    ------------   -----------------  -----------------  -----------------  -----------------
         O           -1.684373404018     1.300592963996    -0.544810288385    15.994914619570
         O            1.937179595982    -1.716528036004     0.212630711615    15.994914619570
         O            3.293541195982    -0.036742636004    -0.522547288385    15.994914619570
         N           -0.196723404018    -0.235424036004     0.252056711615    14.003074004430
         C            1.013921695982     0.483554763996    -0.158149588385    12.000000000000
         C            1.296333595982     1.663079963996     0.755408711615    12.000000000000
         C           -2.555079404018    -0.791073036004     0.330910711615    12.000000000000
         C           -1.446907404018     0.190760963996    -0.033925288385    12.000000000000
         C            2.191210595982    -0.528505036004    -0.156726288385    12.000000000000
         C           -3.928820404018    -0.322229036004    -0.129419288385    12.000000000000
         H            0.873098595982     0.841177963996    -1.181157288385     1.007825032230
         H           -0.014719404018    -1.211048036004     0.483014711615     1.007825032230
         H            1.447406595982     1.316768963996     1.783061711615     1.007825032230
         H            2.203184595982     2.171388963996     0.421269711615     1.007825032230
         H            0.460136595982     2.366396963996     0.741218711615     1.007825032230
         H           -2.314534404018    -1.767841036004    -0.105092288385     1.007825032230
         H           -2.540794404018    -0.931932036004     1.417976711615     1.007825032230
         H           -4.181527404018     0.639244963996     0.321521711615     1.007825032230
         H           -3.955775404018    -0.201011036004    -1.214576288385     1.007825032230
         H           -4.693658404018    -1.050012036004     0.155203711615     1.007825032230

  Basis Set: AUG-CC-PVTZ
    Blend: AUG-CC-PVTZ
  Basis Set: (AUG-CC-PVTZ AUX)
    Blend: AUG-CC-PVTZ-JKFIT
	 Reference Energy          =    -512.3359144461812775 [Eh]
	 Singles Energy            =      -0.0000000000000000 [Eh]
	 Same-Spin Energy          =      -0.5201354824563960 [Eh]
	 Opposite-Spin Energy      =      -1.6213844050066053 [Eh]
	 Correlation Energy        =      -2.1415198874630015 [Eh]
	 Total Energy              =    -514.4774343336442826 [Eh]

	 ================> DF-SCS-MP2 Energies <==================
	-----------------------------------------------------------
	 SCS Same-Spin Scale       =       0.3333333333333333 [-]
	 SCS Opposite-Spin Scale   =       1.2000000000000000 [-]
	 SCS Same-Spin Energy      =      -0.1733784941521320 [Eh]
	 SCS Opposite-Spin Energy  =      -1.9456612860079263 [Eh]
	 SCS Correlation Energy    =      -2.1190397801600582 [Eh]
	 SCS Total Energy          =    -514.4549542263413286 [Eh]
	-----------------------------------------------------------

  Dipole Moment: [D]
     X:    -8.6180      Y:     0.6188      Z:     1.5983     Total:     8.7868

*** Psi4 exiting successfully. Buy a developer a beer!
