                               Psi4 1.4a3.dev225

  ==> Input File <==

--------------------------------------------------------------------------
#psi4
#
memory 32 gb

molecule  {
-1 1
  O       -1.5868420     1.2523650    -0.8113290
  O        2.0299390    -1.6922460     0.2543140
  O        3.4074630     0.0142020    -0.3584910
  N       -0.1383540    -0.2870410     0.0455440
  C        1.0782140     0.4735880    -0.1782270
  C        1.2275190     1.6106150     0.8299030
  C       -2.4816390    -0.8906360    -0.1487800
  C       -1.3205220     0.0984399    -0.3268085
  C        2.2855270    -0.4976230    -0.0923730
  C       -3.7126180    -0.2515540     0.4884160
  H        1.0494870     0.8996880    -1.1894520
  H        0.0515970    -1.2513350     0.3145600
  H        1.2660770     1.2028380     1.8451460
  H        2.1536960     2.1558630     0.6353850
  H        0.3800930     2.2967220     0.7589720
  H       -2.7387560    -1.2794370    -1.1416750
  H       -2.1327770    -1.7398080     0.4477120
  H       -3.4838230     0.1112750     1.4946450
  H       -4.0489630     0.5957980    -0.1116680
  H       -4.5299760    -0.9736440     0.5641870
units angstrom
no_reorient  #important for SAPT in psi4, default
symmetry c1  #important for SAPT in psi4, default
}

set PROPERTIES_ORIGIN ["COM"]
properties('MP2/aug-cc-pvtz', properties = ['dipole'])
--------------------------------------------------------------------------

    Molecular point group: c1
  Charge       = -1
  Multiplicity = 1
  Basis Set: AUG-CC-PVTZ
    Blend: AUG-CC-PVTZ
  Basis Set: (AUG-CC-PVTZ AUX)
    Blend: AUG-CC-PVTZ-JKFIT

    Orbital Energies [Eh]
    ---------------------

    Doubly Occupied:

       1A    -20.376977     2A    -20.327003     3A    -20.317962
       4A    -15.451098     5A    -11.218910     6A    -11.166504
       7A    -11.133804     8A    -11.125334     9A    -11.120295
      10A    -11.080311    11A     -1.223196    12A     -1.193775
      13A     -1.106768    14A     -1.089622    15A     -0.946021
      16A     -0.886868    17A     -0.782713    18A     -0.731368
      19A     -0.651912    20A     -0.590657    21A     -0.544416
      22A     -0.521832    23A     -0.518190    24A     -0.475405
      25A     -0.467751    26A     -0.440997    27A     -0.436087
      28A     -0.420048    29A     -0.408710    30A     -0.405330
      31A     -0.395476    32A     -0.375524    33A     -0.371017
      34A     -0.340333    35A     -0.288517    36A     -0.262390
      37A     -0.241849    38A     -0.227182    39A     -0.219928

  @DF-RHF Final Energy:  -512.33255880324543

   => Energetics <=

    Nuclear Repulsion Energy =            534.5942543709395522
    One-Electron Energy =               -1774.0894676045159031
    Two-Electron Energy =                 727.1626544303309174
    Total Energy =                       -512.3325588032454334
  Basis Set: (AUG-CC-PVTZ AUX)
    Blend: AUG-CC-PVTZ-RI
    Molecular point group: c1

    Geometry (in Angstrom), charge = -1, multiplicity = 1:

       Center              X                  Y                   Z               Mass
    ------------   -----------------  -----------------  -----------------  -----------------
         O           -1.673206978103     1.268194169577    -0.787076260616    15.994914619570
         O            1.943574021897    -1.676416830423     0.278566739384    15.994914619570
         O            3.321098021897     0.030031169577    -0.334238260616    15.994914619570
         N           -0.224718978103    -0.271211830423     0.069796739384    14.003074004430
         C            0.991849021897     0.489417169577    -0.153974260616    12.000000000000
         C            1.141154021897     1.626444169577     0.854155739384    12.000000000000
         C           -2.568003978103    -0.874806830423    -0.124527260616    12.000000000000
         C           -1.406886978103     0.114269069577    -0.302555760616    12.000000000000
         C            2.199162021897    -0.481793830423    -0.068120260616    12.000000000000
         C           -3.798982978103    -0.235724830423     0.512668739384    12.000000000000
         H            0.963122021897     0.915517169577    -1.165199260616     1.007825032230
         H           -0.034767978103    -1.235505830423     0.338812739384     1.007825032230
         H            1.179712021897     1.218667169577     1.869398739384     1.007825032230
         H            2.067331021897     2.171692169577     0.659637739384     1.007825032230
         H            0.293728021897     2.312551169577     0.783224739384     1.007825032230
         H           -2.825120978103    -1.263607830423    -1.117422260616     1.007825032230
         H           -2.219141978103    -1.723978830423     0.471964739384     1.007825032230
         H           -3.570187978103     0.127104169577     1.518897739384     1.007825032230
         H           -4.135327978103     0.611627169577    -0.087415260616     1.007825032230
         H           -4.616340978103    -0.957814830423     0.588439739384     1.007825032230

  Basis Set: AUG-CC-PVTZ
    Blend: AUG-CC-PVTZ
  Basis Set: (AUG-CC-PVTZ AUX)
    Blend: AUG-CC-PVTZ-JKFIT
	 Reference Energy          =    -512.3325588032454334 [Eh]
	 Singles Energy            =      -0.0000000000000000 [Eh]
	 Same-Spin Energy          =      -0.5206392213774207 [Eh]
	 Opposite-Spin Energy      =      -1.6222941825047079 [Eh]
	 Correlation Energy        =      -2.1429334038821288 [Eh]
	 Total Energy              =    -514.4754922071275587 [Eh]

	 ================> DF-SCS-MP2 Energies <==================
	-----------------------------------------------------------
	 SCS Same-Spin Scale       =       0.3333333333333333 [-]
	 SCS Opposite-Spin Scale   =       1.2000000000000000 [-]
	 SCS Same-Spin Energy      =      -0.1735464071258069 [Eh]
	 SCS Opposite-Spin Energy  =      -1.9467530190056495 [Eh]
	 SCS Correlation Energy    =      -2.1202994261314565 [Eh]
	 SCS Total Energy          =    -514.4528582293769432 [Eh]
	-----------------------------------------------------------

  Dipole Moment: [D]
     X:    -8.2216      Y:     0.2224      Z:     1.3715     Total:     8.3382

*** Psi4 exiting successfully. Buy a developer a beer!
