                               Psi4 1.3.2 release

  ==> Input File <==

--------------------------------------------------------------------------
#psi4
#
memory 32 gb

molecule  {
-1 1
  O       -1.5369452     1.4072816    -0.6277631
  O        2.0191420    -1.7287390     0.1939930
  O        3.3591115    -0.0229266    -0.5540718
  N       -0.1147610    -0.2476350     0.2334190
  C        1.0875530     0.4615680    -0.1724770
  C        1.3782960     1.6508690     0.7367710
  C       -2.4731170    -0.8032840     0.3122730
  C       -1.3649450     0.1785500    -0.0525630
  C        2.2731730    -0.5407160    -0.1753640
  C       -3.8468580    -0.3344400    -0.1480570
  H        0.9550610     0.8289670    -1.1997950
  H        0.0672430    -1.2232590     0.4643770
  H        1.5293690     1.3045580     1.7644240
  H        2.2851470     2.1591780     0.4026320
  H        0.5420990     2.3541860     0.7225810
  H       -2.2325720    -1.7800520    -0.1237300
  H       -2.4588320    -0.9441430     1.3993390
  H       -4.0995650     0.6270340     0.3028840
  H       -3.8738130    -0.2132220    -1.2332140
  H       -4.6116960    -1.0622230     0.1365660
units angstrom
no_reorient  #important for SAPT in psi4, default
symmetry c1  #important for SAPT in psi4, default
}

set PROPERTIES_ORIGIN ["COM"]
properties('MP2/aug-cc-pvtz', properties = ['dipole'])
--------------------------------------------------------------------------

    Molecular point group: c1
  Charge       = -1
  Multiplicity = 1
  Basis Set: AUG-CC-PVTZ
    Blend: AUG-CC-PVTZ
  Basis Set: (AUG-CC-PVTZ AUX)
    Blend: AUG-CC-PVTZ-JKFIT

    Orbital Energies [Eh]
    ---------------------

    Doubly Occupied:

       1A    -20.386053     2A    -20.327413     3A    -20.316612
       4A    -15.452891     5A    -11.240773     6A    -11.164911
       7A    -11.147319     8A    -11.128164     9A    -11.114381
      10A    -11.073953    11A     -1.197264    12A     -1.178504
      13A     -1.097556    14A     -1.078070    15A     -0.956553
      16A     -0.879755    17A     -0.789320    18A     -0.722876
      19A     -0.646560    20A     -0.588632    21A     -0.540070
      22A     -0.535256    23A     -0.510451    24A     -0.469230
      25A     -0.460567    26A     -0.434537    27A     -0.429225
      28A     -0.418350    29A     -0.410885    30A     -0.402541
      31A     -0.395192    32A     -0.370963    33A     -0.365240
      34A     -0.330820    35A     -0.293633    36A     -0.256047
      37A     -0.242017    38A     -0.223980    39A     -0.219018

  @DF-RHF Final Energy:  -512.30707166514651

   => Energetics <=

    Nuclear Repulsion Energy =            530.4092164895762380
    One-Electron Energy =               -1765.8414025279346333
    Two-Electron Energy =                 723.1251143732118862
    Total Energy =                       -512.3070716651465091
  Basis Set: (AUG-CC-PVTZ AUX)
    Blend: AUG-CC-PVTZ-RI
    Molecular point group: c1

    Geometry (in Angstrom), charge = -1, multiplicity = 1:

       Center              X                  Y                   Z               Mass
    ------------   -----------------  -----------------  -----------------  -----------------
         O           -1.623662064594     1.404216385359    -0.600913085420    15.994914619570
         O            1.932425135406    -1.731804214641     0.220843014580    15.994914619570
         O            3.272394635406    -0.025991814641    -0.527221785420    15.994914619570
         N           -0.201477864594    -0.250700214641     0.260269014580    14.003074004430
         C            1.000836135406     0.458502785359    -0.145626985420    12.000000000000
         C            1.291579135406     1.647803785359     0.763621014580    12.000000000000
         C           -2.559833864594    -0.806349214641     0.339123014580    12.000000000000
         C           -1.451661864594     0.175484785359    -0.025712985420    12.000000000000
         C            2.186456135406    -0.543781214641    -0.148513985420    12.000000000000
         C           -3.933574864594    -0.337505214641    -0.121206985420    12.000000000000
         H            0.868344135406     0.825901785359    -1.172944985420     1.007825032230
         H           -0.019473864594    -1.226324214641     0.491227014580     1.007825032230
         H            1.442652135406     1.301492785359     1.791274014580     1.007825032230
         H            2.198430135406     2.156112785359     0.429482014580     1.007825032230
         H            0.455382135406     2.351120785359     0.749431014580     1.007825032230
         H           -2.319288864594    -1.783117214641    -0.096879985420     1.007825032230
         H           -2.545548864594    -0.947208214641     1.426189014580     1.007825032230
         H           -4.186281864594     0.623968785359     0.329734014580     1.007825032230
         H           -3.960529864594    -0.216287214641    -1.206363985420     1.007825032230
         H           -4.698412864594    -1.065288214641     0.163416014580     1.007825032230

  Basis Set: AUG-CC-PVTZ
    Blend: AUG-CC-PVTZ
  Basis Set: (AUG-CC-PVTZ AUX)
    Blend: AUG-CC-PVTZ-JKFIT
	 Reference Energy          =    -512.3070716651465091 [Eh]
	 Singles Energy            =      -0.0000000000000000 [Eh]
	 Same-Spin Energy          =      -0.5229368916262143 [Eh]
	 Opposite-Spin Energy      =      -1.6284458026571376 [Eh]
	 Correlation Energy        =      -2.1513826942833516 [Eh]
	 Total Energy              =    -514.4584543594298793 [Eh]

	 ================> DF-SCS-MP2 Energies <==================
	-----------------------------------------------------------
	 SCS Same-Spin Scale       =       0.3333333333333333 [-]
	 SCS Opposite-Spin Scale   =       1.2000000000000000 [-]
	 SCS Same-Spin Energy      =      -0.1743122972087381 [Eh]
	 SCS Opposite-Spin Energy  =      -1.9541349631885649 [Eh]
	 SCS Correlation Energy    =      -2.1284472603973033 [Eh]
	 SCS Total Energy          =    -514.4355189255437608 [Eh]
	-----------------------------------------------------------

  Dipole Moment: [D]
     X:    -8.4628      Y:    -0.0099      Z:     1.8971     Total:     8.6728

*** Psi4 exiting successfully. Buy a developer a beer!
