                               Psi4 1.3.2 release

  ==> Input File <==

--------------------------------------------------------------------------
#psi4
#
memory 32 gb

molecule  {
-1 1
  O       -1.6024110     1.2883820    -0.5634480
  O        2.0191420    -1.7287390     0.1939930
  O        3.3803020    -0.0587520    -0.5397320
  N       -0.1147610    -0.2476350     0.2334190
  C        1.1310550     0.4736743    -0.2006642
  C        1.3782960     1.6508690     0.7367710
  C       -2.4731170    -0.8032840     0.3122730
  C       -1.3649450     0.1785500    -0.0525630
  C        2.2731730    -0.5407160    -0.1753640
  C       -3.8468580    -0.3344400    -0.1480570
  H        0.9550610     0.8289670    -1.1997950
  H        0.0672430    -1.2232590     0.4643770
  H        1.5293690     1.3045580     1.7644240
  H        2.2882727     2.1336694     0.3744841
  H        0.5420990     2.3541860     0.7225810
  H       -2.2325720    -1.7800520    -0.1237300
  H       -2.4588320    -0.9441430     1.3993390
  H       -4.0995650     0.6270340     0.3028840
  H       -3.8738130    -0.2132220    -1.2332140
  H       -4.6116960    -1.0622230     0.1365660
units angstrom
no_reorient  #important for SAPT in psi4, default
symmetry c1  #important for SAPT in psi4, default
}

set PROPERTIES_ORIGIN ["COM"]
properties('MP2/aug-cc-pvtz', properties = ['dipole'])
--------------------------------------------------------------------------

    Molecular point group: c1
  Charge       = -1
  Multiplicity = 1
  Basis Set: AUG-CC-PVTZ
    Blend: AUG-CC-PVTZ
  Basis Set: (AUG-CC-PVTZ AUX)
    Blend: AUG-CC-PVTZ-JKFIT

    Orbital Energies [Eh]
    ---------------------

    Doubly Occupied:

       1A    -20.389137     2A    -20.323408     3A    -20.314054
       4A    -15.434602     5A    -11.220959     6A    -11.161922
       7A    -11.133649     8A    -11.123128     9A    -11.117084
      10A    -11.077398    11A     -1.238416    12A     -1.192173
      13A     -1.094004    14A     -1.074606    15A     -0.947185
      16A     -0.881341    17A     -0.781030    18A     -0.723137
      19A     -0.636971    20A     -0.586104    21A     -0.540172
      22A     -0.531628    23A     -0.511359    24A     -0.480943
      25A     -0.465097    26A     -0.437752    27A     -0.426035
      28A     -0.419241    29A     -0.412629    30A     -0.409981
      31A     -0.395163    32A     -0.373530    33A     -0.365766
      34A     -0.344102    35A     -0.297115    36A     -0.256706
      37A     -0.238924    38A     -0.225727    39A     -0.216376

  @DF-RHF Final Energy:  -512.33351608324188

   => Energetics <=

    Nuclear Repulsion Energy =            533.0448018486241608
    One-Electron Energy =               -1771.1595307445561502
    Two-Electron Energy =                 725.7812128126900006
    Total Energy =                       -512.3335160832418751
  Basis Set: (AUG-CC-PVTZ AUX)
    Blend: AUG-CC-PVTZ-RI
    Molecular point group: c1

    Geometry (in Angstrom), charge = -1, multiplicity = 1:

       Center              X                  Y                   Z               Mass
    ------------   -----------------  -----------------  -----------------  -----------------
         O           -1.687857575991     1.301665158017    -0.542785867569    15.994914619570
         O            1.933695424009    -1.715455841983     0.214655132431    15.994914619570
         O            3.294855424009    -0.045468841983    -0.519069867569    15.994914619570
         N           -0.200207575991    -0.234351841983     0.254081132431    14.003074004430
         C            1.045608424009     0.486957458017    -0.180002067569    12.000000000000
         C            1.292849424009     1.664152158017     0.757433132431    12.000000000000
         C           -2.558563575991    -0.790000841983     0.332935132431    12.000000000000
         C           -1.450391575991     0.191833158017    -0.031900867569    12.000000000000
         C            2.187726424009    -0.527432841983    -0.154701867569    12.000000000000
         C           -3.932304575991    -0.321156841983    -0.127394867569    12.000000000000
         H            0.869614424009     0.842250158017    -1.179132867569     1.007825032230
         H           -0.018203575991    -1.209975841983     0.485039132431     1.007825032230
         H            1.443922424009     1.317841158017     1.785086132431     1.007825032230
         H            2.202826124009     2.146952558017     0.395146232431     1.007825032230
         H            0.456652424009     2.367469158017     0.743243132431     1.007825032230
         H           -2.318018575991    -1.766768841983    -0.103067867569     1.007825032230
         H           -2.544278575991    -0.930859841983     1.420001132431     1.007825032230
         H           -4.185011575991     0.640317158017     0.323546132431     1.007825032230
         H           -3.959259575991    -0.199938841983    -1.212551867569     1.007825032230
         H           -4.697142575991    -1.048939841983     0.157228132431     1.007825032230

  Basis Set: AUG-CC-PVTZ
    Blend: AUG-CC-PVTZ
  Basis Set: (AUG-CC-PVTZ AUX)
    Blend: AUG-CC-PVTZ-JKFIT
	 Reference Energy          =    -512.3335160832418751 [Eh]
	 Singles Energy            =      -0.0000000000000000 [Eh]
	 Same-Spin Energy          =      -0.5200146188496914 [Eh]
	 Opposite-Spin Energy      =      -1.6215770240459417 [Eh]
	 Correlation Energy        =      -2.1415916428956332 [Eh]
	 Total Energy              =    -514.4751077261374803 [Eh]

	 ================> DF-SCS-MP2 Energies <==================
	-----------------------------------------------------------
	 SCS Same-Spin Scale       =       0.3333333333333333 [-]
	 SCS Opposite-Spin Scale   =       1.2000000000000000 [-]
	 SCS Same-Spin Energy      =      -0.1733382062832304 [Eh]
	 SCS Opposite-Spin Energy  =      -1.9458924288551300 [Eh]
	 SCS Correlation Energy    =      -2.1192306351383605 [Eh]
	 SCS Total Energy          =    -514.4527467183802401 [Eh]
	-----------------------------------------------------------

  Dipole Moment: [D]
     X:    -8.5290      Y:     0.6722      Z:     1.5584     Total:     8.6963

*** Psi4 exiting successfully. Buy a developer a beer!
