                               Psi4 1.3.2 release

  ==> Input File <==

--------------------------------------------------------------------------
#psi4
#
memory 32 gb

molecule  {
-1 1
  O       -1.6024110     1.2883820    -0.5634480
  O        2.0191420    -1.7287390     0.1939930
  O        3.3803020    -0.0587520    -0.5397320
  N       -0.1147610    -0.2476350     0.2334190
  C        1.0875530     0.4615680    -0.1724770
  C        1.3782960     1.6508690     0.7367710
  C       -2.4731170    -0.8032840     0.3122730
  C       -1.3649450     0.1785500    -0.0525630
  C        2.2731730    -0.5407160    -0.1753640
  C       -3.8468580    -0.3344400    -0.1480570
  H        0.9309508     0.8958244    -1.3867410
  H        0.0672430    -1.2232590     0.4643770
  H        1.5293690     1.3045580     1.7644240
  H        2.2851470     2.1591780     0.4026320
  H        0.5420990     2.3541860     0.7225810
  H       -2.2325720    -1.7800520    -0.1237300
  H       -2.4588320    -0.9441430     1.3993390
  H       -4.0995650     0.6270340     0.3028840
  H       -3.8738130    -0.2132220    -1.2332140
  H       -4.6116960    -1.0622230     0.1365660
units angstrom
no_reorient  #important for SAPT in psi4, default
symmetry c1  #important for SAPT in psi4, default
}

set PROPERTIES_ORIGIN ["COM"]
properties('MP2/aug-cc-pvtz', properties = ['dipole'])
--------------------------------------------------------------------------

    Molecular point group: c1
  Charge       = -1
  Multiplicity = 1
  Basis Set: AUG-CC-PVTZ
    Blend: AUG-CC-PVTZ
  Basis Set: (AUG-CC-PVTZ AUX)
    Blend: AUG-CC-PVTZ-JKFIT

    Orbital Energies [Eh]
    ---------------------

    Doubly Occupied:

       1A    -20.392614     2A    -20.323495     3A    -20.313626
       4A    -15.440781     5A    -11.224334     6A    -11.163671
       7A    -11.137163     8A    -11.136055     9A    -11.124748
      10A    -11.078088    11A     -1.242113    12A     -1.191136
      13A     -1.097473    14A     -1.081846    15A     -0.949463
      16A     -0.875452    17A     -0.784935    18A     -0.717526
      19A     -0.634181    20A     -0.588640    21A     -0.543415
      22A     -0.531875    23A     -0.498287    24A     -0.483372
      25A     -0.463744    26A     -0.436835    27A     -0.426499
      28A     -0.420198    29A     -0.414016    30A     -0.404731
      31A     -0.397168    32A     -0.376703    33A     -0.365835
      34A     -0.328561    35A     -0.299230    36A     -0.254891
      37A     -0.236712    38A     -0.223964    39A     -0.215607

  @DF-RHF Final Energy:  -512.31540363364729

   => Energetics <=

    Nuclear Repulsion Energy =            532.4328720641232167
    One-Electron Energy =               -1769.8585860741388842
    Two-Electron Energy =                 725.1103103763684885
    Total Energy =                       -512.3154036336472927
  Basis Set: (AUG-CC-PVTZ AUX)
    Blend: AUG-CC-PVTZ-RI
    Molecular point group: c1

    Geometry (in Angstrom), charge = -1, multiplicity = 1:

       Center              X                  Y                   Z               Mass
    ------------   -----------------  -----------------  -----------------  -----------------
         O           -1.684043541023     1.302027400381    -0.544022839619    15.994914619570
         O            1.937509458977    -1.715093599619     0.213418160381    15.994914619570
         O            3.298669458977    -0.045106599619    -0.520306839619    15.994914619570
         N           -0.196393541023    -0.233989599619     0.252844160381    14.003074004430
         C            1.005920458977     0.475213400381    -0.153051839619    12.000000000000
         C            1.296663458977     1.664514400381     0.756196160381    12.000000000000
         C           -2.554749541023    -0.789638599619     0.331698160381    12.000000000000
         C           -1.446577541023     0.192195400381    -0.033137839619    12.000000000000
         C            2.191540458977    -0.527070599619    -0.155938839619    12.000000000000
         C           -3.928490541023    -0.320794599619    -0.128631839619    12.000000000000
         H            0.849318258977     0.909469800381    -1.367315839619     1.007825032230
         H           -0.014389541023    -1.209613599619     0.483802160381     1.007825032230
         H            1.447736458977     1.318203400381     1.783849160381     1.007825032230
         H            2.203514458977     2.172823400381     0.422057160381     1.007825032230
         H            0.460466458977     2.367831400381     0.742006160381     1.007825032230
         H           -2.314204541023    -1.766406599619    -0.104304839619     1.007825032230
         H           -2.540464541023    -0.930497599619     1.418764160381     1.007825032230
         H           -4.181197541023     0.640679400381     0.322309160381     1.007825032230
         H           -3.955445541023    -0.199576599619    -1.213788839619     1.007825032230
         H           -4.693328541023    -1.048577599619     0.155991160381     1.007825032230

  Basis Set: AUG-CC-PVTZ
    Blend: AUG-CC-PVTZ
  Basis Set: (AUG-CC-PVTZ AUX)
    Blend: AUG-CC-PVTZ-JKFIT
	 Reference Energy          =    -512.3154036336472927 [Eh]
	 Singles Energy            =      -0.0000000000000000 [Eh]
	 Same-Spin Energy          =      -0.5206384386880345 [Eh]
	 Opposite-Spin Energy      =      -1.6233402696906731 [Eh]
	 Correlation Energy        =      -2.1439787083787074 [Eh]
	 Total Energy              =    -514.4593823420259469 [Eh]

	 ================> DF-SCS-MP2 Energies <==================
	-----------------------------------------------------------
	 SCS Same-Spin Scale       =       0.3333333333333333 [-]
	 SCS Opposite-Spin Scale   =       1.2000000000000000 [-]
	 SCS Same-Spin Energy      =      -0.1735461462293448 [Eh]
	 SCS Opposite-Spin Energy  =      -1.9480083236288077 [Eh]
	 SCS Correlation Energy    =      -2.1215544698581525 [Eh]
	 SCS Total Energy          =    -514.4369581035053898 [Eh]
	-----------------------------------------------------------

  Dipole Moment: [D]
     X:    -8.7231      Y:     0.5922      Z:     1.7404     Total:     8.9147

*** Psi4 exiting successfully. Buy a developer a beer!
