                               Psi4 1.3.2 release

  ==> Input File <==

--------------------------------------------------------------------------
#psi4
#
memory 32 gb

molecule  {
-1 1
  O       -1.6024110     1.2883820    -0.5634480
  O        2.0191420    -1.7287390     0.1939930
  O        3.3803020    -0.0587520    -0.5397320
  N       -0.1147610    -0.2476350     0.2334190
  C        1.0875530     0.4615680    -0.1724770
  C        1.3782960     1.6508690     0.7367710
  C       -2.4731170    -0.8032840     0.3122730
  C       -1.3739596     0.1865264    -0.0582359
  C        2.2731730    -0.5407160    -0.1753640
  C       -3.8413429    -0.3234796    -0.1531605
  H        0.9550610     0.8289670    -1.1997950
  H        0.0672430    -1.2232590     0.4643770
  H        1.5293690     1.3045580     1.7644240
  H        2.2851470     2.1591780     0.4026320
  H        0.5420990     2.3541860     0.7225810
  H       -2.2325720    -1.7800520    -0.1237300
  H       -2.4588320    -0.9441430     1.3993390
  H       -4.0995650     0.6270340     0.3028840
  H       -3.8738130    -0.2132220    -1.2332140
  H       -4.6116960    -1.0622230     0.1365660
units angstrom
no_reorient  #important for SAPT in psi4, default
symmetry c1  #important for SAPT in psi4, default
}

set PROPERTIES_ORIGIN ["COM"]
properties('MP2/aug-cc-pvtz', properties = ['dipole'])
--------------------------------------------------------------------------

    Molecular point group: c1
  Charge       = -1
  Multiplicity = 1
  Basis Set: AUG-CC-PVTZ
    Blend: AUG-CC-PVTZ
  Basis Set: (AUG-CC-PVTZ AUX)
    Blend: AUG-CC-PVTZ-JKFIT

    Orbital Energies [Eh]
    ---------------------

    Doubly Occupied:

       1A    -20.394841     2A    -20.321347     3A    -20.312925
       4A    -15.435313     5A    -11.223854     6A    -11.160980
       7A    -11.135435     8A    -11.124757     9A    -11.113368
      10A    -11.074872    11A     -1.248788    12A     -1.189755
      13A     -1.094694    14A     -1.078751    15A     -0.949836
      16A     -0.876492    17A     -0.783530    18A     -0.719202
      19A     -0.637821    20A     -0.588447    21A     -0.541512
      22A     -0.534041    23A     -0.511929    24A     -0.484601
      25A     -0.464912    26A     -0.437744    27A     -0.424445
      28A     -0.420119    29A     -0.415156    30A     -0.403281
      31A     -0.397436    32A     -0.377034    33A     -0.369368
      34A     -0.341699    35A     -0.301100    36A     -0.255872
      37A     -0.235944    38A     -0.222047    39A     -0.214640

  @DF-RHF Final Energy:  -512.33599933282153

   => Energetics <=

    Nuclear Repulsion Energy =            533.4765161348411766
    One-Electron Energy =               -1771.9892518806464068
    Two-Electron Energy =                 726.1767364129837006
    Total Energy =                       -512.3359993328215296
  Basis Set: (AUG-CC-PVTZ AUX)
    Blend: AUG-CC-PVTZ-RI
    Molecular point group: c1

    Geometry (in Angstrom), charge = -1, multiplicity = 1:

       Center              X                  Y                   Z               Mass
    ------------   -----------------  -----------------  -----------------  -----------------
         O           -1.683920714481     1.300917763388    -0.544433012946    15.994914619570
         O            1.937632285519    -1.716203236612     0.213007987054    15.994914619570
         O            3.298792285519    -0.046216236612    -0.520717012946    15.994914619570
         N           -0.196270714481    -0.235099236612     0.252433987054    14.003074004430
         C            1.006043285519     0.474103763388    -0.153462012946    12.000000000000
         C            1.296786285519     1.663404763388     0.755785987054    12.000000000000
         C           -2.554626714481    -0.790748236612     0.331287987054    12.000000000000
         C           -1.455469314481     0.199062163388    -0.039220912946    12.000000000000
         C            2.191663285519    -0.528180236612    -0.156349012946    12.000000000000
         C           -3.922852614481    -0.310943836612    -0.134145512946    12.000000000000
         H            0.873551285519     0.841502763388    -1.180780012946     1.007825032230
         H           -0.014266714481    -1.210723236612     0.483391987054     1.007825032230
         H            1.447859285519     1.317093763388     1.783438987054     1.007825032230
         H            2.203637285519     2.171713763388     0.421646987054     1.007825032230
         H            0.460589285519     2.366721763388     0.741595987054     1.007825032230
         H           -2.314081714481    -1.767516236612    -0.104715012946     1.007825032230
         H           -2.540341714481    -0.931607236612     1.418353987054     1.007825032230
         H           -4.181074714481     0.639569763388     0.321898987054     1.007825032230
         H           -3.955322714481    -0.200686236612    -1.214199012946     1.007825032230
         H           -4.693205714481    -1.049687236612     0.155580987054     1.007825032230

  Basis Set: AUG-CC-PVTZ
    Blend: AUG-CC-PVTZ
  Basis Set: (AUG-CC-PVTZ AUX)
    Blend: AUG-CC-PVTZ-JKFIT
	 Reference Energy          =    -512.3359993328215296 [Eh]
	 Singles Energy            =      -0.0000000000000000 [Eh]
	 Same-Spin Energy          =      -0.5200049739773960 [Eh]
	 Opposite-Spin Energy      =      -1.6210384634066519 [Eh]
	 Correlation Energy        =      -2.1410434373840479 [Eh]
	 Total Energy              =    -514.4770427702055713 [Eh]

	 ================> DF-SCS-MP2 Energies <==================
	-----------------------------------------------------------
	 SCS Same-Spin Scale       =       0.3333333333333333 [-]
	 SCS Opposite-Spin Scale   =       1.2000000000000000 [-]
	 SCS Same-Spin Energy      =      -0.1733349913257987 [Eh]
	 SCS Opposite-Spin Energy  =      -1.9452461560879821 [Eh]
	 SCS Correlation Energy    =      -2.1185811474137806 [Eh]
	 SCS Total Energy          =    -514.4545804802353359 [Eh]
	-----------------------------------------------------------

  Dipole Moment: [D]
     X:    -8.7881      Y:     0.6920      Z:     1.5575     Total:     8.9518

*** Psi4 exiting successfully. Buy a developer a beer!
