                               Psi4 1.4a3.dev225

  ==> Input File <==

--------------------------------------------------------------------------
#psi4
#
memory 32 gb

molecule  {
-1 1
  O       -1.5868420     1.2523650    -0.8113290
  O        2.0299390    -1.6922460     0.2543140
  O        3.4074630     0.0142020    -0.3584910
  N       -0.1383540    -0.2870410     0.0455440
  C        1.0782140     0.4735880    -0.1782270
  C        1.2275190     1.6106150     0.8299030
  C       -2.4816390    -0.8906360    -0.1487800
  C       -1.3641120     0.1217370    -0.3343690
  C        2.2855270    -0.4976230    -0.0923730
  C       -3.7126180    -0.2515540     0.4884160
  H        1.0494870     0.8996880    -1.1894520
  H        0.0609177    -1.2986518     0.3277603
  H        1.2660770     1.2028380     1.8451460
  H        2.1536960     2.1558630     0.6353850
  H        0.3800930     2.2967220     0.7589720
  H       -2.7387560    -1.2794370    -1.1416750
  H       -2.1327770    -1.7398080     0.4477120
  H       -3.4838230     0.1112750     1.4946450
  H       -4.0489630     0.5957980    -0.1116680
  H       -4.5299760    -0.9736440     0.5641870
units angstrom
no_reorient  #important for SAPT in psi4, default
symmetry c1  #important for SAPT in psi4, default
}

set PROPERTIES_ORIGIN ["COM"]
properties('MP2/aug-cc-pvtz', properties = ['dipole'])
--------------------------------------------------------------------------

    Molecular point group: c1
  Charge       = -1
  Multiplicity = 1
  Basis Set: AUG-CC-PVTZ
    Blend: AUG-CC-PVTZ
  Basis Set: (AUG-CC-PVTZ AUX)
    Blend: AUG-CC-PVTZ-JKFIT

    Orbital Energies [Eh]
    ---------------------

    Doubly Occupied:

       1A    -20.386385     2A    -20.324494     3A    -20.315408
       4A    -15.445070     5A    -11.221366     6A    -11.163522
       7A    -11.133835     8A    -11.126776     9A    -11.115495
      10A    -11.077275    11A     -1.237323    12A     -1.192108
      13A     -1.096253    14A     -1.079912    15A     -0.949738
      16A     -0.878493    17A     -0.782905    18A     -0.724659
      19A     -0.633241    20A     -0.586357    21A     -0.546393
      22A     -0.522597    23A     -0.512860    24A     -0.482673
      25A     -0.463193    26A     -0.441208    27A     -0.434160
      28A     -0.418881    29A     -0.411074    30A     -0.405983
      31A     -0.395130    32A     -0.374522    33A     -0.368353
      34A     -0.341217    35A     -0.295887    36A     -0.257217
      37A     -0.238841    38A     -0.224163    39A     -0.216913

  @DF-RHF Final Energy:  -512.33280280257077

   => Energetics <=

    Nuclear Repulsion Energy =            534.0581037092230190
    One-Electron Energy =               -1773.1380480857671955
    Two-Electron Energy =                 726.7471415739732947
    Total Energy =                       -512.3328028025707681
  Basis Set: (AUG-CC-PVTZ AUX)
    Blend: AUG-CC-PVTZ-RI
    Molecular point group: c1

    Geometry (in Angstrom), charge = -1, multiplicity = 1:

       Center              X                  Y                   Z               Mass
    ------------   -----------------  -----------------  -----------------  -----------------
         O           -1.669641347614     1.266584643146    -0.786538851577    15.994914619570
         O            1.947139652386    -1.678026356854     0.279104148423    15.994914619570
         O            3.324663652386     0.028421643146    -0.333700851577    15.994914619570
         N           -0.221153347614    -0.272821356854     0.070334148423    14.003074004430
         C            0.995414652386     0.487807643146    -0.153436851577    12.000000000000
         C            1.144719652386     1.624834643146     0.854693148423    12.000000000000
         C           -2.564438347614    -0.876416356854    -0.123989851577    12.000000000000
         C           -1.446911347614     0.135956643146    -0.309578851577    12.000000000000
         C            2.202727652386    -0.483403356854    -0.067582851577    12.000000000000
         C           -3.795417347614    -0.237334356854     0.513206148423    12.000000000000
         H            0.966687652386     0.913907643146    -1.164661851577     1.007825032230
         H           -0.021881647614    -1.284432156854     0.352550448423     1.007825032230
         H            1.183277652386     1.217057643146     1.869936148423     1.007825032230
         H            2.070896652386     2.170082643146     0.660175148423     1.007825032230
         H            0.297293652386     2.310941643146     0.783762148423     1.007825032230
         H           -2.821555347614    -1.265217356854    -1.116884851577     1.007825032230
         H           -2.215576347614    -1.725588356854     0.472502148423     1.007825032230
         H           -3.566622347614     0.125494643146     1.519435148423     1.007825032230
         H           -4.131762347614     0.610017643146    -0.086877851577     1.007825032230
         H           -4.612775347614    -0.959424356854     0.588977148423     1.007825032230

  Basis Set: AUG-CC-PVTZ
    Blend: AUG-CC-PVTZ
  Basis Set: (AUG-CC-PVTZ AUX)
    Blend: AUG-CC-PVTZ-JKFIT
	 Reference Energy          =    -512.3328028025707681 [Eh]
	 Singles Energy            =      -0.0000000000000000 [Eh]
	 Same-Spin Energy          =      -0.5210367480251055 [Eh]
	 Opposite-Spin Energy      =      -1.6229041657593302 [Eh]
	 Correlation Energy        =      -2.1439409137844354 [Eh]
	 Total Energy              =    -514.4767437163552586 [Eh]

	 ================> DF-SCS-MP2 Energies <==================
	-----------------------------------------------------------
	 SCS Same-Spin Scale       =       0.3333333333333333 [-]
	 SCS Opposite-Spin Scale   =       1.2000000000000000 [-]
	 SCS Same-Spin Energy      =      -0.1736789160083685 [Eh]
	 SCS Opposite-Spin Energy  =      -1.9474849989111962 [Eh]
	 SCS Correlation Energy    =      -2.1211639149195647 [Eh]
	 SCS Total Energy          =    -514.4539667174902888 [Eh]
	-----------------------------------------------------------

  Dipole Moment: [D]
     X:    -8.5521      Y:     0.3200      Z:     1.2420     Total:     8.6478

*** Psi4 exiting successfully. Buy a developer a beer!
