                               Psi4 1.3.2 release

  ==> Input File <==

--------------------------------------------------------------------------
#psi4
#
memory 32 gb

molecule  {
-1 1
  O       -1.6024110     1.2883820    -0.5634480
  O        2.0191420    -1.7287390     0.1939930
  O        3.3803020    -0.0587520    -0.5397320
  N       -0.1147610    -0.2476350     0.2334190
  C        1.0875530     0.4615680    -0.1724770
  C        1.3814677     1.6173691     0.7780167
  C       -2.4731170    -0.8032840     0.3122730
  C       -1.3649450     0.1785500    -0.0525630
  C        2.2731730    -0.5407160    -0.1753640
  C       -3.8468580    -0.3344400    -0.1480570
  H        0.9489840     0.7928505    -1.2112113
  H        0.0672430    -1.2232590     0.4643770
  H        1.5293690     1.3045580     1.7644240
  H        2.2851470     2.1591780     0.4026320
  H        0.5420990     2.3541860     0.7225810
  H       -2.2325720    -1.7800520    -0.1237300
  H       -2.4588320    -0.9441430     1.3993390
  H       -4.0995650     0.6270340     0.3028840
  H       -3.8738130    -0.2132220    -1.2332140
  H       -4.6116960    -1.0622230     0.1365660
units angstrom
no_reorient  #important for SAPT in psi4, default
symmetry c1  #important for SAPT in psi4, default
}

set PROPERTIES_ORIGIN ["COM"]
properties('MP2/aug-cc-pvtz', properties = ['dipole'])
--------------------------------------------------------------------------

    Molecular point group: c1
  Charge       = -1
  Multiplicity = 1
  Basis Set: AUG-CC-PVTZ
    Blend: AUG-CC-PVTZ
  Basis Set: (AUG-CC-PVTZ AUX)
    Blend: AUG-CC-PVTZ-JKFIT

    Orbital Energies [Eh]
    ---------------------

    Doubly Occupied:

       1A    -20.391255     2A    -20.321956     3A    -20.313589
       4A    -15.436865     5A    -11.223072     6A    -11.161277
       7A    -11.135088     8A    -11.124138     9A    -11.114968
      10A    -11.076217    11A     -1.241147    12A     -1.190420
      13A     -1.096410    14A     -1.080961    15A     -0.949090
      16A     -0.878232    17A     -0.783758    18A     -0.721845
      19A     -0.639530    20A     -0.588204    21A     -0.541723
      22A     -0.532835    23A     -0.512011    24A     -0.482040
      25A     -0.464658    26A     -0.440997    27A     -0.426115
      28A     -0.418654    29A     -0.413133    30A     -0.409411
      31A     -0.391545    32A     -0.370149    33A     -0.369907
      34A     -0.344935    35A     -0.298722    36A     -0.257379
      37A     -0.236149    38A     -0.222163    39A     -0.215359

  @DF-RHF Final Energy:  -512.33235078343876

   => Energetics <=

    Nuclear Repulsion Energy =            533.5775955814089002
    One-Electron Energy =               -1772.1880761907050328
    Two-Electron Energy =                 726.2781298258574907
    Total Energy =                       -512.3323507834387556
  Basis Set: (AUG-CC-PVTZ AUX)
    Blend: AUG-CC-PVTZ-RI
    Molecular point group: c1

    Geometry (in Angstrom), charge = -1, multiplicity = 1:

       Center              X                  Y                   Z               Mass
    ------------   -----------------  -----------------  -----------------  -----------------
         O           -1.684433880754     1.305538140144    -0.548686336264    15.994914619570
         O            1.937119119246    -1.711582859856     0.208754663736    15.994914619570
         O            3.298279119246    -0.041595859856    -0.524970336264    15.994914619570
         N           -0.196783880754    -0.230478859856     0.248180663736    14.003074004430
         C            1.005530119246     0.478724140144    -0.157715336264    12.000000000000
         C            1.299444819246     1.634525240144     0.792778363736    12.000000000000
         C           -2.555139880754    -0.786127859856     0.327034663736    12.000000000000
         C           -1.446967880754     0.195706140144    -0.037801336264    12.000000000000
         C            2.191150119246    -0.523559859856    -0.160602336264    12.000000000000
         C           -3.928880880754    -0.317283859856    -0.133295336264    12.000000000000
         H            0.866961119246     0.810006640144    -1.196449636264     1.007825032230
         H           -0.014779880754    -1.206102859856     0.479138663736     1.007825032230
         H            1.447346119246     1.321714140144     1.779185663736     1.007825032230
         H            2.203124119246     2.176334140144     0.417393663736     1.007825032230
         H            0.460076119246     2.371342140144     0.737342663736     1.007825032230
         H           -2.314594880754    -1.762895859856    -0.108968336264     1.007825032230
         H           -2.540854880754    -0.926986859856     1.414100663736     1.007825032230
         H           -4.181587880754     0.644190140144     0.317645663736     1.007825032230
         H           -3.955835880754    -0.196065859856    -1.218452336264     1.007825032230
         H           -4.693718880754    -1.045066859856     0.151327663736     1.007825032230

  Basis Set: AUG-CC-PVTZ
    Blend: AUG-CC-PVTZ
  Basis Set: (AUG-CC-PVTZ AUX)
    Blend: AUG-CC-PVTZ-JKFIT
	 Reference Energy          =    -512.3323507834387556 [Eh]
	 Singles Energy            =      -0.0000000000000000 [Eh]
	 Same-Spin Energy          =      -0.5202925177936959 [Eh]
	 Opposite-Spin Energy      =      -1.6216035198140184 [Eh]
	 Correlation Energy        =      -2.1418960376077143 [Eh]
	 Total Energy              =    -514.4742468210464494 [Eh]

	 ================> DF-SCS-MP2 Energies <==================
	-----------------------------------------------------------
	 SCS Same-Spin Scale       =       0.3333333333333333 [-]
	 SCS Opposite-Spin Scale   =       1.2000000000000000 [-]
	 SCS Same-Spin Energy      =      -0.1734308392645653 [Eh]
	 SCS Opposite-Spin Energy  =      -1.9459242237768219 [Eh]
	 SCS Correlation Energy    =      -2.1193550630413873 [Eh]
	 SCS Total Energy          =    -514.4517058464801949 [Eh]
	-----------------------------------------------------------

  Dipole Moment: [D]
     X:    -8.6532      Y:     0.5924      Z:     1.6377     Total:     8.8267

*** Psi4 exiting successfully. Buy a developer a beer!
