                               Psi4 1.3.2 release

  ==> Input File <==

--------------------------------------------------------------------------
#psi4
#
memory 32 gb

molecule  {
-1 1
  O       -1.6024110     1.2883820    -0.5634480
  O        2.0191420    -1.7287390     0.1939930
  O        3.3803020    -0.0587520    -0.5397320
  N       -0.1147610    -0.2476350     0.2334190
  C        1.0875530     0.4615680    -0.1724770
  C        1.3782960     1.6508690     0.7367710
  C       -2.4731170    -0.8032840     0.3122730
  C       -1.1910621     0.0805487    -0.0398943
  C        2.2731730    -0.5407160    -0.1753640
  C       -3.8468580    -0.3344400    -0.1480570
  H        0.9550610     0.8289670    -1.1997950
  H        0.0672430    -1.2232590     0.4643770
  H        1.5293690     1.3045580     1.7644240
  H        2.2851470     2.1591780     0.4026320
  H        0.5420990     2.3541860     0.7225810
  H       -2.2325720    -1.7800520    -0.1237300
  H       -2.4588320    -0.9441430     1.3993390
  H       -4.0995650     0.6270340     0.3028840
  H       -3.8738130    -0.2132220    -1.2332140
  H       -4.6116960    -1.0622230     0.1365660
units angstrom
no_reorient  #important for SAPT in psi4, default
symmetry c1  #important for SAPT in psi4, default
}

set PROPERTIES_ORIGIN ["COM"]
properties('MP2/aug-cc-pvtz', properties = ['dipole'])
--------------------------------------------------------------------------

    Molecular point group: c1
  Charge       = -1
  Multiplicity = 1
  Basis Set: AUG-CC-PVTZ
    Blend: AUG-CC-PVTZ
  Basis Set: (AUG-CC-PVTZ AUX)
    Blend: AUG-CC-PVTZ-JKFIT

    Orbital Energies [Eh]
    ---------------------

    Doubly Occupied:

       1A    -20.350627     2A    -20.336706     3A    -20.326011
       4A    -15.468691     5A    -11.205338     6A    -11.175836
       7A    -11.133559     8A    -11.133535     9A    -11.116555
      10A    -11.086925    11A     -1.240590    12A     -1.199336
      13A     -1.103845    14A     -1.090950    15A     -0.935304
      16A     -0.905249    17A     -0.783218    18A     -0.742675
      19A     -0.677506    20A     -0.602279    21A     -0.541489
      22A     -0.527729    23A     -0.515246    24A     -0.482895
      25A     -0.466170    26A     -0.442534    27A     -0.428692
      28A     -0.422436    29A     -0.414738    30A     -0.403251
      31A     -0.391872    32A     -0.378612    33A     -0.350375
      34A     -0.342246    35A     -0.260022    36A     -0.258627
      37A     -0.250421    38A     -0.236055    39A     -0.228936

  @DF-RHF Final Energy:  -512.26918492424466

   => Energetics <=

    Nuclear Repulsion Energy =            534.8244096505877678
    One-Electron Energy =               -1774.2730302799377569
    Two-Electron Energy =                 727.1794357051053339
    Total Energy =                       -512.2691849242446551
  Basis Set: (AUG-CC-PVTZ AUX)
    Blend: AUG-CC-PVTZ-RI
    Molecular point group: c1

    Geometry (in Angstrom), charge = -1, multiplicity = 1:

       Center              X                  Y                   Z               Mass
    ------------   -----------------  -----------------  -----------------  -----------------
         O           -1.698695802237     1.310658136105    -0.546385875293    15.994914619570
         O            1.922857197763    -1.706462863895     0.211055124707    15.994914619570
         O            3.284017197763    -0.036475863895    -0.522669875293    15.994914619570
         N           -0.211045802237    -0.225358863895     0.250481124707    14.003074004430
         C            0.991268197763     0.483844136105    -0.155414875293    12.000000000000
         C            1.282011197763     1.673145136105     0.753833124707    12.000000000000
         C           -2.569401802237    -0.781007863895     0.329335124707    12.000000000000
         C           -1.287346902237     0.102824836105    -0.022832175293    12.000000000000
         C            2.176888197763    -0.518439863895    -0.158301875293    12.000000000000
         C           -3.943142802237    -0.312163863895    -0.130994875293    12.000000000000
         H            0.858776197763     0.851243136105    -1.182732875293     1.007825032230
         H           -0.029041802237    -1.200982863895     0.481439124707     1.007825032230
         H            1.433084197763     1.326834136105     1.781486124707     1.007825032230
         H            2.188862197763     2.181454136105     0.419694124707     1.007825032230
         H            0.445814197763     2.376462136105     0.739643124707     1.007825032230
         H           -2.328856802237    -1.757775863895    -0.106667875293     1.007825032230
         H           -2.555116802237    -0.921866863895     1.416401124707     1.007825032230
         H           -4.195849802237     0.649310136105     0.319946124707     1.007825032230
         H           -3.970097802237    -0.190945863895    -1.216151875293     1.007825032230
         H           -4.707980802237    -1.039946863895     0.153628124707     1.007825032230

  Basis Set: AUG-CC-PVTZ
    Blend: AUG-CC-PVTZ
  Basis Set: (AUG-CC-PVTZ AUX)
    Blend: AUG-CC-PVTZ-JKFIT
	 Reference Energy          =    -512.2691849242446551 [Eh]
	 Singles Energy            =      -0.0000000000000000 [Eh]
	 Same-Spin Energy          =      -0.5213906594609132 [Eh]
	 Opposite-Spin Energy      =      -1.6241355045303130 [Eh]
	 Correlation Energy        =      -2.1455261639912262 [Eh]
	 Total Energy              =    -514.4147110882358902 [Eh]

	 ================> DF-SCS-MP2 Energies <==================
	-----------------------------------------------------------
	 SCS Same-Spin Scale       =       0.3333333333333333 [-]
	 SCS Opposite-Spin Scale   =       1.2000000000000000 [-]
	 SCS Same-Spin Energy      =      -0.1737968864869711 [Eh]
	 SCS Opposite-Spin Energy  =      -1.9489626054363756 [Eh]
	 SCS Correlation Energy    =      -2.1227594919233468 [Eh]
	 SCS Total Energy          =    -514.3919444161680303 [Eh]
	-----------------------------------------------------------

  Dipole Moment: [D]
     X:    -6.9644      Y:    -0.0355      Z:     2.0457     Total:     7.2587

*** Psi4 exiting successfully. Buy a developer a beer!
