                               Psi4 1.3.2 release

  ==> Input File <==

--------------------------------------------------------------------------
#psi4
#
memory 32 gb

molecule  {
-1 1
  O       -1.6024110     1.2883820    -0.5634480
  O        2.0191420    -1.7287390     0.1939930
  O        3.3850161    -0.0685871    -0.5382513
  N       -0.1147610    -0.2476350     0.2334190
  C        1.0793122     0.4517159    -0.1681669
  C        1.3782960     1.6508690     0.7367710
  C       -2.4731170    -0.8032840     0.3122730
  C       -1.3649450     0.1785500    -0.0525630
  C        2.2731730    -0.5407160    -0.1753640
  C       -3.8468580    -0.3344400    -0.1480570
  H        0.9550610     0.8289670    -1.1997950
  H        0.0672430    -1.2232590     0.4643770
  H        1.5293690     1.3045580     1.7644240
  H        2.2851470     2.1591780     0.4026320
  H        0.5420990     2.3541860     0.7225810
  H       -2.2325720    -1.7800520    -0.1237300
  H       -2.4588320    -0.9441430     1.3993390
  H       -4.0995650     0.6270340     0.3028840
  H       -3.8738130    -0.2132220    -1.2332140
  H       -4.6116960    -1.0622230     0.1365660
units angstrom
no_reorient  #important for SAPT in psi4, default
symmetry c1  #important for SAPT in psi4, default
}

set PROPERTIES_ORIGIN ["COM"]
properties('MP2/aug-cc-pvtz', properties = ['dipole'])
--------------------------------------------------------------------------

    Molecular point group: c1
  Charge       = -1
  Multiplicity = 1
  Basis Set: AUG-CC-PVTZ
    Blend: AUG-CC-PVTZ
  Basis Set: (AUG-CC-PVTZ AUX)
    Blend: AUG-CC-PVTZ-JKFIT

    Orbital Energies [Eh]
    ---------------------

    Doubly Occupied:

       1A    -20.392655     2A    -20.321269     3A    -20.313438
       4A    -15.438855     5A    -11.224514     6A    -11.161527
       7A    -11.135972     8A    -11.124775     9A    -11.114927
      10A    -11.075743    11A     -1.242649    12A     -1.190391
      13A     -1.098017    14A     -1.081734    15A     -0.949986
      16A     -0.877411    17A     -0.784812    18A     -0.721537
      19A     -0.640384    20A     -0.589861    21A     -0.543659
      22A     -0.533432    23A     -0.511217    24A     -0.483493
      25A     -0.465624    26A     -0.438267    27A     -0.426095
      28A     -0.419456    29A     -0.413804    30A     -0.402535
      31A     -0.397571    32A     -0.376855    33A     -0.369910
      34A     -0.340358    35A     -0.300466    36A     -0.256640
      37A     -0.235877    38A     -0.223202    39A     -0.214997

  @DF-RHF Final Energy:  -512.33572996322971

   => Energetics <=

    Nuclear Repulsion Energy =            533.4880968878197791
    One-Electron Energy =               -1771.9798279102278684
    Two-Electron Energy =                 726.1560010591784931
    Total Energy =                       -512.3357299632297099
  Basis Set: (AUG-CC-PVTZ AUX)
    Blend: AUG-CC-PVTZ-RI
    Molecular point group: c1

    Geometry (in Angstrom), charge = -1, multiplicity = 1:

       Center              X                  Y                   Z               Mass
    ------------   -----------------  -----------------  -----------------  -----------------
         O           -1.684049169622     1.304407678752    -0.545854039234    15.994914619570
         O            1.937503830378    -1.712713321248     0.211586960766    15.994914619570
         O            3.303377930378    -0.052561421248    -0.520657339234    15.994914619570
         N           -0.196399169622    -0.231609321248     0.251012960766    14.003074004430
         C            0.997674030378     0.467741578752    -0.150572939234    12.000000000000
         C            1.296657830378     1.666894678752     0.754364960766    12.000000000000
         C           -2.554755169622    -0.787258321248     0.329866960766    12.000000000000
         C           -1.446583169622     0.194575678752    -0.034969039234    12.000000000000
         C            2.191534830378    -0.524690321248    -0.157770039234    12.000000000000
         C           -3.928496169622    -0.318414321248    -0.130463039234    12.000000000000
         H            0.873422830378     0.844992678752    -1.182201039234     1.007825032230
         H           -0.014395169622    -1.207233321248     0.481970960766     1.007825032230
         H            1.447730830378     1.320583678752     1.782017960766     1.007825032230
         H            2.203508830378     2.175203678752     0.420225960766     1.007825032230
         H            0.460460830378     2.370211678752     0.740174960766     1.007825032230
         H           -2.314210169622    -1.764026321248    -0.106136039234     1.007825032230
         H           -2.540470169622    -0.928117321248     1.416932960766     1.007825032230
         H           -4.181203169622     0.643059678752     0.320477960766     1.007825032230
         H           -3.955451169622    -0.197196321248    -1.215620039234     1.007825032230
         H           -4.693334169622    -1.046197321248     0.154159960766     1.007825032230

  Basis Set: AUG-CC-PVTZ
    Blend: AUG-CC-PVTZ
  Basis Set: (AUG-CC-PVTZ AUX)
    Blend: AUG-CC-PVTZ-JKFIT
	 Reference Energy          =    -512.3357299632297099 [Eh]
	 Singles Energy            =      -0.0000000000000000 [Eh]
	 Same-Spin Energy          =      -0.5202034743183195 [Eh]
	 Opposite-Spin Energy      =      -1.6213197032432867 [Eh]
	 Correlation Energy        =      -2.1415231775616062 [Eh]
	 Total Energy              =    -514.4772531407912766 [Eh]

	 ================> DF-SCS-MP2 Energies <==================
	-----------------------------------------------------------
	 SCS Same-Spin Scale       =       0.3333333333333333 [-]
	 SCS Opposite-Spin Scale   =       1.2000000000000000 [-]
	 SCS Same-Spin Energy      =      -0.1734011581061065 [Eh]
	 SCS Opposite-Spin Energy  =      -1.9455836438919438 [Eh]
	 SCS Correlation Energy    =      -2.1189848019980504 [Eh]
	 SCS Total Energy          =    -514.4547147652277772 [Eh]
	-----------------------------------------------------------

  Dipole Moment: [D]
     X:    -8.7492      Y:     0.6315      Z:     1.6024     Total:     8.9171

*** Psi4 exiting successfully. Buy a developer a beer!
