                               Psi4 1.3.2 release

  ==> Input File <==

--------------------------------------------------------------------------
#psi4
#
memory 32 gb

molecule  {
-1 1
  O       -1.6024110     1.2883820    -0.5634480
  O        2.0191420    -1.7287390     0.1939930
  O        3.3803020    -0.0587520    -0.5397320
  N       -0.1147610    -0.2476350     0.2334190
  C        1.0875530     0.4615680    -0.1724770
  C        1.3782960     1.6508690     0.7367710
  C       -2.4731170    -0.8032840     0.3122730
  C       -1.3649450     0.1785500    -0.0525630
  C        2.2731730    -0.5407160    -0.1753640
  C       -3.8404481    -0.2902947    -0.1191553
  H        0.9550610     0.8289670    -1.1997950
  H        0.0672430    -1.2232590     0.4643770
  H        1.5293690     1.3045580     1.7644240
  H        2.2851470     2.1591780     0.4026320
  H        0.5420990     2.3541860     0.7225810
  H       -2.1989975    -1.7792231    -0.1053843
  H       -2.4588320    -0.9441430     1.3993390
  H       -4.0995650     0.6270340     0.3028840
  H       -3.8738130    -0.2132220    -1.2332140
  H       -4.6116960    -1.0622230     0.1365660
units angstrom
no_reorient  #important for SAPT in psi4, default
symmetry c1  #important for SAPT in psi4, default
}

set PROPERTIES_ORIGIN ["COM"]
properties('MP2/aug-cc-pvtz', properties = ['dipole'])
--------------------------------------------------------------------------

    Molecular point group: c1
  Charge       = -1
  Multiplicity = 1
  Basis Set: AUG-CC-PVTZ
    Blend: AUG-CC-PVTZ
  Basis Set: (AUG-CC-PVTZ AUX)
    Blend: AUG-CC-PVTZ-JKFIT

    Orbital Energies [Eh]
    ---------------------

    Doubly Occupied:

       1A    -20.391566     2A    -20.322284     3A    -20.313710
       4A    -15.437636     5A    -11.222841     6A    -11.161882
       7A    -11.135708     8A    -11.125586     9A    -11.114574
      10A    -11.075525    11A     -1.241541    12A     -1.190538
      13A     -1.096546    14A     -1.081116    15A     -0.949505
      16A     -0.878344    17A     -0.784856    18A     -0.721209
      19A     -0.639462    20A     -0.588268    21A     -0.542006
      22A     -0.533466    23A     -0.512997    24A     -0.480310
      25A     -0.465482    26A     -0.441156    27A     -0.429577
      28A     -0.419731    29A     -0.410113    30A     -0.403991
      31A     -0.394748    32A     -0.375633    33A     -0.369400
      34A     -0.341391    35A     -0.299202    36A     -0.257077
      37A     -0.236879    38A     -0.222958    39A     -0.215553

  @DF-RHF Final Energy:  -512.33241474039028

   => Energetics <=

    Nuclear Repulsion Energy =            533.6378392065585103
    One-Electron Energy =               -1772.2917779378165051
    Two-Electron Energy =                 726.3215239908677177
    Total Energy =                       -512.3324147403902771
  Basis Set: (AUG-CC-PVTZ AUX)
    Blend: AUG-CC-PVTZ-RI
    Molecular point group: c1

    Geometry (in Angstrom), charge = -1, multiplicity = 1:

       Center              X                  Y                   Z               Mass
    ------------   -----------------  -----------------  -----------------  -----------------
         O           -1.684980992057     1.298812219800    -0.547866343653    15.994914619570
         O            1.936572007943    -1.718308780200     0.209574656347    15.994914619570
         O            3.297732007943    -0.048321780200    -0.524150343653    15.994914619570
         N           -0.197330992057    -0.237204780200     0.249000656347    14.003074004430
         C            1.004983007943     0.471998219800    -0.156895343653    12.000000000000
         C            1.295726007943     1.661299219800     0.752352656347    12.000000000000
         C           -2.555686992057    -0.792853780200     0.327854656347    12.000000000000
         C           -1.447514992057     0.188980219800    -0.036981343653    12.000000000000
         C            2.190603007943    -0.530285780200    -0.159782343653    12.000000000000
         C           -3.923018092057    -0.279864480200    -0.103573643653    12.000000000000
         H            0.872491007943     0.839397219800    -1.184213343653     1.007825032230
         H           -0.015326992057    -1.212828780200     0.479958656347     1.007825032230
         H            1.446799007943     1.314988219800     1.780005656347     1.007825032230
         H            2.202577007943     2.169608219800     0.418213656347     1.007825032230
         H            0.459529007943     2.364616219800     0.738162656347     1.007825032230
         H           -2.281567492057    -1.768792880200    -0.089802643653     1.007825032230
         H           -2.541401992057    -0.933712780200     1.414920656347     1.007825032230
         H           -4.182134992057     0.637464219800     0.318465656347     1.007825032230
         H           -3.956382992057    -0.202791780200    -1.217632343653     1.007825032230
         H           -4.694265992057    -1.051792780200     0.152147656347     1.007825032230

  Basis Set: AUG-CC-PVTZ
    Blend: AUG-CC-PVTZ
  Basis Set: (AUG-CC-PVTZ AUX)
    Blend: AUG-CC-PVTZ-JKFIT
	 Reference Energy          =    -512.3324147403902771 [Eh]
	 Singles Energy            =      -0.0000000000000000 [Eh]
	 Same-Spin Energy          =      -0.5202265513553460 [Eh]
	 Opposite-Spin Energy      =      -1.6214650679321072 [Eh]
	 Correlation Energy        =      -2.1416916192874531 [Eh]
	 Total Energy              =    -514.4741063596777622 [Eh]

	 ================> DF-SCS-MP2 Energies <==================
	-----------------------------------------------------------
	 SCS Same-Spin Scale       =       0.3333333333333333 [-]
	 SCS Opposite-Spin Scale   =       1.2000000000000000 [-]
	 SCS Same-Spin Energy      =      -0.1734088504517820 [Eh]
	 SCS Opposite-Spin Energy  =      -1.9457580815185285 [Eh]
	 SCS Correlation Energy    =      -2.1191669319703106 [Eh]
	 SCS Total Energy          =    -514.4515816723605894 [Eh]
	-----------------------------------------------------------

  Dipole Moment: [D]
     X:    -8.6761      Y:     0.6611      Z:     1.6255     Total:     8.8518

*** Psi4 exiting successfully. Buy a developer a beer!
