                               Psi4 1.3.2 release

  ==> Input File <==

--------------------------------------------------------------------------
#psi4
#
memory 32 gb

molecule  {
-1 1
  O       -1.6024110     1.2883820    -0.5634480
  O        2.0191420    -1.7287390     0.1939930
  O        3.3803020    -0.0587520    -0.5397320
  N       -0.1147610    -0.2476350     0.2334190
  C        1.0875530     0.4615680    -0.1724770
  C        1.3782960     1.6508690     0.7367710
  C       -2.4731170    -0.8032840     0.3122730
  C       -1.3297372     0.1459028    -0.0295977
  C        2.2731730    -0.5407160    -0.1753640
  C       -3.8678681    -0.3786302    -0.1272963
  H        0.9550610     0.8289670    -1.1997950
  H        0.0672430    -1.2232590     0.4643770
  H        1.5293690     1.3045580     1.7644240
  H        2.2851470     2.1591780     0.4026320
  H        0.5420990     2.3541860     0.7225810
  H       -2.2325720    -1.7800520    -0.1237300
  H       -2.4588320    -0.9441430     1.3993390
  H       -4.0995650     0.6270340     0.3028840
  H       -3.8738130    -0.2132220    -1.2332140
  H       -4.6116960    -1.0622230     0.1365660
units angstrom
no_reorient  #important for SAPT in psi4, default
symmetry c1  #important for SAPT in psi4, default
}

set PROPERTIES_ORIGIN ["COM"]
properties('MP2/aug-cc-pvtz', properties = ['dipole'])
--------------------------------------------------------------------------

    Molecular point group: c1
  Charge       = -1
  Multiplicity = 1
  Basis Set: AUG-CC-PVTZ
    Blend: AUG-CC-PVTZ
  Basis Set: (AUG-CC-PVTZ AUX)
    Blend: AUG-CC-PVTZ-JKFIT

    Orbital Energies [Eh]
    ---------------------

    Doubly Occupied:

       1A    -20.379465     2A    -20.325975     3A    -20.317004
       4A    -15.448025     5A    -11.222038     6A    -11.165676
       7A    -11.135753     8A    -11.123438     9A    -11.120069
      10A    -11.078445    11A     -1.219392    12A     -1.192647
      13A     -1.103672    14A     -1.088052    15A     -0.947809
      16A     -0.886338    17A     -0.786422    18A     -0.728395
      19A     -0.647015    20A     -0.589797    21A     -0.544397
      22A     -0.530987    23A     -0.511526    24A     -0.478523
      25A     -0.467311    26A     -0.447407    27A     -0.428189
      28A     -0.415966    29A     -0.407843    30A     -0.401592
      31A     -0.393216    32A     -0.374407    33A     -0.369486
      34A     -0.339180    35A     -0.291369    36A     -0.260274
      37A     -0.240575    38A     -0.226843    39A     -0.219207

  @DF-RHF Final Energy:  -512.32660040371627

   => Energetics <=

    Nuclear Repulsion Energy =            533.2395087416504111
    One-Electron Energy =               -1771.4247681632252807
    Two-Electron Energy =                 725.8586590178584856
    Total Energy =                       -512.3266004037162702
  Basis Set: (AUG-CC-PVTZ AUX)
    Blend: AUG-CC-PVTZ-RI
    Molecular point group: c1

    Geometry (in Angstrom), charge = -1, multiplicity = 1:

       Center              X                  Y                   Z               Mass
    ------------   -----------------  -----------------  -----------------  -----------------
         O           -1.685394804825     1.308895286579    -0.548972796729    15.994914619570
         O            1.936158195175    -1.708225713421     0.208468203271    15.994914619570
         O            3.297318195175    -0.038238713421    -0.525256796729    15.994914619570
         N           -0.197744804825    -0.227121713421     0.247894203271    14.003074004430
         C            1.004569195175     0.482081286579    -0.158001796729    12.000000000000
         C            1.295312195175     1.671382286579     0.751246203271    12.000000000000
         C           -2.556100804825    -0.782770713421     0.326748203271    12.000000000000
         C           -1.412721004825     0.166416086579    -0.015122496729    12.000000000000
         C            2.190189195175    -0.520202713421    -0.160888796729    12.000000000000
         C           -3.950851904825    -0.358116913421    -0.112821096729    12.000000000000
         H            0.872077195175     0.849480286579    -1.185319796729     1.007825032230
         H           -0.015740804825    -1.202745713421     0.478852203271     1.007825032230
         H            1.446385195175     1.325071286579     1.778899203271     1.007825032230
         H            2.202163195175     2.179691286579     0.417107203271     1.007825032230
         H            0.459115195175     2.374699286579     0.737056203271     1.007825032230
         H           -2.315555804825    -1.759538713421    -0.109254796729     1.007825032230
         H           -2.541815804825    -0.923629713421     1.413814203271     1.007825032230
         H           -4.182548804825     0.647547286579     0.317359203271     1.007825032230
         H           -3.956796804825    -0.192708713421    -1.218738796729     1.007825032230
         H           -4.694679804825    -1.041709713421     0.151041203271     1.007825032230

  Basis Set: AUG-CC-PVTZ
    Blend: AUG-CC-PVTZ
  Basis Set: (AUG-CC-PVTZ AUX)
    Blend: AUG-CC-PVTZ-JKFIT
	 Reference Energy          =    -512.3266004037162702 [Eh]
	 Singles Energy            =      -0.0000000000000000 [Eh]
	 Same-Spin Energy          =      -0.5208517445546559 [Eh]
	 Opposite-Spin Energy      =      -1.6227609424066527 [Eh]
	 Correlation Energy        =      -2.1436126869613084 [Eh]
	 Total Energy              =    -514.4702130906775892 [Eh]

	 ================> DF-SCS-MP2 Energies <==================
	-----------------------------------------------------------
	 SCS Same-Spin Scale       =       0.3333333333333333 [-]
	 SCS Opposite-Spin Scale   =       1.2000000000000000 [-]
	 SCS Same-Spin Energy      =      -0.1736172481848853 [Eh]
	 SCS Opposite-Spin Energy  =      -1.9473131308879832 [Eh]
	 SCS Correlation Energy    =      -2.1209303790728686 [Eh]
	 SCS Total Energy          =    -514.4475307827891584 [Eh]
	-----------------------------------------------------------

  Dipole Moment: [D]
     X:    -8.2721      Y:     0.3594      Z:     1.7702     Total:     8.4670

*** Psi4 exiting successfully. Buy a developer a beer!
