                               Psi4 1.4a3.dev225

  ==> Input File <==

--------------------------------------------------------------------------
#psi4
#
memory 32 gb

molecule  {
-1 1
  O       -1.5868420     1.2523650    -0.8113290
  O        2.0299390    -1.6922460     0.2543140
  O        3.4074630     0.0142020    -0.3584910
  N       -0.1383540    -0.2870410     0.0455440
  C        1.0782140     0.4735880    -0.1782270
  C        1.2275190     1.6106150     0.8299030
  C       -2.4816390    -0.8906360    -0.1487800
  C       -1.3641120     0.1217370    -0.3343690
  C        2.2677405    -0.5057372    -0.0881541
  C       -3.7126180    -0.2515540     0.4884160
  H        1.0494870     0.8996880    -1.1894520
  H        0.0515970    -1.2513350     0.3145600
  H        1.2660770     1.2028380     1.8451460
  H        2.1536960     2.1558630     0.6353850
  H        0.3800930     2.2967220     0.7589720
  H       -2.7387560    -1.2794370    -1.1416750
  H       -2.1327770    -1.7398080     0.4477120
  H       -3.4838230     0.1112750     1.4946450
  H       -4.0489630     0.5957980    -0.1116680
  H       -4.5299760    -0.9736440     0.5641870
units angstrom
no_reorient  #important for SAPT in psi4, default
symmetry c1  #important for SAPT in psi4, default
}

set PROPERTIES_ORIGIN ["COM"]
properties('MP2/aug-cc-pvtz', properties = ['dipole'])
--------------------------------------------------------------------------

    Molecular point group: c1
  Charge       = -1
  Multiplicity = 1
  Basis Set: AUG-CC-PVTZ
    Blend: AUG-CC-PVTZ
  Basis Set: (AUG-CC-PVTZ AUX)
    Blend: AUG-CC-PVTZ-JKFIT

    Orbital Energies [Eh]
    ---------------------

    Doubly Occupied:

       1A    -20.388140     2A    -20.327258     3A    -20.310215
       4A    -15.443181     5A    -11.223189     6A    -11.163063
       7A    -11.135127     8A    -11.127795     9A    -11.116508
      10A    -11.077803    11A     -1.239371    12A     -1.191843
      13A     -1.094547    14A     -1.082127    15A     -0.951101
      16A     -0.880373    17A     -0.784720    18A     -0.726932
      19A     -0.644234    20A     -0.590153    21A     -0.547262
      22A     -0.523677    23A     -0.515162    24A     -0.483954
      25A     -0.464642    26A     -0.443099    27A     -0.435180
      28A     -0.416996    29A     -0.412036    30A     -0.406227
      31A     -0.396005    32A     -0.376253    33A     -0.369404
      34A     -0.340973    35A     -0.297266    36A     -0.259121
      37A     -0.238735    38A     -0.222798    39A     -0.214284

  @DF-RHF Final Energy:  -512.33504899575144

   => Energetics <=

    Nuclear Repulsion Energy =            534.4333450253258206
    One-Electron Energy =               -1773.8152756763611251
    Two-Electron Energy =                 727.0468816552839826
    Total Energy =                       -512.3350489957514355
  Basis Set: (AUG-CC-PVTZ AUX)
    Blend: AUG-CC-PVTZ-RI
    Molecular point group: c1

    Geometry (in Angstrom), charge = -1, multiplicity = 1:

       Center              X                  Y                   Z               Mass
    ------------   -----------------  -----------------  -----------------  -----------------
         O           -1.668094615357     1.266929508146    -0.786797921653    15.994914619570
         O            1.948686384643    -1.677681491854     0.278845078347    15.994914619570
         O            3.326210384643     0.028766508146    -0.333959921653    15.994914619570
         N           -0.219606615357    -0.272476491854     0.070075078347    14.003074004430
         C            0.996961384643     0.488152508146    -0.153695921653    12.000000000000
         C            1.146266384643     1.625179508146     0.854434078347    12.000000000000
         C           -2.562891615357    -0.876071491854    -0.124248921653    12.000000000000
         C           -1.445364615357     0.136301508146    -0.309837921653    12.000000000000
         C            2.186487884643    -0.491172691854    -0.063623021653    12.000000000000
         C           -3.793870615357    -0.236989491854     0.512947078347    12.000000000000
         H            0.968234384643     0.914252508146    -1.164920921653     1.007825032230
         H           -0.029655615357    -1.236770491854     0.339091078347     1.007825032230
         H            1.184824384643     1.217402508146     1.869677078347     1.007825032230
         H            2.072443384643     2.170427508146     0.659916078347     1.007825032230
         H            0.298840384643     2.311286508146     0.783503078347     1.007825032230
         H           -2.820008615357    -1.264872491854    -1.117143921653     1.007825032230
         H           -2.214029615357    -1.725243491854     0.472243078347     1.007825032230
         H           -3.565075615357     0.125839508146     1.519176078347     1.007825032230
         H           -4.130215615357     0.610362508146    -0.087136921653     1.007825032230
         H           -4.611228615357    -0.959079491854     0.588718078347     1.007825032230

  Basis Set: AUG-CC-PVTZ
    Blend: AUG-CC-PVTZ
  Basis Set: (AUG-CC-PVTZ AUX)
    Blend: AUG-CC-PVTZ-JKFIT
	 Reference Energy          =    -512.3350489957514355 [Eh]
	 Singles Energy            =      -0.0000000000000000 [Eh]
	 Same-Spin Energy          =      -0.5205886442203094 [Eh]
	 Opposite-Spin Energy      =      -1.6221414319874854 [Eh]
	 Correlation Energy        =      -2.1427300762077950 [Eh]
	 Total Energy              =    -514.4777790719592758 [Eh]

	 ================> DF-SCS-MP2 Energies <==================
	-----------------------------------------------------------
	 SCS Same-Spin Scale       =       0.3333333333333333 [-]
	 SCS Opposite-Spin Scale   =       1.2000000000000000 [-]
	 SCS Same-Spin Energy      =      -0.1735295480734365 [Eh]
	 SCS Opposite-Spin Energy  =      -1.9465697183849824 [Eh]
	 SCS Correlation Energy    =      -2.1200992664584186 [Eh]
	 SCS Total Energy          =    -514.4551482622098320 [Eh]
	-----------------------------------------------------------

  Dipole Moment: [D]
     X:    -8.8180      Y:     0.2855      Z:     1.2748     Total:     8.9142

*** Psi4 exiting successfully. Buy a developer a beer!
