                               Psi4 1.3.2 release

  ==> Input File <==

--------------------------------------------------------------------------
#psi4
#
memory 32 gb

molecule  {
-1 1
  O       -1.6024110     1.2883820    -0.5634480
  O        1.9450458    -1.8662400     0.0631117
  O        3.3803020    -0.0587520    -0.5397320
  N       -0.1074252    -0.1916409     0.2760433
  C        1.0875530     0.4615680    -0.1724770
  C        1.3782960     1.6508690     0.7367710
  C       -2.4731170    -0.8032840     0.3122730
  C       -1.3649450     0.1785500    -0.0525630
  C        2.2731730    -0.5407160    -0.1753640
  C       -3.8468580    -0.3344400    -0.1480570
  H        0.9550610     0.8289670    -1.1997950
  H        0.0672430    -1.2232590     0.4643770
  H        1.5293690     1.3045580     1.7644240
  H        2.2851470     2.1591780     0.4026320
  H        0.5420990     2.3541860     0.7225810
  H       -2.2325720    -1.7800520    -0.1237300
  H       -2.4588320    -0.9441430     1.3993390
  H       -4.0995650     0.6270340     0.3028840
  H       -3.8738130    -0.2132220    -1.2332140
  H       -4.6116960    -1.0622230     0.1365660
units angstrom
no_reorient  #important for SAPT in psi4, default
symmetry c1  #important for SAPT in psi4, default
}

set PROPERTIES_ORIGIN ["COM"]
properties('MP2/aug-cc-pvtz', properties = ['dipole'])
--------------------------------------------------------------------------

    Molecular point group: c1
  Charge       = -1
  Multiplicity = 1
  Basis Set: AUG-CC-PVTZ
    Blend: AUG-CC-PVTZ
  Basis Set: (AUG-CC-PVTZ AUX)
    Blend: AUG-CC-PVTZ-JKFIT

    Orbital Energies [Eh]
    ---------------------

    Doubly Occupied:

       1A    -20.391668     2A    -20.338054     3A    -20.322253
       4A    -15.438887     5A    -11.223640     6A    -11.182705
       7A    -11.136558     8A    -11.124861     9A    -11.121702
      10A    -11.077936    11A     -1.242792    12A     -1.176444
      13A     -1.094475    14A     -1.053789    15A     -0.950543
      16A     -0.881929    17A     -0.784387    18A     -0.725515
      19A     -0.630013    20A     -0.591610    21A     -0.548919
      22A     -0.534184    23A     -0.514149    24A     -0.480787
      25A     -0.464436    26A     -0.436924    27A     -0.426644
      28A     -0.417595    29A     -0.411774    30A     -0.396931
      31A     -0.396188    32A     -0.373044    33A     -0.367777
      34A     -0.335585    35A     -0.300653    36A     -0.257605
      37A     -0.234397    38A     -0.228889    39A     -0.215897

  @DF-RHF Final Energy:  -512.30926809951256

   => Energetics <=

    Nuclear Repulsion Energy =            530.4086058784301940
    One-Electron Energy =               -1765.7714673294415206
    Two-Electron Energy =                 723.0535933514986482
    Total Energy =                       -512.3092680995125647
  Basis Set: (AUG-CC-PVTZ AUX)
    Blend: AUG-CC-PVTZ-RI
    Molecular point group: c1

    Geometry (in Angstrom), charge = -1, multiplicity = 1:

       Center              X                  Y                   Z               Mass
    ------------   -----------------  -----------------  -----------------  -----------------
         O           -1.676698717966     1.312318566157    -0.534942595052    15.994914619570
         O            1.870758082034    -1.842303433843     0.091617104948    15.994914619570
         O            3.306014282034    -0.034815433843    -0.511226595052    15.994914619570
         N           -0.181712917966    -0.167704333843     0.304548704948    14.003074004430
         C            1.013265282034     0.485504566157    -0.143971595052    12.000000000000
         C            1.304008282034     1.674805566157     0.765276404948    12.000000000000
         C           -2.547404717966    -0.779347433843     0.340778404948    12.000000000000
         C           -1.439232717966     0.202486566157    -0.024057595052    12.000000000000
         C            2.198885282034    -0.516779433843    -0.146858595052    12.000000000000
         C           -3.921145717966    -0.310503433843    -0.119551595052    12.000000000000
         H            0.880773282034     0.852903566157    -1.171289595052     1.007825032230
         H           -0.007044717966    -1.199322433843     0.492882404948     1.007825032230
         H            1.455081282034     1.328494566157     1.792929404948     1.007825032230
         H            2.210859282034     2.183114566157     0.431137404948     1.007825032230
         H            0.467811282034     2.378122566157     0.751086404948     1.007825032230
         H           -2.306859717966    -1.756115433843    -0.095224595052     1.007825032230
         H           -2.533119717966    -0.920206433843     1.427844404948     1.007825032230
         H           -4.173852717966     0.650970566157     0.331389404948     1.007825032230
         H           -3.948100717966    -0.189285433843    -1.204708595052     1.007825032230
         H           -4.685983717966    -1.038286433843     0.165071404948     1.007825032230

  Basis Set: AUG-CC-PVTZ
    Blend: AUG-CC-PVTZ
  Basis Set: (AUG-CC-PVTZ AUX)
    Blend: AUG-CC-PVTZ-JKFIT
	 Reference Energy          =    -512.3092680995125647 [Eh]
	 Singles Energy            =      -0.0000000000000000 [Eh]
	 Same-Spin Energy          =      -0.5228781312308000 [Eh]
	 Opposite-Spin Energy      =      -1.6284686889858415 [Eh]
	 Correlation Energy        =      -2.1513468202166415 [Eh]
	 Total Energy              =    -514.4606149197292098 [Eh]

	 ================> DF-SCS-MP2 Energies <==================
	-----------------------------------------------------------
	 SCS Same-Spin Scale       =       0.3333333333333333 [-]
	 SCS Opposite-Spin Scale   =       1.2000000000000000 [-]
	 SCS Same-Spin Energy      =      -0.1742927104102666 [Eh]
	 SCS Opposite-Spin Energy  =      -1.9541624267830098 [Eh]
	 SCS Correlation Energy    =      -2.1284551371932765 [Eh]
	 SCS Total Energy          =    -514.4377232367058923 [Eh]
	-----------------------------------------------------------

  Dipole Moment: [D]
     X:    -8.3251      Y:     1.3188      Z:     1.6082     Total:     8.5810

*** Psi4 exiting successfully. Buy a developer a beer!
