                               Psi4 1.3.2 release

  ==> Input File <==

--------------------------------------------------------------------------
#psi4
#
memory 32 gb

molecule  {
-1 1
  O       -1.6631550     1.1672539    -0.4986601
  O        2.0191420    -1.7287390     0.1939930
  O        3.4001436    -0.0951646    -0.5249483
  N       -0.1147610    -0.2476350     0.2334190
  C        1.0875530     0.4615680    -0.1724770
  C        1.3782960     1.6508690     0.7367710
  C       -2.4731170    -0.8032840     0.3122730
  C       -1.3649450     0.1785500    -0.0525630
  C        2.2731730    -0.5407160    -0.1753640
  C       -3.8468580    -0.3344400    -0.1480570
  H        0.9550610     0.8289670    -1.1997950
  H        0.0672430    -1.2232590     0.4643770
  H        1.5293690     1.3045580     1.7644240
  H        2.2851470     2.1591780     0.4026320
  H        0.5420990     2.3541860     0.7225810
  H       -2.2325720    -1.7800520    -0.1237300
  H       -2.4588320    -0.9441430     1.3993390
  H       -4.0995650     0.6270340     0.3028840
  H       -3.8738130    -0.2132220    -1.2332140
  H       -4.6116960    -1.0622230     0.1365660
units angstrom
no_reorient  #important for SAPT in psi4, default
symmetry c1  #important for SAPT in psi4, default
}

set PROPERTIES_ORIGIN ["COM"]
properties('MP2/aug-cc-pvtz', properties = ['dipole'])
--------------------------------------------------------------------------

    Molecular point group: c1
  Charge       = -1
  Multiplicity = 1
  Basis Set: AUG-CC-PVTZ
    Blend: AUG-CC-PVTZ
  Basis Set: (AUG-CC-PVTZ AUX)
    Blend: AUG-CC-PVTZ-JKFIT

    Orbital Energies [Eh]
    ---------------------

    Doubly Occupied:

       1A    -20.395519     2A    -20.317195     3A    -20.310866
       4A    -15.423669     5A    -11.202555     6A    -11.159005
       7A    -11.120863     8A    -11.120234     9A    -11.115035
      10A    -11.077316    11A     -1.323427    12A     -1.188559
      13A     -1.094167    14A     -1.077142    15A     -0.941719
      16A     -0.877455    17A     -0.778304    18A     -0.719926
      19A     -0.634468    20A     -0.592860    21A     -0.549253
      22A     -0.536679    23A     -0.525300    24A     -0.493658
      25A     -0.468124    26A     -0.448587    27A     -0.429897
      28A     -0.419568    29A     -0.413618    30A     -0.402740
      31A     -0.395334    32A     -0.386246    33A     -0.370617
      34A     -0.344926    35A     -0.294870    36A     -0.256228
      37A     -0.232005    38A     -0.221777    39A     -0.211573

  @DF-RHF Final Energy:  -512.32510287841490

   => Energetics <=

    Nuclear Repulsion Energy =            536.9070514683113515
    One-Electron Energy =               -1778.7217354654314931
    Two-Electron Energy =                 729.4895811187051322
    Total Energy =                       -512.3251028784148957
  Basis Set: (AUG-CC-PVTZ AUX)
    Blend: AUG-CC-PVTZ-RI
    Molecular point group: c1

    Geometry (in Angstrom), charge = -1, multiplicity = 1:

       Center              X                  Y                   Z               Mass
    ------------   -----------------  -----------------  -----------------  -----------------
         O           -1.740415022632     1.198857940049    -0.489377159956    15.994914619570
         O            1.941881977368    -1.697134959951     0.203275940044    15.994914619570
         O            3.322883577368    -0.063560559951    -0.515665359956    15.994914619570
         N           -0.192021022632    -0.216030959951     0.242701940044    14.003074004430
         C            1.010292977368     0.493172040049    -0.163194059956    12.000000000000
         C            1.301035977368     1.682473040049     0.746053940044    12.000000000000
         C           -2.550377022632    -0.771679959951     0.321555940044    12.000000000000
         C           -1.442205022632     0.210154040049    -0.043280059956    12.000000000000
         C            2.195912977368    -0.509111959951    -0.166081059956    12.000000000000
         C           -3.924118022632    -0.302835959951    -0.138774059956    12.000000000000
         H            0.877800977368     0.860571040049    -1.190512059956     1.007825032230
         H           -0.010017022632    -1.191654959951     0.473659940044     1.007825032230
         H            1.452108977368     1.336162040049     1.773706940044     1.007825032230
         H            2.207886977368     2.190782040049     0.411914940044     1.007825032230
         H            0.464838977368     2.385790040049     0.731863940044     1.007825032230
         H           -2.309832022632    -1.748447959951    -0.114447059956     1.007825032230
         H           -2.536092022632    -0.912538959951     1.408621940044     1.007825032230
         H           -4.176825022632     0.658638040049     0.312166940044     1.007825032230
         H           -3.951073022632    -0.181617959951    -1.223931059956     1.007825032230
         H           -4.688956022632    -1.030618959951     0.145848940044     1.007825032230

  Basis Set: AUG-CC-PVTZ
    Blend: AUG-CC-PVTZ
  Basis Set: (AUG-CC-PVTZ AUX)
    Blend: AUG-CC-PVTZ-JKFIT
	 Reference Energy          =    -512.3251028784148957 [Eh]
	 Singles Energy            =      -0.0000000000000000 [Eh]
	 Same-Spin Energy          =      -0.5174891470952427 [Eh]
	 Opposite-Spin Energy      =      -1.6146055320445825 [Eh]
	 Correlation Energy        =      -2.1320946791398252 [Eh]
	 Total Energy              =    -514.4571975575547640 [Eh]

	 ================> DF-SCS-MP2 Energies <==================
	-----------------------------------------------------------
	 SCS Same-Spin Scale       =       0.3333333333333333 [-]
	 SCS Opposite-Spin Scale   =       1.2000000000000000 [-]
	 SCS Same-Spin Energy      =      -0.1724963823650809 [Eh]
	 SCS Opposite-Spin Energy  =      -1.9375266384534988 [Eh]
	 SCS Correlation Energy    =      -2.1100230208185797 [Eh]
	 SCS Total Energy          =    -514.4351258992335261 [Eh]
	-----------------------------------------------------------

  Dipole Moment: [D]
     X:    -8.9009      Y:     1.3092      Z:     1.2867     Total:     9.0882

*** Psi4 exiting successfully. Buy a developer a beer!
