                               Psi4 1.3.2 release

  ==> Input File <==

--------------------------------------------------------------------------
#psi4
#
memory 32 gb

molecule  {
-1 1
  O       -1.6024110     1.2883820    -0.5634480
  O        2.0191420    -1.7287390     0.1939930
  O        3.3803020    -0.0587520    -0.5397320
  N       -0.1147610    -0.2476350     0.2334190
  C        1.0875530     0.4615680    -0.1724770
  C        1.3782960     1.6508690     0.7367710
  C       -2.4731170    -0.8032840     0.3122730
  C       -1.3649450     0.1785500    -0.0525630
  C        2.2731730    -0.5407160    -0.1753640
  C       -3.8468580    -0.3344400    -0.1480570
  H        0.9791712     0.7621096    -1.0128490
  H        0.0672430    -1.2232590     0.4643770
  H        1.5293690     1.3045580     1.7644240
  H        2.2851470     2.1591780     0.4026320
  H        0.5420990     2.3541860     0.7225810
  H       -2.2325720    -1.7800520    -0.1237300
  H       -2.4588320    -0.9441430     1.3993390
  H       -4.0995650     0.6270340     0.3028840
  H       -3.8738130    -0.2132220    -1.2332140
  H       -4.6116960    -1.0622230     0.1365660
units angstrom
no_reorient  #important for SAPT in psi4, default
symmetry c1  #important for SAPT in psi4, default
}

set PROPERTIES_ORIGIN ["COM"]
properties('MP2/aug-cc-pvtz', properties = ['dipole'])
--------------------------------------------------------------------------

    Molecular point group: c1
  Charge       = -1
  Multiplicity = 1
  Basis Set: AUG-CC-PVTZ
    Blend: AUG-CC-PVTZ
  Basis Set: (AUG-CC-PVTZ AUX)
    Blend: AUG-CC-PVTZ-JKFIT

    Orbital Energies [Eh]
    ---------------------

    Doubly Occupied:

       1A    -20.391251     2A    -20.321754     3A    -20.314443
       4A    -15.436287     5A    -11.223296     6A    -11.161152
       7A    -11.135034     8A    -11.124136     9A    -11.090225
      10A    -11.074159    11A     -1.241462    12A     -1.190751
      13A     -1.096776    14A     -1.081927    15A     -0.950193
      16A     -0.887498    17A     -0.783569    18A     -0.731504
      19A     -0.650152    20A     -0.589801    21A     -0.543428
      22A     -0.539031    23A     -0.523746    24A     -0.482685
      25A     -0.466876    26A     -0.440007    27A     -0.425622
      28A     -0.419033    29A     -0.413285    30A     -0.403656
      31A     -0.397085    32A     -0.377560    33A     -0.374729
      34A     -0.348263    35A     -0.299675    36A     -0.258243
      37A     -0.237190    38A     -0.222877    39A     -0.215793

  @DF-RHF Final Energy:  -512.30468609523678

   => Energetics <=

    Nuclear Repulsion Energy =            534.6161335647341275
    One-Electron Energy =               -1774.1133342931400421
    Two-Electron Energy =                 727.1925146331691394
    Total Energy =                       -512.3046860952367751
  Basis Set: (AUG-CC-PVTZ AUX)
    Blend: AUG-CC-PVTZ-RI
    Molecular point group: c1

    Geometry (in Angstrom), charge = -1, multiplicity = 1:

       Center              X                  Y                   Z               Mass
    ------------   -----------------  -----------------  -----------------  -----------------
         O           -1.684380870463     1.302962812337    -0.546638429270    15.994914619570
         O            1.937172129537    -1.714158187663     0.210802570730    15.994914619570
         O            3.298332129537    -0.044171187663    -0.522922429270    15.994914619570
         N           -0.196730870463    -0.233054187663     0.250228570730    14.003074004430
         C            1.005583129537     0.476148812337    -0.155667429270    12.000000000000
         C            1.296326129537     1.665449812337     0.753580570730    12.000000000000
         C           -2.555086870463    -0.788703187663     0.329082570730    12.000000000000
         C           -1.446914870463     0.193130812337    -0.035753429270    12.000000000000
         C            2.191203129537    -0.526135187663    -0.158554429270    12.000000000000
         C           -3.928827870463    -0.319859187663    -0.131247429270    12.000000000000
         H            0.897201329537     0.776690412337    -0.996039429270     1.007825032230
         H           -0.014726870463    -1.208678187663     0.481186570730     1.007825032230
         H            1.447399129537     1.319138812337     1.781233570730     1.007825032230
         H            2.203177129537     2.173758812337     0.419441570730     1.007825032230
         H            0.460129129537     2.368766812337     0.739390570730     1.007825032230
         H           -2.314541870463    -1.765471187663    -0.106920429270     1.007825032230
         H           -2.540801870463    -0.929562187663     1.416148570730     1.007825032230
         H           -4.181534870463     0.641614812337     0.319693570730     1.007825032230
         H           -3.955782870463    -0.198641187663    -1.216404429270     1.007825032230
         H           -4.693665870463    -1.047642187663     0.153375570730     1.007825032230

  Basis Set: AUG-CC-PVTZ
    Blend: AUG-CC-PVTZ
  Basis Set: (AUG-CC-PVTZ AUX)
    Blend: AUG-CC-PVTZ-JKFIT
	 Reference Energy          =    -512.3046860952367751 [Eh]
	 Singles Energy            =      -0.0000000000000000 [Eh]
	 Same-Spin Energy          =      -0.5198757551828639 [Eh]
	 Opposite-Spin Energy      =      -1.6205039050994170 [Eh]
	 Correlation Energy        =      -2.1403796602822807 [Eh]
	 Total Energy              =    -514.4450657555190674 [Eh]

	 ================> DF-SCS-MP2 Energies <==================
	-----------------------------------------------------------
	 SCS Same-Spin Scale       =       0.3333333333333333 [-]
	 SCS Opposite-Spin Scale   =       1.2000000000000000 [-]
	 SCS Same-Spin Energy      =      -0.1732919183942880 [Eh]
	 SCS Opposite-Spin Energy  =      -1.9446046861193003 [Eh]
	 SCS Correlation Energy    =      -2.1178966045135881 [Eh]
	 SCS Total Energy          =    -514.4225826997503646 [Eh]
	-----------------------------------------------------------

  Dipole Moment: [D]
     X:    -8.6533      Y:     0.6315      Z:     1.5474     Total:     8.8132

*** Psi4 exiting successfully. Buy a developer a beer!
