                               Psi4 1.3.2 release

  ==> Input File <==

--------------------------------------------------------------------------
#psi4
#
memory 32 gb

molecule  {
-1 1
  O       -1.6024110     1.2883820    -0.5634480
  O        2.0191420    -1.7287390     0.1939930
  O        3.3803020    -0.0587520    -0.5397320
  N       -0.1147610    -0.2476350     0.2334190
  C        1.0803801     0.4704381    -0.1780272
  C        1.3782960     1.6508690     0.7367710
  C       -2.4731170    -0.8032840     0.3122730
  C       -1.3604237     0.1878977    -0.0581544
  C        2.2731730    -0.5407160    -0.1753640
  C       -3.8468580    -0.3344400    -0.1480570
  H        0.9550610     0.8289670    -1.1997950
  H        0.0672430    -1.2232590     0.4643770
  H        1.5293690     1.3045580     1.7644240
  H        2.2851470     2.1591780     0.4026320
  H        0.5420990     2.3541860     0.7225810
  H       -2.2325720    -1.7800520    -0.1237300
  H       -2.4588320    -0.9441430     1.3993390
  H       -4.0995650     0.6270340     0.3028840
  H       -3.8738130    -0.2132220    -1.2332140
  H       -4.6116960    -1.0622230     0.1365660
units angstrom
no_reorient  #important for SAPT in psi4, default
symmetry c1  #important for SAPT in psi4, default
}

set PROPERTIES_ORIGIN ["COM"]
properties('MP2/aug-cc-pvtz', properties = ['dipole'])
--------------------------------------------------------------------------

    Molecular point group: c1
  Charge       = -1
  Multiplicity = 1
  Basis Set: AUG-CC-PVTZ
    Blend: AUG-CC-PVTZ
  Basis Set: (AUG-CC-PVTZ AUX)
    Blend: AUG-CC-PVTZ-JKFIT

    Orbital Energies [Eh]
    ---------------------

    Doubly Occupied:

       1A    -20.393197     2A    -20.322387     3A    -20.313669
       4A    -15.437072     5A    -11.222798     6A    -11.162147
       7A    -11.134493     8A    -11.123753     9A    -11.113683
      10A    -11.075358    11A     -1.247499    12A     -1.190143
      13A     -1.096759    14A     -1.081502    15A     -0.947359
      16A     -0.878039    17A     -0.782043    18A     -0.719413
      19A     -0.640268    20A     -0.587563    21A     -0.540646
      22A     -0.532349    23A     -0.512916    24A     -0.484729
      25A     -0.465333    26A     -0.439136    27A     -0.424984
      28A     -0.419101    29A     -0.413733    30A     -0.403711
      31A     -0.396576    32A     -0.377153    33A     -0.370320
      34A     -0.343612    35A     -0.299155    36A     -0.258128
      37A     -0.236690    38A     -0.221594    39A     -0.215397

  @DF-RHF Final Energy:  -512.33667363674283

   => Energetics <=

    Nuclear Repulsion Energy =            533.4276984717233745
    One-Electron Energy =               -1771.8799230770384838
    Two-Electron Energy =                 726.1155509685723928
    Total Energy =                       -512.3366736367428302
  Basis Set: (AUG-CC-PVTZ AUX)
    Blend: AUG-CC-PVTZ-RI
    Molecular point group: c1

    Geometry (in Angstrom), charge = -1, multiplicity = 1:

       Center              X                  Y                   Z               Mass
    ------------   -----------------  -----------------  -----------------  -----------------
         O           -1.683991340411     1.300977652577    -0.544402593570    15.994914619570
         O            1.937561659589    -1.716143347423     0.213038406430    15.994914619570
         O            3.298721659589    -0.046156347423    -0.520686593570    15.994914619570
         N           -0.196341340411    -0.235039347423     0.252464406430    14.003074004430
         C            0.998799759589     0.483033752577    -0.158981793570    12.000000000000
         C            1.296715659589     1.663464652577     0.755816406430    12.000000000000
         C           -2.554697340411    -0.790688347423     0.331318406430    12.000000000000
         C           -1.442004040411     0.200493352577    -0.039108993570    12.000000000000
         C            2.191592659589    -0.528120347423    -0.156318593570    12.000000000000
         C           -3.928438340411    -0.321844347423    -0.129011593570    12.000000000000
         H            0.873480659589     0.841562652577    -1.180749593570     1.007825032230
         H           -0.014337340411    -1.210663347423     0.483422406430     1.007825032230
         H            1.447788659589     1.317153652577     1.783469406430     1.007825032230
         H            2.203566659589     2.171773652577     0.421677406430     1.007825032230
         H            0.460518659589     2.366781652577     0.741626406430     1.007825032230
         H           -2.314152340411    -1.767456347423    -0.104684593570     1.007825032230
         H           -2.540412340411    -0.931547347423     1.418384406430     1.007825032230
         H           -4.181145340411     0.639629652577     0.321929406430     1.007825032230
         H           -3.955393340411    -0.200626347423    -1.214168593570     1.007825032230
         H           -4.693276340411    -1.049627347423     0.155611406430     1.007825032230

  Basis Set: AUG-CC-PVTZ
    Blend: AUG-CC-PVTZ
  Basis Set: (AUG-CC-PVTZ AUX)
    Blend: AUG-CC-PVTZ-JKFIT
	 Reference Energy          =    -512.3366736367428302 [Eh]
	 Singles Energy            =      -0.0000000000000000 [Eh]
	 Same-Spin Energy          =      -0.5199322902156778 [Eh]
	 Opposite-Spin Energy      =      -1.6208694405208937 [Eh]
	 Correlation Energy        =      -2.1408017307365714 [Eh]
	 Total Energy              =    -514.4774753674794283 [Eh]

	 ================> DF-SCS-MP2 Energies <==================
	-----------------------------------------------------------
	 SCS Same-Spin Scale       =       0.3333333333333333 [-]
	 SCS Opposite-Spin Scale   =       1.2000000000000000 [-]
	 SCS Same-Spin Energy      =      -0.1733107634052259 [Eh]
	 SCS Opposite-Spin Energy  =      -1.9450433286250723 [Eh]
	 SCS Correlation Energy    =      -2.1183540920302981 [Eh]
	 SCS Total Energy          =    -514.4550277287730751 [Eh]
	-----------------------------------------------------------

  Dipole Moment: [D]
     X:    -8.6674      Y:     0.6767      Z:     1.5650     Total:     8.8335

*** Psi4 exiting successfully. Buy a developer a beer!
