                               Psi4 1.4a3.dev225

  ==> Input File <==

--------------------------------------------------------------------------
#psi4
#
memory 32 gb

molecule  {
-1 1
  O       -1.5868420     1.2523650    -0.8113290
  O        2.0299390    -1.6922460     0.2543140
  O        3.4074630     0.0142020    -0.3584910
  N       -0.1383540    -0.2870410     0.0455440
  C        1.0782140     0.4735880    -0.1782270
  C        1.2275190     1.6106150     0.8299030
  C       -2.4816390    -0.8906360    -0.1487800
  C       -1.3641120     0.1217370    -0.3343690
  C        2.2855270    -0.4976230    -0.0923730
  C       -3.7126180    -0.2515540     0.4884160
  H        1.0494870     0.8996880    -1.1894520
  H        0.0553253    -1.2702617     0.3198401
  H        1.2660770     1.2028380     1.8451460
  H        2.1536960     2.1558630     0.6353850
  H        0.3800930     2.2967220     0.7589720
  H       -2.7387560    -1.2794370    -1.1416750
  H       -2.1327770    -1.7398080     0.4477120
  H       -3.4838230     0.1112750     1.4946450
  H       -4.0489630     0.5957980    -0.1116680
  H       -4.5299760    -0.9736440     0.5641870
units angstrom
no_reorient  #important for SAPT in psi4, default
symmetry c1  #important for SAPT in psi4, default
}

set PROPERTIES_ORIGIN ["COM"]
properties('MP2/aug-cc-pvtz', properties = ['dipole'])
--------------------------------------------------------------------------

    Molecular point group: c1
  Charge       = -1
  Multiplicity = 1
  Basis Set: AUG-CC-PVTZ
    Blend: AUG-CC-PVTZ
  Basis Set: (AUG-CC-PVTZ AUX)
    Blend: AUG-CC-PVTZ-JKFIT

    Orbital Energies [Eh]
    ---------------------

    Doubly Occupied:

       1A    -20.386997     2A    -20.323803     3A    -20.315087
       4A    -15.443509     5A    -11.222039     6A    -11.163201
       7A    -11.134275     8A    -11.127115     9A    -11.115528
      10A    -11.077357    11A     -1.238083    12A     -1.191733
      13A     -1.097270    14A     -1.081651    15A     -0.950172
      16A     -0.879084    17A     -0.783581    18A     -0.724908
      19A     -0.639044    20A     -0.588007    21A     -0.546710
      22A     -0.522872    23A     -0.513569    24A     -0.483080
      25A     -0.463476    26A     -0.442219    27A     -0.434625
      28A     -0.418961    29A     -0.411412    30A     -0.406052
      31A     -0.395383    32A     -0.375292    33A     -0.369056
      34A     -0.341208    35A     -0.296465    36A     -0.257991
      37A     -0.238494    38A     -0.223876    39A     -0.216575

  @DF-RHF Final Energy:  -512.33545353008094

   => Energetics <=

    Nuclear Repulsion Energy =            534.2184878343161927
    One-Electron Energy =               -1773.4283617825001329
    Two-Electron Energy =                 726.8744204181030000
    Total Energy =                       -512.3354535300809403
  Basis Set: (AUG-CC-PVTZ AUX)
    Blend: AUG-CC-PVTZ-RI
    Molecular point group: c1

    Geometry (in Angstrom), charge = -1, multiplicity = 1:

       Center              X                  Y                   Z               Mass
    ------------   -----------------  -----------------  -----------------  -----------------
         O           -1.669602225558     1.266386038063    -0.786483445222    15.994914619570
         O            1.947178774442    -1.678224961937     0.279159554778    15.994914619570
         O            3.324702774442     0.028223038063    -0.333645445222    15.994914619570
         N           -0.221114225558    -0.273019961937     0.070389554778    14.003074004430
         C            0.995453774442     0.487609038063    -0.153381445222    12.000000000000
         C            1.144758774442     1.624636038063     0.854748554778    12.000000000000
         C           -2.564399225558    -0.876614961937    -0.123934445222    12.000000000000
         C           -1.446872225558     0.135758038063    -0.309523445222    12.000000000000
         C            2.202766774442    -0.483601961937    -0.067527445222    12.000000000000
         C           -3.795378225558    -0.237532961937     0.513261554778    12.000000000000
         H            0.966726774442     0.913709038063    -1.164606445222     1.007825032230
         H           -0.027434925558    -1.256240661937     0.344685654778     1.007825032230
         H            1.183316774442     1.216859038063     1.869991554778     1.007825032230
         H            2.070935774442     2.169884038063     0.660230554778     1.007825032230
         H            0.297332774442     2.310743038063     0.783817554778     1.007825032230
         H           -2.821516225558    -1.265415961937    -1.116829445222     1.007825032230
         H           -2.215537225558    -1.725786961937     0.472557554778     1.007825032230
         H           -3.566583225558     0.125296038063     1.519490554778     1.007825032230
         H           -4.131723225558     0.609819038063    -0.086822445222     1.007825032230
         H           -4.612736225558    -0.959622961937     0.589032554778     1.007825032230

  Basis Set: AUG-CC-PVTZ
    Blend: AUG-CC-PVTZ
  Basis Set: (AUG-CC-PVTZ AUX)
    Blend: AUG-CC-PVTZ-JKFIT
	 Reference Energy          =    -512.3354535300809403 [Eh]
	 Singles Energy            =      -0.0000000000000000 [Eh]
	 Same-Spin Energy          =      -0.5206676581349418 [Eh]
	 Opposite-Spin Energy      =      -1.6222188673158195 [Eh]
	 Correlation Energy        =      -2.1428865254507614 [Eh]
	 Total Energy              =    -514.4783400555317030 [Eh]

	 ================> DF-SCS-MP2 Energies <==================
	-----------------------------------------------------------
	 SCS Same-Spin Scale       =       0.3333333333333333 [-]
	 SCS Opposite-Spin Scale   =       1.2000000000000000 [-]
	 SCS Same-Spin Energy      =      -0.1735558860449806 [Eh]
	 SCS Opposite-Spin Energy  =      -1.9466626407789833 [Eh]
	 SCS Correlation Energy    =      -2.1202185268239639 [Eh]
	 SCS Total Energy          =    -514.4556720569048593 [Eh]
	-----------------------------------------------------------

  Dipole Moment: [D]
     X:    -8.6103      Y:     0.3558      Z:     1.2325     Total:     8.7054

*** Psi4 exiting successfully. Buy a developer a beer!
