                               Psi4 1.3.2 release

  ==> Input File <==

--------------------------------------------------------------------------
#psi4
#
memory 32 gb

molecule  {
-1 1
  O       -1.6024110     1.2883820    -0.5634480
  O        2.0191420    -1.7287390     0.1939930
  O        3.3803020    -0.0587520    -0.5397320
  N       -0.1147610    -0.2476350     0.2334190
  C        1.0875530     0.4615680    -0.1724770
  C        1.3782960     1.6508690     0.7367710
  C       -2.4731170    -0.8032840     0.3122730
  C       -1.3649450     0.1785500    -0.0525630
  C        2.2788957    -0.5323282    -0.2285941
  C       -3.8468580    -0.3344400    -0.1480570
  H        0.9844242     0.8068550    -1.2107736
  H        0.0672430    -1.2232590     0.4643770
  H        1.5293690     1.3045580     1.7644240
  H        2.2851470     2.1591780     0.4026320
  H        0.5420990     2.3541860     0.7225810
  H       -2.2325720    -1.7800520    -0.1237300
  H       -2.4588320    -0.9441430     1.3993390
  H       -4.0995650     0.6270340     0.3028840
  H       -3.8738130    -0.2132220    -1.2332140
  H       -4.6116960    -1.0622230     0.1365660
units angstrom
no_reorient  #important for SAPT in psi4, default
symmetry c1  #important for SAPT in psi4, default
}

set PROPERTIES_ORIGIN ["COM"]
properties('MP2/aug-cc-pvtz', properties = ['dipole'])
--------------------------------------------------------------------------

    Molecular point group: c1
  Charge       = -1
  Multiplicity = 1
  Basis Set: AUG-CC-PVTZ
    Blend: AUG-CC-PVTZ
  Basis Set: (AUG-CC-PVTZ AUX)
    Blend: AUG-CC-PVTZ-JKFIT

    Orbital Energies [Eh]
    ---------------------

    Doubly Occupied:

       1A    -20.391104     2A    -20.320044     3A    -20.315825
       4A    -15.437471     5A    -11.223068     6A    -11.161809
       7A    -11.134909     8A    -11.123983     9A    -11.114705
      10A    -11.076608    11A     -1.240921    12A     -1.192242
      13A     -1.098387    14A     -1.075920    15A     -0.948796
      16A     -0.878396    17A     -0.783620    18A     -0.722062
      19A     -0.639204    20A     -0.587260    21A     -0.542646
      22A     -0.532081    23A     -0.510250    24A     -0.482455
      25A     -0.464696    26A     -0.438540    27A     -0.426416
      28A     -0.419699    29A     -0.413482    30A     -0.403775
      31A     -0.396220    32A     -0.375391    33A     -0.370225
      34A     -0.340879    35A     -0.299409    36A     -0.256767
      37A     -0.234434    38A     -0.223142    39A     -0.215852

  @DF-RHF Final Energy:  -512.33345397495566

   => Energetics <=

    Nuclear Repulsion Energy =            533.2529680554931701
    One-Electron Energy =               -1771.5474601650873865
    Two-Electron Energy =                 725.9610381346384429
    Total Energy =                       -512.3334539749556598
  Basis Set: (AUG-CC-PVTZ AUX)
    Blend: AUG-CC-PVTZ-RI
    Molecular point group: c1

    Geometry (in Angstrom), charge = -1, multiplicity = 1:

       Center              X                  Y                   Z               Mass
    ------------   -----------------  -----------------  -----------------  -----------------
         O           -1.684894291186     1.301951129739    -0.540820025416    15.994914619570
         O            1.936658708814    -1.715169870261     0.216620974584    15.994914619570
         O            3.297818708814    -0.045182870261    -0.517104025416    15.994914619570
         N           -0.197244291186    -0.234065870261     0.256046974584    14.003074004430
         C            1.005069708814     0.475137129739    -0.149849025416    12.000000000000
         C            1.295812708814     1.664438129739     0.759398974584    12.000000000000
         C           -2.555600291186    -0.789714870261     0.334900974584    12.000000000000
         C           -1.447428291186     0.192119129739    -0.029935025416    12.000000000000
         C            2.196412408814    -0.518759070261    -0.205966125416    12.000000000000
         C           -3.929341291186    -0.320870870261    -0.125429025416    12.000000000000
         H            0.901940908814     0.820424129739    -1.188145625416     1.007825032230
         H           -0.015240291186    -1.209689870261     0.487004974584     1.007825032230
         H            1.446885708814     1.318127129739     1.787051974584     1.007825032230
         H            2.202663708814     2.172747129739     0.425259974584     1.007825032230
         H            0.459615708814     2.367755129739     0.745208974584     1.007825032230
         H           -2.315055291186    -1.766482870261    -0.101102025416     1.007825032230
         H           -2.541315291186    -0.930573870261     1.421966974584     1.007825032230
         H           -4.182048291186     0.640603129739     0.325511974584     1.007825032230
         H           -3.956296291186    -0.199652870261    -1.210586025416     1.007825032230
         H           -4.694179291186    -1.048653870261     0.159193974584     1.007825032230

  Basis Set: AUG-CC-PVTZ
    Blend: AUG-CC-PVTZ
  Basis Set: (AUG-CC-PVTZ AUX)
    Blend: AUG-CC-PVTZ-JKFIT
	 Reference Energy          =    -512.3334539749556598 [Eh]
	 Singles Energy            =      -0.0000000000000000 [Eh]
	 Same-Spin Energy          =      -0.5202196347304591 [Eh]
	 Opposite-Spin Energy      =      -1.6215133363058358 [Eh]
	 Correlation Energy        =      -2.1417329710362951 [Eh]
	 Total Energy              =    -514.4751869459919362 [Eh]

	 ================> DF-SCS-MP2 Energies <==================
	-----------------------------------------------------------
	 SCS Same-Spin Scale       =       0.3333333333333333 [-]
	 SCS Opposite-Spin Scale   =       1.2000000000000000 [-]
	 SCS Same-Spin Energy      =      -0.1734065449101530 [Eh]
	 SCS Opposite-Spin Energy  =      -1.9458160035670029 [Eh]
	 SCS Correlation Energy    =      -2.1192225484771559 [Eh]
	 SCS Total Energy          =    -514.4526765234328423 [Eh]
	-----------------------------------------------------------

  Dipole Moment: [D]
     X:    -8.5112      Y:     0.8128      Z:     1.4934     Total:     8.6794

*** Psi4 exiting successfully. Buy a developer a beer!
