                               Psi4 1.4a3.dev225

  ==> Input File <==

--------------------------------------------------------------------------
#psi4
#
memory 32 gb

molecule  {
-1 1
  O       -1.5868420     1.2523650    -0.8113290
  O        2.0299390    -1.6922460     0.2543140
  O        3.4074630     0.0142020    -0.3584910
  N       -0.1383540    -0.2870410     0.0455440
  C        1.0782140     0.4735880    -0.1782270
  C        1.2324081     1.6478480     0.8629151
  C       -2.4816390    -0.8906360    -0.1487800
  C       -1.3641120     0.1217370    -0.3343690
  C        2.2855270    -0.4976230    -0.0923730
  C       -3.7126180    -0.2515540     0.4884160
  H        1.0494870     0.8996880    -1.1894520
  H        0.0515970    -1.2513350     0.3145600
  H        1.2660770     1.2028380     1.8451460
  H        2.1536960     2.1558630     0.6353850
  H        0.3800930     2.2967220     0.7589720
  H       -2.7387560    -1.2794370    -1.1416750
  H       -2.1327770    -1.7398080     0.4477120
  H       -3.4838230     0.1112750     1.4946450
  H       -4.0489630     0.5957980    -0.1116680
  H       -4.5299760    -0.9736440     0.5641870
units angstrom
no_reorient  #important for SAPT in psi4, default
symmetry c1  #important for SAPT in psi4, default
}

set PROPERTIES_ORIGIN ["COM"]
properties('MP2/aug-cc-pvtz', properties = ['dipole'])
--------------------------------------------------------------------------

    Molecular point group: c1
  Charge       = -1
  Multiplicity = 1
  Basis Set: AUG-CC-PVTZ
    Blend: AUG-CC-PVTZ
  Basis Set: (AUG-CC-PVTZ AUX)
    Blend: AUG-CC-PVTZ-JKFIT

    Orbital Energies [Eh]
    ---------------------

    Doubly Occupied:

       1A    -20.387507     2A    -20.323154     3A    -20.314691
       4A    -15.442648     5A    -11.222457     6A    -11.162825
       7A    -11.134595     8A    -11.127386     9A    -11.117646
      10A    -11.076053    11A     -1.238594    12A     -1.191146
      13A     -1.097878    14A     -1.082048    15A     -0.950019
      16A     -0.873557    17A     -0.784800    18A     -0.727676
      19A     -0.643190    20A     -0.588224    21A     -0.546475
      22A     -0.522570    23A     -0.512870    24A     -0.483368
      25A     -0.461461    26A     -0.443837    27A     -0.433395
      28A     -0.418492    29A     -0.413188    30A     -0.408959
      31A     -0.398270    32A     -0.376192    33A     -0.372797
      34A     -0.338059    35A     -0.297248    36A     -0.256040
      37A     -0.238292    38A     -0.223510    39A     -0.215949

  @DF-RHF Final Energy:  -512.33493820062313

   => Energetics <=

    Nuclear Repulsion Energy =            533.4015970087826872
    One-Electron Energy =               -1771.7789362485912079
    Two-Electron Energy =                 726.0424010391852789
    Total Energy =                       -512.3349382006231281
  Basis Set: (AUG-CC-PVTZ AUX)
    Blend: AUG-CC-PVTZ-RI
    Molecular point group: c1

    Geometry (in Angstrom), charge = -1, multiplicity = 1:

       Center              X                  Y                   Z               Mass
    ------------   -----------------  -----------------  -----------------  -----------------
         O           -1.669983382111     1.263152307818    -0.789196254615    15.994914619570
         O            1.946797617889    -1.681458692182     0.276446745385    15.994914619570
         O            3.324321617889     0.024989307818    -0.336358254615    15.994914619570
         N           -0.221495382111    -0.276253692182     0.067676745385    14.003074004430
         C            0.995072617889     0.484375307818    -0.156094254615    12.000000000000
         C            1.149266717889     1.658635307818     0.885047845385    12.000000000000
         C           -2.564780382111    -0.879848692182    -0.126647254615    12.000000000000
         C           -1.447253382111     0.132524307818    -0.312236254615    12.000000000000
         C            2.202385617889    -0.486835692182    -0.070240254615    12.000000000000
         C           -3.795759382111    -0.240766692182     0.510548745385    12.000000000000
         H            0.966345617889     0.910475307818    -1.167319254615     1.007825032230
         H           -0.031544382111    -1.240547692182     0.336692745385     1.007825032230
         H            1.182935617889     1.213625307818     1.867278745385     1.007825032230
         H            2.070554617889     2.166650307818     0.657517745385     1.007825032230
         H            0.296951617889     2.307509307818     0.781104745385     1.007825032230
         H           -2.821897382111    -1.268649692182    -1.119542254615     1.007825032230
         H           -2.215918382111    -1.729020692182     0.469844745385     1.007825032230
         H           -3.566964382111     0.122062307818     1.516777745385     1.007825032230
         H           -4.132104382111     0.606585307818    -0.089535254615     1.007825032230
         H           -4.613117382111    -0.962856692182     0.586319745385     1.007825032230

  Basis Set: AUG-CC-PVTZ
    Blend: AUG-CC-PVTZ
  Basis Set: (AUG-CC-PVTZ AUX)
    Blend: AUG-CC-PVTZ-JKFIT
	 Reference Energy          =    -512.3349382006231281 [Eh]
	 Singles Energy            =      -0.0000000000000000 [Eh]
	 Same-Spin Energy          =      -0.5202251101637726 [Eh]
	 Opposite-Spin Energy      =      -1.6216564978574226 [Eh]
	 Correlation Energy        =      -2.1418816080211953 [Eh]
	 Total Energy              =    -514.4768198086443363 [Eh]

	 ================> DF-SCS-MP2 Energies <==================
	-----------------------------------------------------------
	 SCS Same-Spin Scale       =       0.3333333333333333 [-]
	 SCS Opposite-Spin Scale   =       1.2000000000000000 [-]
	 SCS Same-Spin Energy      =      -0.1734083700545909 [Eh]
	 SCS Opposite-Spin Energy  =      -1.9459877974289070 [Eh]
	 SCS Correlation Energy    =      -2.1193961674834978 [Eh]
	 SCS Total Energy          =    -514.4543343681066290 [Eh]
	-----------------------------------------------------------

  Dipole Moment: [D]
     X:    -8.6635      Y:     0.3777      Z:     1.2316     Total:     8.7587

*** Psi4 exiting successfully. Buy a developer a beer!
