                               Psi4 1.4a3.dev225

  ==> Input File <==

--------------------------------------------------------------------------
#psi4
#
memory 32 gb

molecule  {
-1 1
  O       -1.5868420     1.2523650    -0.8113290
  O        2.0299390    -1.6922460     0.2543140
  O        3.4074630     0.0142020    -0.3584910
  N       -0.1383540    -0.2870410     0.0455440
  C        1.0782140     0.4735880    -0.1782270
  C        1.2275190     1.6106150     0.8299030
  C       -2.4816390    -0.8906360    -0.1487800
  C       -1.3641120     0.1217370    -0.3343690
  C        2.3299934    -0.4773375    -0.1029202
  C       -3.7126180    -0.2515540     0.4884160
  H        1.0494870     0.8996880    -1.1894520
  H        0.0515970    -1.2513350     0.3145600
  H        1.2660770     1.2028380     1.8451460
  H        2.1536960     2.1558630     0.6353850
  H        0.3800930     2.2967220     0.7589720
  H       -2.7387560    -1.2794370    -1.1416750
  H       -2.1327770    -1.7398080     0.4477120
  H       -3.4838230     0.1112750     1.4946450
  H       -4.0489630     0.5957980    -0.1116680
  H       -4.5299760    -0.9736440     0.5641870
units angstrom
no_reorient  #important for SAPT in psi4, default
symmetry c1  #important for SAPT in psi4, default
}

set PROPERTIES_ORIGIN ["COM"]
properties('MP2/aug-cc-pvtz', properties = ['dipole'])
--------------------------------------------------------------------------

    Molecular point group: c1
  Charge       = -1
  Multiplicity = 1
  Basis Set: AUG-CC-PVTZ
    Blend: AUG-CC-PVTZ
  Basis Set: (AUG-CC-PVTZ AUX)
    Blend: AUG-CC-PVTZ-JKFIT

    Orbital Energies [Eh]
    ---------------------

    Doubly Occupied:

       1A    -20.385476     2A    -20.326728     3A    -20.313732
       4A    -15.440195     5A    -11.220608     6A    -11.162396
       7A    -11.133086     8A    -11.126143     9A    -11.112950
      10A    -11.076395    11A     -1.236668    12A     -1.205250
      13A     -1.102756    14A     -1.076724    15A     -0.948782
      16A     -0.877168    17A     -0.782372    18A     -0.720436
      19A     -0.640691    20A     -0.586125    21A     -0.546301
      22A     -0.521802    23A     -0.511698    24A     -0.482691
      25A     -0.463207    26A     -0.443123    27A     -0.434910
      28A     -0.423510    29A     -0.410265    30A     -0.406664
      31A     -0.394634    32A     -0.375217    33A     -0.371318
      34A     -0.343676    35A     -0.295763    36A     -0.257029
      37A     -0.237811    38A     -0.221742    39A     -0.217314

  @DF-RHF Final Energy:  -512.33497624008874

   => Energetics <=

    Nuclear Repulsion Energy =            534.1149021952016938
    One-Electron Energy =               -1773.2330426193313997
    Two-Electron Energy =                 726.7831641840409702
    Total Energy =                       -512.3349762400887357
  Basis Set: (AUG-CC-PVTZ AUX)
    Blend: AUG-CC-PVTZ-RI
    Molecular point group: c1

    Geometry (in Angstrom), charge = -1, multiplicity = 1:

       Center              X                  Y                   Z               Mass
    ------------   -----------------  -----------------  -----------------  -----------------
         O           -1.673279977944     1.264563951813    -0.785567977627    15.994914619570
         O            1.943501022056    -1.680047048187     0.280075022373    15.994914619570
         O            3.321025022056     0.026400951813    -0.332729977627    15.994914619570
         N           -0.224791977944    -0.274842048187     0.071305022373    14.003074004430
         C            0.991776022056     0.485786951813    -0.152465977627    12.000000000000
         C            1.141081022056     1.622813951813     0.855664022373    12.000000000000
         C           -2.568076977944    -0.878437048187    -0.123018977627    12.000000000000
         C           -1.450549977944     0.133935951813    -0.308607977627    12.000000000000
         C            2.243555422056    -0.465138548187    -0.077159177627    12.000000000000
         C           -3.799055977944    -0.239355048187     0.514177022373    12.000000000000
         H            0.963049022056     0.911886951813    -1.163690977627     1.007825032230
         H           -0.034840977944    -1.239136048187     0.340321022373     1.007825032230
         H            1.179639022056     1.215036951813     1.870907022373     1.007825032230
         H            2.067258022056     2.168061951813     0.661146022373     1.007825032230
         H            0.293655022056     2.308920951813     0.784733022373     1.007825032230
         H           -2.825193977944    -1.267238048187    -1.115913977627     1.007825032230
         H           -2.219214977944    -1.727609048187     0.473473022373     1.007825032230
         H           -3.570260977944     0.123473951813     1.520406022373     1.007825032230
         H           -4.135400977944     0.607996951813    -0.085906977627     1.007825032230
         H           -4.616413977944    -0.961445048187     0.589948022373     1.007825032230

  Basis Set: AUG-CC-PVTZ
    Blend: AUG-CC-PVTZ
  Basis Set: (AUG-CC-PVTZ AUX)
    Blend: AUG-CC-PVTZ-JKFIT
	 Reference Energy          =    -512.3349762400887357 [Eh]
	 Singles Energy            =      -0.0000000000000000 [Eh]
	 Same-Spin Energy          =      -0.5200382427795502 [Eh]
	 Opposite-Spin Energy      =      -1.6209504708403868 [Eh]
	 Correlation Energy        =      -2.1409887136199370 [Eh]
	 Total Energy              =    -514.4759649537086261 [Eh]

	 ================> DF-SCS-MP2 Energies <==================
	-----------------------------------------------------------
	 SCS Same-Spin Scale       =       0.3333333333333333 [-]
	 SCS Opposite-Spin Scale   =       1.2000000000000000 [-]
	 SCS Same-Spin Energy      =      -0.1733460809265167 [Eh]
	 SCS Opposite-Spin Energy  =      -1.9451405650084641 [Eh]
	 SCS Correlation Energy    =      -2.1184866459349809 [Eh]
	 SCS Total Energy          =    -514.4534628860237717 [Eh]
	-----------------------------------------------------------

  Dipole Moment: [D]
     X:    -8.2144      Y:     0.6205      Z:     1.1019     Total:     8.3112

*** Psi4 exiting successfully. Buy a developer a beer!
