                               Psi4 1.3.2 release

  ==> Input File <==

--------------------------------------------------------------------------
#psi4
#
memory 32 gb

molecule  {
-1 1
  O       -1.6024110     1.2883820    -0.5634480
  O        2.0191420    -1.7287390     0.1939930
  O        3.3803020    -0.0587520    -0.5397320
  N       -0.1147610    -0.2476350     0.2334190
  C        1.0875530     0.4615680    -0.1724770
  C        1.3782960     1.6508690     0.7367710
  C       -2.4731170    -0.8032840     0.3122730
  C       -1.3649450     0.1785500    -0.0525630
  C        2.1204368    -0.4115978    -0.1749921
  C       -3.8468580    -0.3344400    -0.1480570
  H        0.9550610     0.8289670    -1.1997950
  H        0.0672430    -1.2232590     0.4643770
  H        1.5293690     1.3045580     1.7644240
  H        2.2851470     2.1591780     0.4026320
  H        0.5420990     2.3541860     0.7225810
  H       -2.2325720    -1.7800520    -0.1237300
  H       -2.4588320    -0.9441430     1.3993390
  H       -4.0995650     0.6270340     0.3028840
  H       -3.8738130    -0.2132220    -1.2332140
  H       -4.6116960    -1.0622230     0.1365660
units angstrom
no_reorient  #important for SAPT in psi4, default
symmetry c1  #important for SAPT in psi4, default
}

set PROPERTIES_ORIGIN ["COM"]
properties('MP2/aug-cc-pvtz', properties = ['dipole'])
--------------------------------------------------------------------------

    Molecular point group: c1
  Charge       = -1
  Multiplicity = 1
  Basis Set: AUG-CC-PVTZ
    Blend: AUG-CC-PVTZ
  Basis Set: (AUG-CC-PVTZ AUX)
    Blend: AUG-CC-PVTZ-JKFIT

    Orbital Energies [Eh]
    ---------------------

    Doubly Occupied:

       1A    -20.399489     2A    -20.317989     3A    -20.308604
       4A    -15.446947     5A    -11.231289     6A    -11.169871
       7A    -11.140205     8A    -11.128126     9A    -11.126184
      10A    -11.089855    11A     -1.249807    12A     -1.151531
      13A     -1.093436    14A     -1.026472    15A     -0.957844
      16A     -0.910208    17A     -0.793881    18A     -0.760848
      19A     -0.652649    20A     -0.610428    21A     -0.554325
      22A     -0.540540    23A     -0.523254    24A     -0.487819
      25A     -0.468459    26A     -0.442558    27A     -0.430733
      28A     -0.421789    29A     -0.415549    30A     -0.403397
      31A     -0.394384    32A     -0.378792    33A     -0.353067
      34A     -0.309567    35A     -0.301764    36A     -0.265183
      37A     -0.247786    38A     -0.203990    39A     -0.192299

  @DF-RHF Final Energy:  -512.26729793010679

   => Energetics <=

    Nuclear Repulsion Energy =            534.6150861663916203
    One-Electron Energy =               -1773.9629332937261097
    Two-Electron Energy =                 727.0805491972276968
    Total Energy =                       -512.2672979301067926
  Basis Set: (AUG-CC-PVTZ AUX)
    Blend: AUG-CC-PVTZ-RI
    Molecular point group: c1

    Geometry (in Angstrom), charge = -1, multiplicity = 1:

       Center              X                  Y                   Z               Mass
    ------------   -----------------  -----------------  -----------------  -----------------
         O           -1.671490026099     1.291740190788    -0.545361611899    15.994914619570
         O            1.950062973901    -1.725380809212     0.212079388101    15.994914619570
         O            3.311222973901    -0.055393809212    -0.521645611899    15.994914619570
         N           -0.183840026099    -0.244276809212     0.251505388101    14.003074004430
         C            1.018473973901     0.464926190788    -0.154390611899    12.000000000000
         C            1.309216973901     1.654227190788     0.754857388101    12.000000000000
         C           -2.542196026099    -0.799925809212     0.330359388101    12.000000000000
         C           -1.434024026099     0.181908190788    -0.034476611899    12.000000000000
         C            2.051357773901    -0.408239609212    -0.156905711899    12.000000000000
         C           -3.915937026099    -0.331081809212    -0.129970611899    12.000000000000
         H            0.885981973901     0.832325190788    -1.181708611899     1.007825032230
         H           -0.001836026099    -1.219900809212     0.482463388101     1.007825032230
         H            1.460289973901     1.307916190788     1.782510388101     1.007825032230
         H            2.216067973901     2.162536190788     0.420718388101     1.007825032230
         H            0.473019973901     2.357544190788     0.740667388101     1.007825032230
         H           -2.301651026099    -1.776693809212    -0.105643611899     1.007825032230
         H           -2.527911026099    -0.940784809212     1.417425388101     1.007825032230
         H           -4.168644026099     0.630392190788     0.320970388101     1.007825032230
         H           -3.942892026099    -0.209863809212    -1.215127611899     1.007825032230
         H           -4.680775026099    -1.058864809212     0.154652388101     1.007825032230

  Basis Set: AUG-CC-PVTZ
    Blend: AUG-CC-PVTZ
  Basis Set: (AUG-CC-PVTZ AUX)
    Blend: AUG-CC-PVTZ-JKFIT
	 Reference Energy          =    -512.2672979301067926 [Eh]
	 Singles Energy            =      -0.0000000000000000 [Eh]
	 Same-Spin Energy          =      -0.5258918590024571 [Eh]
	 Opposite-Spin Energy      =      -1.6333369737420362 [Eh]
	 Correlation Energy        =      -2.1592288327444935 [Eh]
	 Total Energy              =    -514.4265267628512674 [Eh]

	 ================> DF-SCS-MP2 Energies <==================
	-----------------------------------------------------------
	 SCS Same-Spin Scale       =       0.3333333333333333 [-]
	 SCS Opposite-Spin Scale   =       1.2000000000000000 [-]
	 SCS Same-Spin Energy      =      -0.1752972863341523 [Eh]
	 SCS Opposite-Spin Energy  =      -1.9600043684904433 [Eh]
	 SCS Correlation Energy    =      -2.1353016548245956 [Eh]
	 SCS Total Energy          =    -514.4025995849314086 [Eh]
	-----------------------------------------------------------

  Dipole Moment: [D]
     X:    -9.5507      Y:     1.3119      Z:     1.6654     Total:     9.7832

*** Psi4 exiting successfully. Buy a developer a beer!
