                               Psi4 1.4a3.dev225

  ==> Input File <==

--------------------------------------------------------------------------
#psi4
#
memory 32 gb

molecule  {
-1 1
  O       -1.5868420     1.2523650    -0.8113290
  O        2.0299390    -1.6922460     0.2543140
  O        3.4074630     0.0142020    -0.3584910
  N       -0.1383540    -0.2870410     0.0455440
  C        1.0363248     0.4473978    -0.1705221
  C        1.2275190     1.6106150     0.8299030
  C       -2.4816390    -0.8906360    -0.1487800
  C       -1.3641120     0.1217370    -0.3343690
  C        2.2855270    -0.4976230    -0.0923730
  C       -3.7126180    -0.2515540     0.4884160
  H        1.0494870     0.8996880    -1.1894520
  H        0.0515970    -1.2513350     0.3145600
  H        1.2660770     1.2028380     1.8451460
  H        2.1536960     2.1558630     0.6353850
  H        0.3800930     2.2967220     0.7589720
  H       -2.7387560    -1.2794370    -1.1416750
  H       -2.1327770    -1.7398080     0.4477120
  H       -3.4838230     0.1112750     1.4946450
  H       -4.0489630     0.5957980    -0.1116680
  H       -4.5299760    -0.9736440     0.5641870
units angstrom
no_reorient  #important for SAPT in psi4, default
symmetry c1  #important for SAPT in psi4, default
}

set PROPERTIES_ORIGIN ["COM"]
properties('MP2/aug-cc-pvtz', properties = ['dipole'])
--------------------------------------------------------------------------

    Molecular point group: c1
  Charge       = -1
  Multiplicity = 1
  Basis Set: AUG-CC-PVTZ
    Blend: AUG-CC-PVTZ
  Basis Set: (AUG-CC-PVTZ AUX)
    Blend: AUG-CC-PVTZ-JKFIT

    Orbital Energies [Eh]
    ---------------------

    Doubly Occupied:

       1A    -20.389991     2A    -20.322375     3A    -20.315115
       4A    -15.444585     5A    -11.224922     6A    -11.163128
       7A    -11.136106     8A    -11.128434     9A    -11.113477
      10A    -11.076240    11A     -1.242042    12A     -1.190768
      13A     -1.106104    14A     -1.085414    15A     -0.952441
      16A     -0.874577    17A     -0.786505    18A     -0.725204
      19A     -0.645788    20A     -0.592722    21A     -0.551170
      22A     -0.524376    23A     -0.513315    24A     -0.485102
      25A     -0.463651    26A     -0.443360    27A     -0.434730
      28A     -0.418870    29A     -0.413238    30A     -0.401504
      31A     -0.397406    32A     -0.379419    33A     -0.368476
      34A     -0.338287    35A     -0.299335    36A     -0.256578
      37A     -0.237028    38A     -0.221585    39A     -0.215520

  @DF-RHF Final Energy:  -512.33349493870867

   => Energetics <=

    Nuclear Repulsion Energy =            534.7897704945686428
    One-Electron Energy =               -1774.4887521848047527
    Two-Electron Energy =                 727.3654867515273281
    Total Energy =                       -512.3334949387086681
  Basis Set: (AUG-CC-PVTZ AUX)
    Blend: AUG-CC-PVTZ-RI
    Molecular point group: c1

    Geometry (in Angstrom), charge = -1, multiplicity = 1:

       Center              X                  Y                   Z               Mass
    ------------   -----------------  -----------------  -----------------  -----------------
         O           -1.666086978141     1.268435150680    -0.787088288431    15.994914619570
         O            1.950694021859    -1.676175849320     0.278554711569    15.994914619570
         O            3.328218021859     0.030272150680    -0.334250288431    15.994914619570
         N           -0.217598978141    -0.270970849320     0.069784711569    14.003074004430
         C            0.957079821859     0.463467950680    -0.146281388431    12.000000000000
         C            1.148274021859     1.626685150680     0.854143711569    12.000000000000
         C           -2.560883978141    -0.874565849320    -0.124539288431    12.000000000000
         C           -1.443356978141     0.137807150680    -0.310128288431    12.000000000000
         C            2.206282021859    -0.481552849320    -0.068132288431    12.000000000000
         C           -3.791862978141    -0.235483849320     0.512656711569    12.000000000000
         H            0.970242021859     0.915758150680    -1.165211288431     1.007825032230
         H           -0.027647978141    -1.235264849320     0.338800711569     1.007825032230
         H            1.186832021859     1.218908150680     1.869386711569     1.007825032230
         H            2.074451021859     2.171933150680     0.659625711569     1.007825032230
         H            0.300848021859     2.312792150680     0.783212711569     1.007825032230
         H           -2.818000978141    -1.263366849320    -1.117434288431     1.007825032230
         H           -2.212021978141    -1.723737849320     0.471952711569     1.007825032230
         H           -3.563067978141     0.127345150680     1.518885711569     1.007825032230
         H           -4.128207978141     0.611868150680    -0.087427288431     1.007825032230
         H           -4.609220978141    -0.957573849320     0.588427711569     1.007825032230

  Basis Set: AUG-CC-PVTZ
    Blend: AUG-CC-PVTZ
  Basis Set: (AUG-CC-PVTZ AUX)
    Blend: AUG-CC-PVTZ-JKFIT
	 Reference Energy          =    -512.3334949387086681 [Eh]
	 Singles Energy            =      -0.0000000000000000 [Eh]
	 Same-Spin Energy          =      -0.5208152839690512 [Eh]
	 Opposite-Spin Energy      =      -1.6219753474109977 [Eh]
	 Correlation Energy        =      -2.1427906313800489 [Eh]
	 Total Energy              =    -514.4762855700887485 [Eh]

	 ================> DF-SCS-MP2 Energies <==================
	-----------------------------------------------------------
	 SCS Same-Spin Scale       =       0.3333333333333333 [-]
	 SCS Opposite-Spin Scale   =       1.2000000000000000 [-]
	 SCS Same-Spin Energy      =      -0.1736050946563504 [Eh]
	 SCS Opposite-Spin Energy  =      -1.9463704168931972 [Eh]
	 SCS Correlation Energy    =      -2.1199755115495478 [Eh]
	 SCS Total Energy          =    -514.4534704502582372 [Eh]
	-----------------------------------------------------------

  Dipole Moment: [D]
     X:    -8.7860      Y:     0.3042      Z:     1.2128     Total:     8.8745

*** Psi4 exiting successfully. Buy a developer a beer!
