                               Psi4 1.3.2 release

  ==> Input File <==

--------------------------------------------------------------------------
#psi4
#
memory 32 gb

molecule  {
-1 1
  O       -1.6024110     1.2883820    -0.5634480
  O        2.0191420    -1.7287390     0.1939930
  O        3.3803020    -0.0587520    -0.5397320
  N       -0.1147610    -0.2476350     0.2334190
  C        1.1153234     0.4255541    -0.1499712
  C        1.3782960     1.6508690     0.7367710
  C       -2.4731170    -0.8032840     0.3122730
  C       -1.3820748     0.1408418    -0.0299837
  C        2.2731730    -0.5407160    -0.1753640
  C       -3.8468580    -0.3344400    -0.1480570
  H        0.9550610     0.8289670    -1.1997950
  H        0.0672430    -1.2232590     0.4643770
  H        1.5293690     1.3045580     1.7644240
  H        2.2851470     2.1591780     0.4026320
  H        0.5420990     2.3541860     0.7225810
  H       -2.2325720    -1.7800520    -0.1237300
  H       -2.4588320    -0.9441430     1.3993390
  H       -4.0995650     0.6270340     0.3028840
  H       -3.8738130    -0.2132220    -1.2332140
  H       -4.6116960    -1.0622230     0.1365660
units angstrom
no_reorient  #important for SAPT in psi4, default
symmetry c1  #important for SAPT in psi4, default
}

set PROPERTIES_ORIGIN ["COM"]
properties('MP2/aug-cc-pvtz', properties = ['dipole'])
--------------------------------------------------------------------------

    Molecular point group: c1
  Charge       = -1
  Multiplicity = 1
  Basis Set: AUG-CC-PVTZ
    Blend: AUG-CC-PVTZ
  Basis Set: (AUG-CC-PVTZ AUX)
    Blend: AUG-CC-PVTZ-JKFIT

    Orbital Energies [Eh]
    ---------------------

    Doubly Occupied:

       1A    -20.386083     2A    -20.321947     3A    -20.314109
       4A    -15.441740     5A    -11.226820     6A    -11.160965
       7A    -11.138320     8A    -11.126638     9A    -11.119160
      10A    -11.076829    11A     -1.220228    12A     -1.191989
      13A     -1.096093    14A     -1.079369    15A     -0.957325
      16A     -0.880189    17A     -0.791634    18A     -0.727739
      19A     -0.637537    20A     -0.592054    21A     -0.548960
      22A     -0.536583    23A     -0.505912    24A     -0.476089
      25A     -0.466325    26A     -0.437210    27A     -0.429169
      28A     -0.421214    29A     -0.411482    30A     -0.404289
      31A     -0.396692    32A     -0.370950    33A     -0.368652
      34A     -0.331078    35A     -0.299085    36A     -0.252839
      37A     -0.237925    38A     -0.228240    39A     -0.215907

  @DF-RHF Final Energy:  -512.32583025465840

   => Energetics <=

    Nuclear Repulsion Energy =            533.4194569064895859
    One-Electron Energy =               -1771.8398334866133155
    Two-Electron Energy =                 726.0945463254653305
    Total Energy =                       -512.3258302546583991
  Basis Set: (AUG-CC-PVTZ AUX)
    Blend: AUG-CC-PVTZ-RI
    Molecular point group: c1

    Geometry (in Angstrom), charge = -1, multiplicity = 1:

       Center              X                  Y                   Z               Mass
    ------------   -----------------  -----------------  -----------------  -----------------
         O           -1.685098515765     1.308635797301    -0.549086003123    15.994914619570
         O            1.936454484235    -1.708485202699     0.208354996877    15.994914619570
         O            3.297614484235    -0.038498202699    -0.525370003123    15.994914619570
         N           -0.197448515765    -0.227381202699     0.247780996877    14.003074004430
         C            1.032635884235     0.445807897301    -0.135609203123    12.000000000000
         C            1.295608484235     1.671122797301     0.751132996877    12.000000000000
         C           -2.555804515765    -0.783030202699     0.326634996877    12.000000000000
         C           -1.464762315765     0.161095597301    -0.015621703123    12.000000000000
         C            2.190485484235    -0.520462202699    -0.161002003123    12.000000000000
         C           -3.929545515765    -0.314186202699    -0.133695003123    12.000000000000
         H            0.872373484235     0.849220797301    -1.185433003123     1.007825032230
         H           -0.015444515765    -1.203005202699     0.478738996877     1.007825032230
         H            1.446681484235     1.324811797301     1.778785996877     1.007825032230
         H            2.202459484235     2.179431797301     0.416993996877     1.007825032230
         H            0.459411484235     2.374439797301     0.736942996877     1.007825032230
         H           -2.315259515765    -1.759798202699    -0.109368003123     1.007825032230
         H           -2.541519515765    -0.923889202699     1.413700996877     1.007825032230
         H           -4.182252515765     0.647287797301     0.317245996877     1.007825032230
         H           -3.956500515765    -0.192968202699    -1.218852003123     1.007825032230
         H           -4.694383515765    -1.041969202699     0.150927996877     1.007825032230

  Basis Set: AUG-CC-PVTZ
    Blend: AUG-CC-PVTZ
  Basis Set: (AUG-CC-PVTZ AUX)
    Blend: AUG-CC-PVTZ-JKFIT
	 Reference Energy          =    -512.3258302546583991 [Eh]
	 Singles Energy            =      -0.0000000000000000 [Eh]
	 Same-Spin Energy          =      -0.5213713262454115 [Eh]
	 Opposite-Spin Energy      =      -1.6237810587150066 [Eh]
	 Correlation Energy        =      -2.1451523849604182 [Eh]
	 Total Energy              =    -514.4709826396187964 [Eh]

	 ================> DF-SCS-MP2 Energies <==================
	-----------------------------------------------------------
	 SCS Same-Spin Scale       =       0.3333333333333333 [-]
	 SCS Opposite-Spin Scale   =       1.2000000000000000 [-]
	 SCS Same-Spin Energy      =      -0.1737904420818038 [Eh]
	 SCS Opposite-Spin Energy  =      -1.9485372704580077 [Eh]
	 SCS Correlation Energy    =      -2.1223277125398115 [Eh]
	 SCS Total Energy          =    -514.4481579671981990 [Eh]
	-----------------------------------------------------------

  Dipole Moment: [D]
     X:    -8.7310      Y:     0.4241      Z:     1.7396     Total:     8.9127

*** Psi4 exiting successfully. Buy a developer a beer!
