                               Psi4 1.3.2 release

  ==> Input File <==

--------------------------------------------------------------------------
#psi4
#
memory 32 gb

molecule  {
-1 1
  O       -1.6024110     1.2883820    -0.5634480
  O        2.0191420    -1.7287390     0.1939930
  O        3.3803020    -0.0587520    -0.5397320
  N       -0.1147610    -0.2476350     0.2334190
  C        1.0875530     0.4615680    -0.1724770
  C        1.3782960     1.6508690     0.7367710
  C       -2.4731170    -0.8032840     0.3122730
  C       -1.1799294     0.1154786    -0.0102403
  C        2.2731730    -0.5407160    -0.1753640
  C       -3.8468580    -0.3344400    -0.1480570
  H        0.9550610     0.8289670    -1.1997950
  H        0.0672430    -1.2232590     0.4643770
  H        1.5293690     1.3045580     1.7644240
  H        2.2851470     2.1591780     0.4026320
  H        0.5420990     2.3541860     0.7225810
  H       -2.2325720    -1.7800520    -0.1237300
  H       -2.4588320    -0.9441430     1.3993390
  H       -4.0995650     0.6270340     0.3028840
  H       -3.8738130    -0.2132220    -1.2332140
  H       -4.6116960    -1.0622230     0.1365660
units angstrom
no_reorient  #important for SAPT in psi4, default
symmetry c1  #important for SAPT in psi4, default
}

set PROPERTIES_ORIGIN ["COM"]
properties('MP2/aug-cc-pvtz', properties = ['dipole'])
--------------------------------------------------------------------------

    Molecular point group: c1
  Charge       = -1
  Multiplicity = 1
  Basis Set: AUG-CC-PVTZ
    Blend: AUG-CC-PVTZ
  Basis Set: (AUG-CC-PVTZ AUX)
    Blend: AUG-CC-PVTZ-JKFIT

    Orbital Energies [Eh]
    ---------------------

    Doubly Occupied:

       1A    -20.352226     2A    -20.337162     3A    -20.326286
       4A    -15.468195     5A    -11.204537     6A    -11.176157
       7A    -11.133581     8A    -11.131461     9A    -11.115319
      10A    -11.087732    11A     -1.243689    12A     -1.200027
      13A     -1.105610    14A     -1.097038    15A     -0.932857
      16A     -0.904851    17A     -0.782160    18A     -0.741353
      19A     -0.680229    20A     -0.602036    21A     -0.541990
      22A     -0.525514    23A     -0.513451    24A     -0.483945
      25A     -0.466767    26A     -0.444083    27A     -0.428972
      28A     -0.421536    29A     -0.415392    30A     -0.402675
      31A     -0.392286    32A     -0.378702    33A     -0.352343
      34A     -0.343457    35A     -0.261519    36A     -0.258222
      37A     -0.251087    38A     -0.236478    39A     -0.229417

  @DF-RHF Final Energy:  -512.26847325743438

   => Energetics <=

    Nuclear Repulsion Energy =            535.0323768594777221
    One-Electron Energy =               -1774.6610151965446676
    Two-Electron Energy =                 727.3601650796326794
    Total Energy =                       -512.2684732574343798
  Basis Set: (AUG-CC-PVTZ AUX)
    Blend: AUG-CC-PVTZ-RI
    Molecular point group: c1

    Geometry (in Angstrom), charge = -1, multiplicity = 1:

       Center              X                  Y                   Z               Mass
    ------------   -----------------  -----------------  -----------------  -----------------
         O           -1.699623101785     1.307748645999    -0.548855908691    15.994914619570
         O            1.921929898215    -1.709372354001     0.208585091309    15.994914619570
         O            3.283089898215    -0.039385354001    -0.525139908691    15.994914619570
         N           -0.211973101785    -0.228268354001     0.248011091309    14.003074004430
         C            0.990340898215     0.480934645999    -0.157884908691    12.000000000000
         C            1.281083898215     1.670235645999     0.751363091309    12.000000000000
         C           -2.570329101785    -0.783917354001     0.326865091309    12.000000000000
         C           -1.277141501785     0.134845245999     0.004351791309    12.000000000000
         C            2.175960898215    -0.521349354001    -0.160771908691    12.000000000000
         C           -3.944070101785    -0.315073354001    -0.133464908691    12.000000000000
         H            0.857848898215     0.848333645999    -1.185202908691     1.007825032230
         H           -0.029969101785    -1.203892354001     0.478969091309     1.007825032230
         H            1.432156898215     1.323924645999     1.779016091309     1.007825032230
         H            2.187934898215     2.178544645999     0.417224091309     1.007825032230
         H            0.444886898215     2.373552645999     0.737173091309     1.007825032230
         H           -2.329784101785    -1.760685354001    -0.109137908691     1.007825032230
         H           -2.556044101785    -0.924776354001     1.413931091309     1.007825032230
         H           -4.196777101785     0.646400645999     0.317476091309     1.007825032230
         H           -3.971025101785    -0.193855354001    -1.218621908691     1.007825032230
         H           -4.708908101785    -1.042856354001     0.151158091309     1.007825032230

  Basis Set: AUG-CC-PVTZ
    Blend: AUG-CC-PVTZ
  Basis Set: (AUG-CC-PVTZ AUX)
    Blend: AUG-CC-PVTZ-JKFIT
	 Reference Energy          =    -512.2684732574343798 [Eh]
	 Singles Energy            =      -0.0000000000000000 [Eh]
	 Same-Spin Energy          =      -0.5211979959334821 [Eh]
	 Opposite-Spin Energy      =      -1.6235639890008793 [Eh]
	 Correlation Energy        =      -2.1447619849343615 [Eh]
	 Total Energy              =    -514.4132352423687280 [Eh]

	 ================> DF-SCS-MP2 Energies <==================
	-----------------------------------------------------------
	 SCS Same-Spin Scale       =       0.3333333333333333 [-]
	 SCS Opposite-Spin Scale   =       1.2000000000000000 [-]
	 SCS Same-Spin Energy      =      -0.1737326653111607 [Eh]
	 SCS Opposite-Spin Energy  =      -1.9482767868010551 [Eh]
	 SCS Correlation Energy    =      -2.1220094521122159 [Eh]
	 SCS Total Energy          =    -514.3904827095466317 [Eh]
	-----------------------------------------------------------

  Dipole Moment: [D]
     X:    -6.8803      Y:     0.0600      Z:     2.0317     Total:     7.1743

*** Psi4 exiting successfully. Buy a developer a beer!
