                               Psi4 1.3.2 release

  ==> Input File <==

--------------------------------------------------------------------------
#psi4
#
memory 32 gb

molecule  {
-1 1
  O       -1.6024110     1.2883820    -0.5634480
  O        2.0191420    -1.7287390     0.1939930
  O        3.3803020    -0.0587520    -0.5397320
  N       -0.1147610    -0.2476350     0.2334190
  C        1.0875530     0.4615680    -0.1724770
  C        1.3782960     1.6508690     0.7367710
  C       -2.4731170    -0.8032840     0.3122730
  C       -1.3649450     0.1785500    -0.0525630
  C        2.0976144    -0.6171415    -0.1175858
  C       -3.8468580    -0.3344400    -0.1480570
  H        0.9550610     0.8289670    -1.1997950
  H        0.0672430    -1.2232590     0.4643770
  H        1.5293690     1.3045580     1.7644240
  H        2.2851470     2.1591780     0.4026320
  H        0.5420990     2.3541860     0.7225810
  H       -2.2325720    -1.7800520    -0.1237300
  H       -2.4588320    -0.9441430     1.3993390
  H       -4.0995650     0.6270340     0.3028840
  H       -3.8738130    -0.2132220    -1.2332140
  H       -4.6116960    -1.0622230     0.1365660
units angstrom
no_reorient  #important for SAPT in psi4, default
symmetry c1  #important for SAPT in psi4, default
}

set PROPERTIES_ORIGIN ["COM"]
properties('MP2/aug-cc-pvtz', properties = ['dipole'])
--------------------------------------------------------------------------

    Molecular point group: c1
  Charge       = -1
  Multiplicity = 1
  Basis Set: AUG-CC-PVTZ
    Blend: AUG-CC-PVTZ
  Basis Set: (AUG-CC-PVTZ AUX)
    Blend: AUG-CC-PVTZ-JKFIT

    Orbital Energies [Eh]
    ---------------------

    Doubly Occupied:

       1A    -20.398717     2A    -20.360868     3A    -20.269574
       4A    -15.445535     5A    -11.229859     6A    -11.160098
       7A    -11.140628     8A    -11.128426     9A    -11.123860
      10A    -11.079190    11A     -1.256597    12A     -1.245643
      13A     -1.102566    14A     -0.999273    15A     -0.954763
      16A     -0.885014    17A     -0.790936    18A     -0.739401
      19A     -0.649568    20A     -0.599133    21A     -0.548271
      22A     -0.540386    23A     -0.522718    24A     -0.495263
      25A     -0.482306    26A     -0.446927    27A     -0.427676
      28A     -0.426888    29A     -0.417512    30A     -0.405868
      31A     -0.401073    32A     -0.384262    33A     -0.377168
      34A     -0.354666    35A     -0.304929    36A     -0.263959
      37A     -0.219746    38A     -0.187583    39A     -0.178851

  @DF-RHF Final Energy:  -512.27866671968354

   => Energetics <=

    Nuclear Repulsion Energy =            534.7923922873154652
    One-Electron Energy =               -1774.2507136606839140
    Two-Electron Energy =                 727.1796546536850201
    Total Energy =                       -512.2786667196835424
  Basis Set: (AUG-CC-PVTZ AUX)
    Blend: AUG-CC-PVTZ-RI
    Molecular point group: c1

    Geometry (in Angstrom), charge = -1, multiplicity = 1:

       Center              X                  Y                   Z               Mass
    ------------   -----------------  -----------------  -----------------  -----------------
         O           -1.669589031622     1.308860977321    -0.550143276372    15.994914619570
         O            1.951963968378    -1.708260022679     0.207297723628    15.994914619570
         O            3.313123968378    -0.038273022679    -0.526427276372    15.994914619570
         N           -0.181939031622    -0.227156022679     0.246723723628    14.003074004430
         C            1.020374968378     0.482046977321    -0.159172276372    12.000000000000
         C            1.311117968378     1.671347977321     0.750075723628    12.000000000000
         C           -2.540295031622    -0.782805022679     0.325577723628    12.000000000000
         C           -1.432123031622     0.199028977321    -0.039258276372    12.000000000000
         C            2.030436368378    -0.596662522679    -0.104281076372    12.000000000000
         C           -3.914036031622    -0.313961022679    -0.134752276372    12.000000000000
         H            0.887882968378     0.849445977321    -1.186490276372     1.007825032230
         H            0.000064968378    -1.202780022679     0.477681723628     1.007825032230
         H            1.462190968378     1.325036977321     1.777728723628     1.007825032230
         H            2.217968968378     2.179656977321     0.415936723628     1.007825032230
         H            0.474920968378     2.374664977321     0.735885723628     1.007825032230
         H           -2.299750031622    -1.759573022679    -0.110425276372     1.007825032230
         H           -2.526010031622    -0.923664022679     1.412643723628     1.007825032230
         H           -4.166743031622     0.647512977321     0.316188723628     1.007825032230
         H           -3.940991031622    -0.192743022679    -1.219909276372     1.007825032230
         H           -4.678874031622    -1.041744022679     0.149870723628     1.007825032230

  Basis Set: AUG-CC-PVTZ
    Blend: AUG-CC-PVTZ
  Basis Set: (AUG-CC-PVTZ AUX)
    Blend: AUG-CC-PVTZ-JKFIT
	 Reference Energy          =    -512.2786667196835424 [Eh]
	 Singles Energy            =      -0.0000000000000000 [Eh]
	 Same-Spin Energy          =      -0.5220520829424500 [Eh]
	 Opposite-Spin Energy      =      -1.6259543758881145 [Eh]
	 Correlation Energy        =      -2.1480064588305643 [Eh]
	 Total Energy              =    -514.4266731785140792 [Eh]

	 ================> DF-SCS-MP2 Energies <==================
	-----------------------------------------------------------
	 SCS Same-Spin Scale       =       0.3333333333333333 [-]
	 SCS Opposite-Spin Scale   =       1.2000000000000000 [-]
	 SCS Same-Spin Energy      =      -0.1740173609808167 [Eh]
	 SCS Opposite-Spin Energy  =      -1.9511452510657374 [Eh]
	 SCS Correlation Energy    =      -2.1251626120465543 [Eh]
	 SCS Total Energy          =    -514.4038293317300941 [Eh]
	-----------------------------------------------------------

  Dipole Moment: [D]
     X:   -10.3546      Y:    -0.2287      Z:     2.2092     Total:    10.5901

*** Psi4 exiting successfully. Buy a developer a beer!
