                               Psi4 1.3.2 release

  ==> Input File <==

--------------------------------------------------------------------------
#psi4
#
memory 32 gb

molecule  {
-1 1
  O       -1.5434554     1.4175345    -0.5144254
  O        2.0191420    -1.7287390     0.1939930
  O        3.3803020    -0.0587520    -0.5397320
  N       -0.1147610    -0.2476350     0.2334190
  C        1.0553180     0.4220243    -0.1907458
  C        1.3782960     1.6508690     0.7367710
  C       -2.4731170    -0.8032840     0.3122730
  C       -1.3649450     0.1785500    -0.0525630
  C        2.2731730    -0.5407160    -0.1753640
  C       -3.8468580    -0.3344400    -0.1480570
  H        0.9550610     0.8289670    -1.1997950
  H        0.0672430    -1.2232590     0.4643770
  H        1.5293690     1.3045580     1.7644240
  H        2.2851470     2.1591780     0.4026320
  H        0.5420990     2.3541860     0.7225810
  H       -2.2325720    -1.7800520    -0.1237300
  H       -2.4588320    -0.9441430     1.3993390
  H       -4.0995650     0.6270340     0.3028840
  H       -3.8738130    -0.2132220    -1.2332140
  H       -4.6116960    -1.0622230     0.1365660
units angstrom
no_reorient  #important for SAPT in psi4, default
symmetry c1  #important for SAPT in psi4, default
}

set PROPERTIES_ORIGIN ["COM"]
properties('MP2/aug-cc-pvtz', properties = ['dipole'])
--------------------------------------------------------------------------

    Molecular point group: c1
  Charge       = -1
  Multiplicity = 1
  Basis Set: AUG-CC-PVTZ
    Blend: AUG-CC-PVTZ
  Basis Set: (AUG-CC-PVTZ AUX)
    Blend: AUG-CC-PVTZ-JKFIT

    Orbital Energies [Eh]
    ---------------------

    Doubly Occupied:

       1A    -20.390170     2A    -20.322684     3A    -20.314654
       4A    -15.451123     5A    -11.239480     6A    -11.162643
       7A    -11.146985     8A    -11.129279     9A    -11.113964
      10A    -11.073588    11A     -1.204521    12A     -1.187309
      13A     -1.098783    14A     -1.083187    15A     -0.957555
      16A     -0.872262    17A     -0.789221    18A     -0.724487
      19A     -0.648601    20A     -0.593145    21A     -0.544117
      22A     -0.536629    23A     -0.511721    24A     -0.470914
      25A     -0.461744    26A     -0.434160    27A     -0.429177
      28A     -0.418656    29A     -0.412706    30A     -0.399611
      31A     -0.398018    32A     -0.373773    33A     -0.366003
      34A     -0.330206    35A     -0.298178    36A     -0.254170
      37A     -0.237573    38A     -0.223490    39A     -0.216219

  @DF-RHF Final Energy:  -512.31354122149025

   => Energetics <=

    Nuclear Repulsion Energy =            531.4383648054686091
    One-Electron Energy =               -1767.8623978220098252
    Two-Electron Energy =                 724.1104917950509616
    Total Energy =                       -512.3135412214902544
  Basis Set: (AUG-CC-PVTZ AUX)
    Blend: AUG-CC-PVTZ-RI
    Molecular point group: c1

    Geometry (in Angstrom), charge = -1, multiplicity = 1:

       Center              X                  Y                   Z               Mass
    ------------   -----------------  -----------------  -----------------  -----------------
         O           -1.629117124707     1.420602265631    -0.500229059767    15.994914619570
         O            1.933480275293    -1.725671234369     0.208189340233    15.994914619570
         O            3.294640275293    -0.055684234369    -0.525535659767    15.994914619570
         N           -0.200422724707    -0.244567234369     0.247615340233    14.003074004430
         C            0.969656275293     0.425092065631    -0.176549459767    12.000000000000
         C            1.292634275293     1.653936765631     0.750967340233    12.000000000000
         C           -2.558778724707    -0.800216234369     0.326469340233    12.000000000000
         C           -1.450606724707     0.181617765631    -0.038366659767    12.000000000000
         C            2.187511275293    -0.537648234369    -0.161167659767    12.000000000000
         C           -3.932519724707    -0.331372234369    -0.133860659767    12.000000000000
         H            0.869399275293     0.832034765631    -1.185598659767     1.007825032230
         H           -0.018418724707    -1.220191234369     0.478573340233     1.007825032230
         H            1.443707275293     1.307625765631     1.778620340233     1.007825032230
         H            2.199485275293     2.162245765631     0.416828340233     1.007825032230
         H            0.456437275293     2.357253765631     0.736777340233     1.007825032230
         H           -2.318233724707    -1.776984234369    -0.109533659767     1.007825032230
         H           -2.544493724707    -0.941075234369     1.413535340233     1.007825032230
         H           -4.185226724707     0.630101765631     0.317080340233     1.007825032230
         H           -3.959474724707    -0.210154234369    -1.219017659767     1.007825032230
         H           -4.697357724707    -1.059155234369     0.150762340233     1.007825032230

  Basis Set: AUG-CC-PVTZ
    Blend: AUG-CC-PVTZ
  Basis Set: (AUG-CC-PVTZ AUX)
    Blend: AUG-CC-PVTZ-JKFIT
	 Reference Energy          =    -512.3135412214902544 [Eh]
	 Singles Energy            =      -0.0000000000000000 [Eh]
	 Same-Spin Energy          =      -0.5223832164427262 [Eh]
	 Opposite-Spin Energy      =      -1.6266517827543765 [Eh]
	 Correlation Energy        =      -2.1490349991971027 [Eh]
	 Total Energy              =    -514.4625762206873105 [Eh]

	 ================> DF-SCS-MP2 Energies <==================
	-----------------------------------------------------------
	 SCS Same-Spin Scale       =       0.3333333333333333 [-]
	 SCS Opposite-Spin Scale   =       1.2000000000000000 [-]
	 SCS Same-Spin Energy      =      -0.1741277388142421 [Eh]
	 SCS Opposite-Spin Energy  =      -1.9519821393052517 [Eh]
	 SCS Correlation Energy    =      -2.1261098781194936 [Eh]
	 SCS Total Energy          =    -514.4396510996097049 [Eh]
	-----------------------------------------------------------

  Dipole Moment: [D]
     X:    -8.7959      Y:     0.0878      Z:     1.6309     Total:     8.9462

*** Psi4 exiting successfully. Buy a developer a beer!
