                               Psi4 1.3.2 release

  ==> Input File <==

--------------------------------------------------------------------------
#psi4
#
memory 32 gb

molecule  {
-1 1
  O       -1.6024110     1.2883820    -0.5634480
  O        2.0191420    -1.7287390     0.1939930
  O        3.3803020    -0.0587520    -0.5397320
  N       -0.1147610    -0.2476350     0.2334190
  C        1.0875530     0.4615680    -0.1724770
  C        1.3782960     1.6508690     0.7367710
  C       -2.4731170    -0.8032840     0.3122730
  C       -1.3126531     0.1291430    -0.0179571
  C        2.2731730    -0.5407160    -0.1753640
  C       -3.8777375    -0.4009227    -0.1167136
  H        0.9550610     0.8289670    -1.1997950
  H        0.0672430    -1.2232590     0.4643770
  H        1.5293690     1.3045580     1.7644240
  H        2.2851470     2.1591780     0.4026320
  H        0.5420990     2.3541860     0.7225810
  H       -2.2325720    -1.7800520    -0.1237300
  H       -2.4588320    -0.9441430     1.3993390
  H       -4.0995650     0.6270340     0.3028840
  H       -3.8738130    -0.2132220    -1.2332140
  H       -4.6116960    -1.0622230     0.1365660
units angstrom
no_reorient  #important for SAPT in psi4, default
symmetry c1  #important for SAPT in psi4, default
}

set PROPERTIES_ORIGIN ["COM"]
properties('MP2/aug-cc-pvtz', properties = ['dipole'])
--------------------------------------------------------------------------

    Molecular point group: c1
  Charge       = -1
  Multiplicity = 1
  Basis Set: AUG-CC-PVTZ
    Blend: AUG-CC-PVTZ
  Basis Set: (AUG-CC-PVTZ AUX)
    Blend: AUG-CC-PVTZ-JKFIT

    Orbital Energies [Eh]
    ---------------------

    Doubly Occupied:

       1A    -20.373389     2A    -20.327830     3A    -20.318650
       4A    -15.452900     5A    -11.221013     6A    -11.167562
       7A    -11.136281     8A    -11.123388     9A    -11.122783
      10A    -11.079904    11A     -1.214259    12A     -1.192461
      13A     -1.105064    14A     -1.090225    15A     -0.947414
      16A     -0.890363    17A     -0.788035    18A     -0.732390
      19A     -0.651139    20A     -0.591131    21A     -0.545283
      22A     -0.531270    23A     -0.512054    24A     -0.479753
      25A     -0.467197    26A     -0.452473    27A     -0.427988
      28A     -0.415509    29A     -0.407937    30A     -0.397316
      31A     -0.389989    32A     -0.374099    33A     -0.368517
      34A     -0.337806    35A     -0.286320    36A     -0.260554
      37A     -0.242376    38A     -0.228709    39A     -0.220973

  @DF-RHF Final Energy:  -512.31590269493245

   => Energetics <=

    Nuclear Repulsion Energy =            533.1796933208851215
    One-Electron Energy =               -1771.2465790229130107
    Two-Electron Energy =                 725.7509830070953285
    Total Energy =                       -512.3159026949324470
  Basis Set: (AUG-CC-PVTZ AUX)
    Blend: AUG-CC-PVTZ-RI
    Molecular point group: c1

    Geometry (in Angstrom), charge = -1, multiplicity = 1:

       Center              X                  Y                   Z               Mass
    ------------   -----------------  -----------------  -----------------  -----------------
         O           -1.685995754106     1.312148152476    -0.550823889102    15.994914619570
         O            1.935557245894    -1.704972847524     0.206617110898    15.994914619570
         O            3.296717245894    -0.034985847524    -0.527107889102    15.994914619570
         N           -0.198345754106    -0.223868847524     0.246043110898    14.003074004430
         C            1.003968245894     0.485334152476    -0.159852889102    12.000000000000
         C            1.294711245894     1.674635152476     0.749395110898    12.000000000000
         C           -2.556701754106    -0.779517847524     0.324897110898    12.000000000000
         C           -1.396237854106     0.152909152476    -0.005332989102    12.000000000000
         C            2.189588245894    -0.516949847524    -0.162739889102    12.000000000000
         C           -3.961322254106    -0.377156547524    -0.104089489102    12.000000000000
         H            0.871476245894     0.852733152476    -1.187170889102     1.007825032230
         H           -0.016341754106    -1.199492847524     0.477001110898     1.007825032230
         H            1.445784245894     1.328324152476     1.777048110898     1.007825032230
         H            2.201562245894     2.182944152476     0.415256110898     1.007825032230
         H            0.458514245894     2.377952152476     0.735205110898     1.007825032230
         H           -2.316156754106    -1.756285847524    -0.111105889102     1.007825032230
         H           -2.542416754106    -0.920376847524     1.411963110898     1.007825032230
         H           -4.183149754106     0.650800152476     0.315508110898     1.007825032230
         H           -3.957397754106    -0.189455847524    -1.220589889102     1.007825032230
         H           -4.695280754106    -1.038456847524     0.149190110898     1.007825032230

  Basis Set: AUG-CC-PVTZ
    Blend: AUG-CC-PVTZ
  Basis Set: (AUG-CC-PVTZ AUX)
    Blend: AUG-CC-PVTZ-JKFIT
	 Reference Energy          =    -512.3159026949324470 [Eh]
	 Singles Energy            =      -0.0000000000000000 [Eh]
	 Same-Spin Energy          =      -0.5212313610516650 [Eh]
	 Opposite-Spin Energy      =      -1.6236012981452697 [Eh]
	 Correlation Energy        =      -2.1448326591969344 [Eh]
	 Total Energy              =    -514.4607353541293833 [Eh]

	 ================> DF-SCS-MP2 Energies <==================
	-----------------------------------------------------------
	 SCS Same-Spin Scale       =       0.3333333333333333 [-]
	 SCS Opposite-Spin Scale   =       1.2000000000000000 [-]
	 SCS Same-Spin Energy      =      -0.1737437870172217 [Eh]
	 SCS Opposite-Spin Energy  =      -1.9483215577743236 [Eh]
	 SCS Correlation Energy    =      -2.1220653447915452 [Eh]
	 SCS Total Energy          =    -514.4379680397239554 [Eh]
	-----------------------------------------------------------

  Dipole Moment: [D]
     X:    -8.0663      Y:     0.2269      Z:     1.8546     Total:     8.2798

*** Psi4 exiting successfully. Buy a developer a beer!
