                               Psi4 1.3.2 release

  ==> Input File <==

--------------------------------------------------------------------------
#psi4
#
memory 32 gb

molecule  {
-1 1
  O       -1.6024110     1.2883820    -0.5634480
  O        2.0191420    -1.7287390     0.1939930
  O        3.3803020    -0.0587520    -0.5397320
  N       -0.1147610    -0.2476350     0.2334190
  C        1.0875530     0.4615680    -0.1724770
  C        1.3782960     1.6508690     0.7367710
  C       -2.4731170    -0.8032840     0.3122730
  C       -1.2195961     0.3073283    -0.1004152
  C        2.2731730    -0.5407160    -0.1753640
  C       -3.8468580    -0.3344400    -0.1480570
  H        0.9550610     0.8289670    -1.1997950
  H        0.0672430    -1.2232590     0.4643770
  H        1.5293690     1.3045580     1.7644240
  H        2.2851470     2.1591780     0.4026320
  H        0.5420990     2.3541860     0.7225810
  H       -2.2325720    -1.7800520    -0.1237300
  H       -2.4588320    -0.9441430     1.3993390
  H       -4.0995650     0.6270340     0.3028840
  H       -3.8738130    -0.2132220    -1.2332140
  H       -4.6116960    -1.0622230     0.1365660
units angstrom
no_reorient  #important for SAPT in psi4, default
symmetry c1  #important for SAPT in psi4, default
}

set PROPERTIES_ORIGIN ["COM"]
properties('MP2/aug-cc-pvtz', properties = ['dipole'])
--------------------------------------------------------------------------

    Molecular point group: c1
  Charge       = -1
  Multiplicity = 1
  Basis Set: AUG-CC-PVTZ
    Blend: AUG-CC-PVTZ
  Basis Set: (AUG-CC-PVTZ AUX)
    Blend: AUG-CC-PVTZ-JKFIT

    Orbital Energies [Eh]
    ---------------------

    Doubly Occupied:

       1A    -20.404716     2A    -20.328560     3A    -20.318290
       4A    -15.444334     5A    -11.219707     6A    -11.166879
       7A    -11.119264     8A    -11.111830     9A    -11.110765
      10A    -11.083173    11A     -1.306584    12A     -1.197253
      13A     -1.129626    14A     -1.093088    15A     -0.917193
      16A     -0.884950    17A     -0.761938    18A     -0.718162
      19A     -0.665878    20A     -0.586473    21A     -0.549976
      22A     -0.531019    23A     -0.513060    24A     -0.491865
      25A     -0.474398    26A     -0.457074    27A     -0.428078
      28A     -0.420797    29A     -0.409970    30A     -0.407465
      31A     -0.393643    32A     -0.380193    33A     -0.377762
      34A     -0.352323    35A     -0.277122    36A     -0.258630
      37A     -0.243317    38A     -0.225396    39A     -0.221254

  @DF-RHF Final Energy:  -512.30336917228124

   => Energetics <=

    Nuclear Repulsion Energy =            535.1973551752535059
    One-Electron Energy =               -1775.0374350033780502
    Two-Electron Energy =                 727.5367106558433079
    Total Energy =                       -512.3033691722812364
  Basis Set: (AUG-CC-PVTZ AUX)
    Blend: AUG-CC-PVTZ-RI
    Molecular point group: c1

    Geometry (in Angstrom), charge = -1, multiplicity = 1:

       Center              X                  Y                   Z               Mass
    ------------   -----------------  -----------------  -----------------  -----------------
         O           -1.696319059369     1.291768502798    -0.541344779849    15.994914619570
         O            1.925233940631    -1.725352497202     0.216096220151    15.994914619570
         O            3.286393940631    -0.055365497202    -0.517628779849    15.994914619570
         N           -0.208669059369    -0.244248497202     0.255522220151    14.003074004430
         C            0.993644940631     0.464954502798    -0.150373779849    12.000000000000
         C            1.284387940631     1.654255502798     0.758874220151    12.000000000000
         C           -2.567025059369    -0.799897497202     0.334376220151    12.000000000000
         C           -1.313504159369     0.310714802798    -0.078311979849    12.000000000000
         C            2.179264940631    -0.537329497202    -0.153260779849    12.000000000000
         C           -3.940766059369    -0.331053497202    -0.125953779849    12.000000000000
         H            0.861152940631     0.832353502798    -1.177691779849     1.007825032230
         H           -0.026665059369    -1.219872497202     0.486480220151     1.007825032230
         H            1.435460940631     1.307944502798     1.786527220151     1.007825032230
         H            2.191238940631     2.162564502798     0.424735220151     1.007825032230
         H            0.448190940631     2.357572502798     0.744684220151     1.007825032230
         H           -2.326480059369    -1.776665497202    -0.101626779849     1.007825032230
         H           -2.552740059369    -0.940756497202     1.421442220151     1.007825032230
         H           -4.193473059369     0.630420502798     0.324987220151     1.007825032230
         H           -3.967721059369    -0.209835497202    -1.211110779849     1.007825032230
         H           -4.705604059369    -1.058836497202     0.158669220151     1.007825032230

  Basis Set: AUG-CC-PVTZ
    Blend: AUG-CC-PVTZ
  Basis Set: (AUG-CC-PVTZ AUX)
    Blend: AUG-CC-PVTZ-JKFIT
	 Reference Energy          =    -512.3033691722812364 [Eh]
	 Singles Energy            =      -0.0000000000000000 [Eh]
	 Same-Spin Energy          =      -0.5194207198617596 [Eh]
	 Opposite-Spin Energy      =      -1.6194205048733110 [Eh]
	 Correlation Energy        =      -2.1388412247350708 [Eh]
	 Total Energy              =    -514.4422103970163107 [Eh]

	 ================> DF-SCS-MP2 Energies <==================
	-----------------------------------------------------------
	 SCS Same-Spin Scale       =       0.3333333333333333 [-]
	 SCS Opposite-Spin Scale   =       1.2000000000000000 [-]
	 SCS Same-Spin Energy      =      -0.1731402399539199 [Eh]
	 SCS Opposite-Spin Energy  =      -1.9433046058479730 [Eh]
	 SCS Correlation Energy    =      -2.1164448458018930 [Eh]
	 SCS Total Energy          =    -514.4198140180831160 [Eh]
	-----------------------------------------------------------

  Dipole Moment: [D]
     X:    -7.5557      Y:     1.4492      Z:     1.3204     Total:     7.8059

*** Psi4 exiting successfully. Buy a developer a beer!
