                               Psi4 1.4a3.dev225

  ==> Input File <==

--------------------------------------------------------------------------
#psi4
#
memory 32 gb

molecule  {
-1 1
  O       -1.5868420     1.2523650    -0.8113290
  O        2.0299390    -1.6922460     0.2543140
  O        3.4074630     0.0142020    -0.3584910
  N       -0.1383540    -0.2870410     0.0455440
  C        1.0782140     0.4735880    -0.1782270
  C        1.2275190     1.6106150     0.8299030
  C       -2.4816390    -0.8906360    -0.1487800
  C       -1.3641120     0.1217370    -0.3343690
  C        2.3010867    -0.5101398    -0.0912665
  C       -3.7126180    -0.2515540     0.4884160
  H        1.0494870     0.8996880    -1.1894520
  H        0.0515970    -1.2513350     0.3145600
  H        1.2660770     1.2028380     1.8451460
  H        2.1536960     2.1558630     0.6353850
  H        0.3800930     2.2967220     0.7589720
  H       -2.7387560    -1.2794370    -1.1416750
  H       -2.1327770    -1.7398080     0.4477120
  H       -3.4838230     0.1112750     1.4946450
  H       -4.0489630     0.5957980    -0.1116680
  H       -4.5299760    -0.9736440     0.5641870
units angstrom
no_reorient  #important for SAPT in psi4, default
symmetry c1  #important for SAPT in psi4, default
}

set PROPERTIES_ORIGIN ["COM"]
properties('MP2/aug-cc-pvtz', properties = ['dipole'])
--------------------------------------------------------------------------

    Molecular point group: c1
  Charge       = -1
  Multiplicity = 1
  Basis Set: AUG-CC-PVTZ
    Blend: AUG-CC-PVTZ
  Basis Set: (AUG-CC-PVTZ AUX)
    Blend: AUG-CC-PVTZ-JKFIT

    Orbital Energies [Eh]
    ---------------------

    Doubly Occupied:

       1A    -20.386493     2A    -20.324311     3A    -20.315845
       4A    -15.441334     5A    -11.221557     6A    -11.162768
       7A    -11.133984     8A    -11.126877     9A    -11.113298
      10A    -11.075981    11A     -1.237666    12A     -1.196278
      13A     -1.101799    14A     -1.084707    15A     -0.949688
      16A     -0.876748    17A     -0.783192    18A     -0.721594
      19A     -0.641806    20A     -0.586701    21A     -0.545713
      22A     -0.522570    23A     -0.512966    24A     -0.483250
      25A     -0.463004    26A     -0.442190    27A     -0.434473
      28A     -0.421561    29A     -0.411195    30A     -0.406645
      31A     -0.395089    32A     -0.375314    33A     -0.370445
      34A     -0.342914    35A     -0.296154    36A     -0.257715
      37A     -0.240598    38A     -0.222325    39A     -0.217205

  @DF-RHF Final Energy:  -512.33774866610520

   => Energetics <=

    Nuclear Repulsion Energy =            534.2267345050539689
    One-Electron Energy =               -1773.4410611926623460
    Two-Electron Energy =                 726.8765780215030645
    Total Energy =                       -512.3377486661051989
  Basis Set: (AUG-CC-PVTZ AUX)
    Blend: AUG-CC-PVTZ-RI
    Molecular point group: c1

    Geometry (in Angstrom), charge = -1, multiplicity = 1:

       Center              X                  Y                   Z               Mass
    ------------   -----------------  -----------------  -----------------  -----------------
         O           -1.670872190986     1.267296223228    -0.786538673931    15.994914619570
         O            1.945908809014    -1.677314776772     0.279104326069    15.994914619570
         O            3.323432809014     0.029133223228    -0.333700673931    15.994914619570
         N           -0.222384190986    -0.272109776772     0.070334326069    14.003074004430
         C            0.994183809014     0.488519223228    -0.153436673931    12.000000000000
         C            1.143488809014     1.625546223228     0.854693326069    12.000000000000
         C           -2.565669190986    -0.875704776772    -0.123989673931    12.000000000000
         C           -1.448142190986     0.136668223228    -0.309578673931    12.000000000000
         C            2.217056509014    -0.495208576772    -0.066476173931    12.000000000000
         C           -3.796648190986    -0.236622776772     0.513206326069    12.000000000000
         H            0.965456809014     0.914619223228    -1.164661673931     1.007825032230
         H           -0.032433190986    -1.236403776772     0.339350326069     1.007825032230
         H            1.182046809014     1.217769223228     1.869936326069     1.007825032230
         H            2.069665809014     2.170794223228     0.660175326069     1.007825032230
         H            0.296062809014     2.311653223228     0.783762326069     1.007825032230
         H           -2.822786190986    -1.264505776772    -1.116884673931     1.007825032230
         H           -2.216807190986    -1.724876776772     0.472502326069     1.007825032230
         H           -3.567853190986     0.126206223228     1.519435326069     1.007825032230
         H           -4.132993190986     0.610729223228    -0.086877673931     1.007825032230
         H           -4.614006190986    -0.958712776772     0.588977326069     1.007825032230

  Basis Set: AUG-CC-PVTZ
    Blend: AUG-CC-PVTZ
  Basis Set: (AUG-CC-PVTZ AUX)
    Blend: AUG-CC-PVTZ-JKFIT
	 Reference Energy          =    -512.3377486661051989 [Eh]
	 Singles Energy            =      -0.0000000000000000 [Eh]
	 Same-Spin Energy          =      -0.5201323922984010 [Eh]
	 Opposite-Spin Energy      =      -1.6210776367919058 [Eh]
	 Correlation Energy        =      -2.1412100290903067 [Eh]
	 Total Energy              =    -514.4789586951955016 [Eh]

	 ================> DF-SCS-MP2 Energies <==================
	-----------------------------------------------------------
	 SCS Same-Spin Scale       =       0.3333333333333333 [-]
	 SCS Opposite-Spin Scale   =       1.2000000000000000 [-]
	 SCS Same-Spin Energy      =      -0.1733774640994670 [Eh]
	 SCS Opposite-Spin Energy  =      -1.9452931641502869 [Eh]
	 SCS Correlation Energy    =      -2.1186706282497538 [Eh]
	 SCS Total Energy          =    -514.4564192943549870 [Eh]
	-----------------------------------------------------------

  Dipole Moment: [D]
     X:    -8.5347      Y:     0.2979      Z:     1.2251     Total:     8.6274

*** Psi4 exiting successfully. Buy a developer a beer!
