                               Psi4 1.3.2 release

  ==> Input File <==

--------------------------------------------------------------------------
#psi4
#
memory 32 gb

molecule  {
-1 1
  O       -1.6024110     1.2883820    -0.5634480
  O        2.0191420    -1.7287390     0.1939930
  O        3.3803020    -0.0587520    -0.5397320
  N       -0.1147610    -0.2476350     0.2334190
  C        1.0875530     0.4615680    -0.1724770
  C        1.3782960     1.6508690     0.7367710
  C       -2.4731170    -0.8032840     0.3122730
  C       -1.3649450     0.1785500    -0.0525630
  C        2.2618831    -0.5510052    -0.0955325
  C       -3.8468580    -0.3344400    -0.1480570
  H        0.9113301     0.8612874    -1.1809850
  H        0.0672430    -1.2232590     0.4643770
  H        1.5293690     1.3045580     1.7644240
  H        2.2851470     2.1591780     0.4026320
  H        0.5420990     2.3541860     0.7225810
  H       -2.2325720    -1.7800520    -0.1237300
  H       -2.4588320    -0.9441430     1.3993390
  H       -4.0995650     0.6270340     0.3028840
  H       -3.8738130    -0.2132220    -1.2332140
  H       -4.6116960    -1.0622230     0.1365660
units angstrom
no_reorient  #important for SAPT in psi4, default
symmetry c1  #important for SAPT in psi4, default
}

set PROPERTIES_ORIGIN ["COM"]
properties('MP2/aug-cc-pvtz', properties = ['dipole'])
--------------------------------------------------------------------------

    Molecular point group: c1
  Charge       = -1
  Multiplicity = 1
  Basis Set: AUG-CC-PVTZ
    Blend: AUG-CC-PVTZ
  Basis Set: (AUG-CC-PVTZ AUX)
    Blend: AUG-CC-PVTZ-JKFIT

    Orbital Energies [Eh]
    ---------------------

    Doubly Occupied:

       1A    -20.392888     2A    -20.332344     3A    -20.304924
       4A    -15.438713     5A    -11.224400     6A    -11.163099
       7A    -11.136149     8A    -11.124955     9A    -11.115509
      10A    -11.074227    11A     -1.242812    12A     -1.198576
      13A     -1.090537    14A     -1.079180    15A     -0.950147
      16A     -0.878782    17A     -0.784615    18A     -0.719917
      19A     -0.640336    20A     -0.590881    21A     -0.542628
      22A     -0.534421    23A     -0.512945    24A     -0.484307
      25A     -0.468295    26A     -0.439189    27A     -0.424817
      28A     -0.419023    29A     -0.412498    30A     -0.403953
      31A     -0.397758    32A     -0.376936    33A     -0.369661
      34A     -0.343546    35A     -0.300007    36A     -0.257304
      37A     -0.239427    38A     -0.218947    39A     -0.211397

  @DF-RHF Final Energy:  -512.32925136544520

   => Energetics <=

    Nuclear Repulsion Energy =            533.5929824060225428
    One-Electron Energy =               -1772.1643644000423592
    Two-Electron Energy =                 726.2421306285745004
    Total Energy =                       -512.3292513654452023
  Basis Set: (AUG-CC-PVTZ AUX)
    Blend: AUG-CC-PVTZ-RI
    Molecular point group: c1

    Geometry (in Angstrom), charge = -1, multiplicity = 1:

       Center              X                  Y                   Z               Mass
    ------------   -----------------  -----------------  -----------------  -----------------
         O           -1.682965889397     1.303126046684    -0.552111795347    15.994914619570
         O            1.938587110603    -1.713994953316     0.205329204653    15.994914619570
         O            3.299747110603    -0.044007953316    -0.528395795347    15.994914619570
         N           -0.195315889397    -0.232890953316     0.244755204653    14.003074004430
         C            1.006998110603     0.476312046684    -0.161140795347    12.000000000000
         C            1.297741110603     1.665613046684     0.748107204653    12.000000000000
         C           -2.553671889397    -0.788539953316     0.323609204653    12.000000000000
         C           -1.445499889397     0.193294046684    -0.041226795347    12.000000000000
         C            2.181328210603    -0.536261153316    -0.084196295347    12.000000000000
         C           -3.927412889397    -0.319695953316    -0.136720795347    12.000000000000
         H            0.830775210603     0.876031446684    -1.169648795347     1.007825032230
         H           -0.013311889397    -1.208514953316     0.475713204653     1.007825032230
         H            1.448814110603     1.319302046684     1.775760204653     1.007825032230
         H            2.204592110603     2.173922046684     0.413968204653     1.007825032230
         H            0.461544110603     2.368930046684     0.733917204653     1.007825032230
         H           -2.313126889397    -1.765307953316    -0.112393795347     1.007825032230
         H           -2.539386889397    -0.929398953316     1.410675204653     1.007825032230
         H           -4.180119889397     0.641778046684     0.314220204653     1.007825032230
         H           -3.954367889397    -0.198477953316    -1.221877795347     1.007825032230
         H           -4.692250889397    -1.047478953316     0.147902204653     1.007825032230

  Basis Set: AUG-CC-PVTZ
    Blend: AUG-CC-PVTZ
  Basis Set: (AUG-CC-PVTZ AUX)
    Blend: AUG-CC-PVTZ-JKFIT
	 Reference Energy          =    -512.3292513654452023 [Eh]
	 Singles Energy            =      -0.0000000000000000 [Eh]
	 Same-Spin Energy          =      -0.5205410539240083 [Eh]
	 Opposite-Spin Energy      =      -1.6221885990334299 [Eh]
	 Correlation Energy        =      -2.1427296529574384 [Eh]
	 Total Energy              =    -514.4719810184026301 [Eh]

	 ================> DF-SCS-MP2 Energies <==================
	-----------------------------------------------------------
	 SCS Same-Spin Scale       =       0.3333333333333333 [-]
	 SCS Opposite-Spin Scale   =       1.2000000000000000 [-]
	 SCS Same-Spin Energy      =      -0.1735136846413361 [Eh]
	 SCS Opposite-Spin Energy  =      -1.9466263188401158 [Eh]
	 SCS Correlation Energy    =      -2.1201400034814517 [Eh]
	 SCS Total Energy          =    -514.4493913689266265 [Eh]
	-----------------------------------------------------------

  Dipole Moment: [D]
     X:    -8.9570      Y:     0.3599      Z:     1.7605     Total:     9.1355

*** Psi4 exiting successfully. Buy a developer a beer!
