                               Psi4 1.4a3.dev225

  ==> Input File <==

--------------------------------------------------------------------------
#psi4
#
memory 32 gb

molecule  {
-1 1
  O       -1.5868420     1.2523650    -0.8113290
  O        2.0299390    -1.6922460     0.2543140
  O        3.4074630     0.0142020    -0.3584910
  N       -0.1383540    -0.2870410     0.0455440
  C        1.0782140     0.4735880    -0.1782270
  C        1.2275190     1.6106150     0.8299030
  C       -2.4816390    -0.8906360    -0.1487800
  C       -1.3641120     0.1217370    -0.3343690
  C        2.2855270    -0.4976230    -0.0923730
  C       -3.7126180    -0.2515540     0.4884160
  H        1.0481785     0.9190966    -1.2355128
  H        0.0515970    -1.2513350     0.3145600
  H        1.2660770     1.2028380     1.8451460
  H        2.1536960     2.1558630     0.6353850
  H        0.3800930     2.2967220     0.7589720
  H       -2.7387560    -1.2794370    -1.1416750
  H       -2.1327770    -1.7398080     0.4477120
  H       -3.4838230     0.1112750     1.4946450
  H       -4.0489630     0.5957980    -0.1116680
  H       -4.5299760    -0.9736440     0.5641870
units angstrom
no_reorient  #important for SAPT in psi4, default
symmetry c1  #important for SAPT in psi4, default
}

set PROPERTIES_ORIGIN ["COM"]
properties('MP2/aug-cc-pvtz', properties = ['dipole'])
--------------------------------------------------------------------------

    Molecular point group: c1
  Charge       = -1
  Multiplicity = 1
  Basis Set: AUG-CC-PVTZ
    Blend: AUG-CC-PVTZ
  Basis Set: (AUG-CC-PVTZ AUX)
    Blend: AUG-CC-PVTZ-JKFIT

    Orbital Energies [Eh]
    ---------------------

    Doubly Occupied:

       1A    -20.387551     2A    -20.323614     3A    -20.314772
       4A    -15.442917     5A    -11.222606     6A    -11.163335
       7A    -11.134685     8A    -11.127422     9A    -11.121422
      10A    -11.077913    11A     -1.238669    12A     -1.191569
      13A     -1.098377    14A     -1.082674    15A     -0.950412
      16A     -0.878292    17A     -0.784227    18A     -0.723796
      19A     -0.641291    20A     -0.588854    21A     -0.547143
      22A     -0.522828    23A     -0.509766    24A     -0.483477
      25A     -0.463342    26A     -0.442551    27A     -0.434961
      28A     -0.419123    29A     -0.411731    30A     -0.406229
      31A     -0.395464    32A     -0.375861    33A     -0.368145
      34A     -0.338428    35A     -0.296833    36A     -0.258140
      37A     -0.238220    38A     -0.223840    39A     -0.216342

  @DF-RHF Final Energy:  -512.33416128302395

   => Energetics <=

    Nuclear Repulsion Energy =            534.0641670664108460
    One-Electron Energy =               -1773.1030197145512375
    Two-Electron Energy =                 726.7046913651164459
    Total Energy =                       -512.3341612830239455
  Basis Set: (AUG-CC-PVTZ AUX)
    Blend: AUG-CC-PVTZ-RI
    Molecular point group: c1

    Geometry (in Angstrom), charge = -1, multiplicity = 1:

       Center              X                  Y                   Z               Mass
    ------------   -----------------  -----------------  -----------------  -----------------
         O           -1.669566990245     1.266117860584    -0.786124286088    15.994914619570
         O            1.947214009755    -1.678493139416     0.279518713912    15.994914619570
         O            3.324738009755     0.027954860584    -0.333286286088    15.994914619570
         N           -0.221078990245    -0.273288139416     0.070748713912    14.003074004430
         C            0.995489009755     0.487340860584    -0.153022286088    12.000000000000
         C            1.144794009755     1.624367860584     0.855107713912    12.000000000000
         C           -2.564363990245    -0.876883139416    -0.123575286088    12.000000000000
         C           -1.446836990245     0.135489860584    -0.309164286088    12.000000000000
         C            2.202802009755    -0.483870139416    -0.067168286088    12.000000000000
         C           -3.795342990245    -0.237801139416     0.513620713912    12.000000000000
         H            0.965453509755     0.932849460584    -1.210308086088     1.007825032230
         H           -0.031127990245    -1.237582139416     0.339764713912     1.007825032230
         H            1.183352009755     1.216590860584     1.870350713912     1.007825032230
         H            2.070971009755     2.169615860584     0.660589713912     1.007825032230
         H            0.297368009755     2.310474860584     0.784176713912     1.007825032230
         H           -2.821480990245    -1.265684139416    -1.116470286088     1.007825032230
         H           -2.215501990245    -1.726055139416     0.472916713912     1.007825032230
         H           -3.566547990245     0.125027860584     1.519849713912     1.007825032230
         H           -4.131687990245     0.609550860584    -0.086463286088     1.007825032230
         H           -4.612700990245    -0.959891139416     0.589391713912     1.007825032230

  Basis Set: AUG-CC-PVTZ
    Blend: AUG-CC-PVTZ
  Basis Set: (AUG-CC-PVTZ AUX)
    Blend: AUG-CC-PVTZ-JKFIT
	 Reference Energy          =    -512.3341612830239455 [Eh]
	 Singles Energy            =      -0.0000000000000000 [Eh]
	 Same-Spin Energy          =      -0.5205411855281527 [Eh]
	 Opposite-Spin Energy      =      -1.6222099751166199 [Eh]
	 Correlation Energy        =      -2.1427511606447727 [Eh]
	 Total Energy              =    -514.4769124436687662 [Eh]

	 ================> DF-SCS-MP2 Energies <==================
	-----------------------------------------------------------
	 SCS Same-Spin Scale       =       0.3333333333333333 [-]
	 SCS Opposite-Spin Scale   =       1.2000000000000000 [-]
	 SCS Same-Spin Energy      =      -0.1735137285093842 [Eh]
	 SCS Opposite-Spin Energy  =      -1.9466519701399438 [Eh]
	 SCS Correlation Energy    =      -2.1201656986493282 [Eh]
	 SCS Total Energy          =    -514.4543269816732618 [Eh]
	-----------------------------------------------------------

  Dipole Moment: [D]
     X:    -8.6577      Y:     0.3726      Z:     1.2493     Total:     8.7553

*** Psi4 exiting successfully. Buy a developer a beer!
