                               Psi4 1.3.2 release

  ==> Input File <==

--------------------------------------------------------------------------
#psi4
#
memory 32 gb

molecule  {
-1 1
  O       -1.5735191     1.3532467    -0.5389921
  O        2.0191420    -1.7287390     0.1939930
  O        3.3803020    -0.0587520    -0.5397320
  N       -0.1147610    -0.2476350     0.2334190
  C        1.0712524     0.4419458    -0.1816124
  C        1.3782960     1.6508690     0.7367710
  C       -2.4731170    -0.8032840     0.3122730
  C       -1.3649450     0.1785500    -0.0525630
  C        2.2731730    -0.5407160    -0.1753640
  C       -3.8468580    -0.3344400    -0.1480570
  H        0.9550610     0.8289670    -1.1997950
  H        0.0672430    -1.2232590     0.4643770
  H        1.5293690     1.3045580     1.7644240
  H        2.2851470     2.1591780     0.4026320
  H        0.5420990     2.3541860     0.7225810
  H       -2.2325720    -1.7800520    -0.1237300
  H       -2.4588320    -0.9441430     1.3993390
  H       -4.0995650     0.6270340     0.3028840
  H       -3.8738130    -0.2132220    -1.2332140
  H       -4.6116960    -1.0622230     0.1365660
units angstrom
no_reorient  #important for SAPT in psi4, default
symmetry c1  #important for SAPT in psi4, default
}

set PROPERTIES_ORIGIN ["COM"]
properties('MP2/aug-cc-pvtz', properties = ['dipole'])
--------------------------------------------------------------------------

    Molecular point group: c1
  Charge       = -1
  Multiplicity = 1
  Basis Set: AUG-CC-PVTZ
    Blend: AUG-CC-PVTZ
  Basis Set: (AUG-CC-PVTZ AUX)
    Blend: AUG-CC-PVTZ-JKFIT

    Orbital Energies [Eh]
    ---------------------

    Doubly Occupied:

       1A    -20.391114     2A    -20.322447     3A    -20.314162
       4A    -15.444422     5A    -11.231747     6A    -11.162212
       7A    -11.141357     8A    -11.126829     9A    -11.114242
      10A    -11.074601    11A     -1.219981    12A     -1.190155
      13A     -1.098340    14A     -1.082628    15A     -0.953431
      16A     -0.875021    17A     -0.786774    18A     -0.722673
      19A     -0.643955    20A     -0.590500    21A     -0.542716
      22A     -0.534649    23A     -0.511179    24A     -0.476624
      25A     -0.463824    26A     -0.436019    27A     -0.427315
      28A     -0.418661    29A     -0.413553    30A     -0.401360
      31A     -0.397815    32A     -0.373892    33A     -0.368520
      34A     -0.336837    35A     -0.299671    36A     -0.255862
      37A     -0.237211    38A     -0.223307    39A     -0.215903

  @DF-RHF Final Energy:  -512.32782097534675

   => Energetics <=

    Nuclear Repulsion Energy =            532.4157018205540908
    One-Electron Energy =               -1769.8440281169766877
    Two-Electron Energy =                 725.1005053210759570
    Total Energy =                       -512.3278209753467536
  Basis Set: (AUG-CC-PVTZ AUX)
    Blend: AUG-CC-PVTZ-RI
    Molecular point group: c1

    Geometry (in Angstrom), charge = -1, multiplicity = 1:

       Center              X                  Y                   Z               Mass
    ------------   -----------------  -----------------  -----------------  -----------------
         O           -1.657170264426     1.361792645761    -0.522829013034    15.994914619570
         O            1.935490835574    -1.720193054239     0.210156086966    15.994914619570
         O            3.296650835574    -0.050206054239    -0.523568913034    15.994914619570
         N           -0.198412164426    -0.239089054239     0.249582086966    14.003074004430
         C            0.987601235574     0.450491745761    -0.165449313034    12.000000000000
         C            1.294644835574     1.659414945761     0.752934086966    12.000000000000
         C           -2.556768164426    -0.794738054239     0.328436086966    12.000000000000
         C           -1.448596164426     0.187095945761    -0.036399913034    12.000000000000
         C            2.189521835574    -0.532170054239    -0.159200913034    12.000000000000
         C           -3.930509164426    -0.325894054239    -0.131893913034    12.000000000000
         H            0.871409835574     0.837512945761    -1.183631913034     1.007825032230
         H           -0.016408164426    -1.214713054239     0.480540086966     1.007825032230
         H            1.445717835574     1.313103945761     1.780587086966     1.007825032230
         H            2.201495835574     2.167723945761     0.418795086966     1.007825032230
         H            0.458447835574     2.362731945761     0.738744086966     1.007825032230
         H           -2.316223164426    -1.771506054239    -0.107566913034     1.007825032230
         H           -2.542483164426    -0.935597054239     1.415502086966     1.007825032230
         H           -4.183216164426     0.635579945761     0.319047086966     1.007825032230
         H           -3.957464164426    -0.204676054239    -1.217050913034     1.007825032230
         H           -4.695347164426    -1.053677054239     0.152729086966     1.007825032230

  Basis Set: AUG-CC-PVTZ
    Blend: AUG-CC-PVTZ
  Basis Set: (AUG-CC-PVTZ AUX)
    Blend: AUG-CC-PVTZ-JKFIT
	 Reference Energy          =    -512.3278209753467536 [Eh]
	 Singles Energy            =      -0.0000000000000000 [Eh]
	 Same-Spin Energy          =      -0.5212130577415243 [Eh]
	 Opposite-Spin Energy      =      -1.6238688683226556 [Eh]
	 Correlation Energy        =      -2.1450819260641798 [Eh]
	 Total Energy              =    -514.4729029014109756 [Eh]

	 ================> DF-SCS-MP2 Energies <==================
	-----------------------------------------------------------
	 SCS Same-Spin Scale       =       0.3333333333333333 [-]
	 SCS Opposite-Spin Scale   =       1.2000000000000000 [-]
	 SCS Same-Spin Energy      =      -0.1737376859138414 [Eh]
	 SCS Opposite-Spin Energy  =      -1.9486426419871867 [Eh]
	 SCS Correlation Energy    =      -2.1223803279010283 [Eh]
	 SCS Total Energy          =    -514.4502013032478089 [Eh]
	-----------------------------------------------------------

  Dipole Moment: [D]
     X:    -8.7434      Y:     0.3543      Z:     1.6182     Total:     8.8989

*** Psi4 exiting successfully. Buy a developer a beer!
