                               Psi4 1.3.2 release

  ==> Input File <==

--------------------------------------------------------------------------
#psi4
#
memory 32 gb

molecule  {
-1 1
  O       -1.6024110     1.2883820    -0.5634480
  O        2.0191420    -1.7287390     0.1939930
  O        3.3803020    -0.0587520    -0.5397320
  N       -0.1147610    -0.2476350     0.2334190
  C        1.0875530     0.4615680    -0.1724770
  C        1.3782960     1.6508690     0.7367710
  C       -2.4731170    -0.8032840     0.3122730
  C       -1.3649450     0.1785500    -0.0525630
  C        2.2731730    -0.5407160    -0.1753640
  C       -3.8468580    -0.3344400    -0.1480570
  H        0.9550610     0.8289670    -1.1997950
  H        0.0315200    -1.0317677     0.4190455
  H        1.5293690     1.3045580     1.7644240
  H        2.2851470     2.1591780     0.4026320
  H        0.5420990     2.3541860     0.7225810
  H       -2.2325720    -1.7800520    -0.1237300
  H       -2.4588320    -0.9441430     1.3993390
  H       -4.0995650     0.6270340     0.3028840
  H       -3.8738130    -0.2132220    -1.2332140
  H       -4.6116960    -1.0622230     0.1365660
units angstrom
no_reorient  #important for SAPT in psi4, default
symmetry c1  #important for SAPT in psi4, default
}

set PROPERTIES_ORIGIN ["COM"]
properties('MP2/aug-cc-pvtz', properties = ['dipole'])
--------------------------------------------------------------------------

    Molecular point group: c1
  Charge       = -1
  Multiplicity = 1
  Basis Set: AUG-CC-PVTZ
    Blend: AUG-CC-PVTZ
  Basis Set: (AUG-CC-PVTZ AUX)
    Blend: AUG-CC-PVTZ-JKFIT

    Orbital Energies [Eh]
    ---------------------

    Doubly Occupied:

       1A    -20.395419     2A    -20.318876     3A    -20.312122
       4A    -15.421812     5A    -11.227471     6A    -11.160336
       7A    -11.137783     8A    -11.126209     9A    -11.114908
      10A    -11.076012    11A     -1.247145    12A     -1.189177
      13A     -1.121955    14A     -1.084562    15A     -0.951787
      16A     -0.883384    17A     -0.790698    18A     -0.722310
      19A     -0.689302    20A     -0.595010    21A     -0.543828
      22A     -0.535371    23A     -0.514105    24A     -0.487592
      25A     -0.467137    26A     -0.443525    27A     -0.428466
      28A     -0.420257    29A     -0.415278    30A     -0.403790
      31A     -0.397720    32A     -0.380251    33A     -0.371897
      34A     -0.341238    35A     -0.303034    36A     -0.262489
      37A     -0.234604    38A     -0.221547    39A     -0.213528

  @DF-RHF Final Energy:  -512.29370833642008

   => Energetics <=

    Nuclear Repulsion Energy =            534.7136281714948609
    One-Electron Energy =               -1774.1108054517617347
    Two-Electron Energy =                 727.1034689438469059
    Total Energy =                       -512.2937083364200817
  Basis Set: (AUG-CC-PVTZ AUX)
    Blend: AUG-CC-PVTZ-RI
    Molecular point group: c1

    Geometry (in Angstrom), charge = -1, multiplicity = 1:

       Center              X                  Y                   Z               Mass
    ------------   -----------------  -----------------  -----------------  -----------------
         O           -1.683962302806     1.301155514545    -0.545013514522    15.994914619570
         O            1.937590697194    -1.715965485455     0.212427485478    15.994914619570
         O            3.298750697194    -0.045978485455    -0.521297514522    15.994914619570
         N           -0.196312302806    -0.234861485455     0.251853485478    14.003074004430
         C            1.006001697194     0.474341514545    -0.154042514522    12.000000000000
         C            1.296744697194     1.663642514545     0.755205485478    12.000000000000
         C           -2.554668302806    -0.790510485455     0.330707485478    12.000000000000
         C           -1.446496302806     0.191323514545    -0.034128514522    12.000000000000
         C            2.191621697194    -0.527942485455    -0.156929514522    12.000000000000
         C           -3.928409302806    -0.321666485455    -0.129622514522    12.000000000000
         H            0.873509697194     0.841740514545    -1.181360514522     1.007825032230
         H           -0.050031302806    -1.018994185455     0.437479985478     1.007825032230
         H            1.447817697194     1.317331514545     1.782858485478     1.007825032230
         H            2.203595697194     2.171951514545     0.421066485478     1.007825032230
         H            0.460547697194     2.366959514545     0.741015485478     1.007825032230
         H           -2.314123302806    -1.767278485455    -0.105295514522     1.007825032230
         H           -2.540383302806    -0.931369485455     1.417773485478     1.007825032230
         H           -4.181116302806     0.639807514545     0.321318485478     1.007825032230
         H           -3.955364302806    -0.200448485455    -1.214779514522     1.007825032230
         H           -4.693247302806    -1.049449485455     0.155000485478     1.007825032230

  Basis Set: AUG-CC-PVTZ
    Blend: AUG-CC-PVTZ
  Basis Set: (AUG-CC-PVTZ AUX)
    Blend: AUG-CC-PVTZ-JKFIT
	 Reference Energy          =    -512.2937083364200817 [Eh]
	 Singles Energy            =      -0.0000000000000000 [Eh]
	 Same-Spin Energy          =      -0.5182055832640697 [Eh]
	 Opposite-Spin Energy      =      -1.6181749692608154 [Eh]
	 Correlation Energy        =      -2.1363805525248853 [Eh]
	 Total Energy              =    -514.4300888889449652 [Eh]

	 ================> DF-SCS-MP2 Energies <==================
	-----------------------------------------------------------
	 SCS Same-Spin Scale       =       0.3333333333333333 [-]
	 SCS Opposite-Spin Scale   =       1.2000000000000000 [-]
	 SCS Same-Spin Energy      =      -0.1727351944213566 [Eh]
	 SCS Opposite-Spin Energy  =      -1.9418099631129784 [Eh]
	 SCS Correlation Energy    =      -2.1145451575343350 [Eh]
	 SCS Total Energy          =    -514.4082534939543621 [Eh]
	-----------------------------------------------------------

  Dipole Moment: [D]
     X:    -8.9873      Y:     0.8443      Z:     1.5636     Total:     9.1613

*** Psi4 exiting successfully. Buy a developer a beer!
