                               Psi4 1.3.2 release

  ==> Input File <==

--------------------------------------------------------------------------
#psi4
#
memory 32 gb

molecule  {
-1 1
  O       -1.6024110     1.2883820    -0.5634480
  O        2.0191420    -1.7287390     0.1939930
  O        3.3986490    -0.0983052    -0.5336438
  N       -0.1147610    -0.2476350     0.2334190
  C        1.0551379     0.4217090    -0.1552412
  C        1.3782960     1.6508690     0.7367710
  C       -2.4731170    -0.8032840     0.3122730
  C       -1.3649450     0.1785500    -0.0525630
  C        2.2731730    -0.5407160    -0.1753640
  C       -3.8468580    -0.3344400    -0.1480570
  H        0.9550610     0.8289670    -1.1997950
  H        0.0672430    -1.2232590     0.4643770
  H        1.5293690     1.3045580     1.7644240
  H        2.2851470     2.1591780     0.4026320
  H        0.5420990     2.3541860     0.7225810
  H       -2.2325720    -1.7800520    -0.1237300
  H       -2.4588320    -0.9441430     1.3993390
  H       -4.0995650     0.6270340     0.3028840
  H       -3.8738130    -0.2132220    -1.2332140
  H       -4.6116960    -1.0622230     0.1365660
units angstrom
no_reorient  #important for SAPT in psi4, default
symmetry c1  #important for SAPT in psi4, default
}

set PROPERTIES_ORIGIN ["COM"]
properties('MP2/aug-cc-pvtz', properties = ['dipole'])
--------------------------------------------------------------------------

    Molecular point group: c1
  Charge       = -1
  Multiplicity = 1
  Basis Set: AUG-CC-PVTZ
    Blend: AUG-CC-PVTZ
  Basis Set: (AUG-CC-PVTZ AUX)
    Blend: AUG-CC-PVTZ-JKFIT

    Orbital Energies [Eh]
    ---------------------

    Doubly Occupied:

       1A    -20.395314     2A    -20.318322     3A    -20.312667
       4A    -15.441377     5A    -11.227298     6A    -11.160553
       7A    -11.137692     8A    -11.126002     9A    -11.116007
      10A    -11.076281    11A     -1.245826    12A     -1.190166
      13A     -1.105115    14A     -1.081124    15A     -0.952009
      16A     -0.874505    17A     -0.787286    18A     -0.723495
      19A     -0.643028    20A     -0.594317    21A     -0.548983
      22A     -0.534706    23A     -0.509754    24A     -0.485279
      25A     -0.466223    26A     -0.437707    27A     -0.427112
      28A     -0.419707    29A     -0.414577    30A     -0.400273
      31A     -0.399033    32A     -0.379398    33A     -0.369337
      34A     -0.337587    35A     -0.303042    36A     -0.254227
      37A     -0.232918    38A     -0.223500    39A     -0.213235

  @DF-RHF Final Energy:  -512.33186496856035

   => Energetics <=

    Nuclear Repulsion Energy =            533.7154764492070171
    One-Electron Energy =               -1772.3647147532349209
    Two-Electron Energy =                 726.3173733354675505
    Total Energy =                       -512.3318649685603532
  Basis Set: (AUG-CC-PVTZ AUX)
    Blend: AUG-CC-PVTZ-RI
    Molecular point group: c1

    Geometry (in Angstrom), charge = -1, multiplicity = 1:

       Center              X                  Y                   Z               Mass
    ------------   -----------------  -----------------  -----------------  -----------------
         O           -1.683549159249     1.310206554800    -0.547442233956    15.994914619570
         O            1.938003840751    -1.706914445200     0.209998766044    15.994914619570
         O            3.317510840751    -0.076480645200    -0.517638033956    15.994914619570
         N           -0.195899159249    -0.225810445200     0.249424766044    14.003074004430
         C            0.973999740751     0.443533554800    -0.139235433956    12.000000000000
         C            1.297157840751     1.672693554800     0.752776766044    12.000000000000
         C           -2.554255159249    -0.781459445200     0.328278766044    12.000000000000
         C           -1.446083159249     0.200374554800    -0.036557233956    12.000000000000
         C            2.192034840751    -0.518891445200    -0.159358233956    12.000000000000
         C           -3.927996159249    -0.312615445200    -0.132051233956    12.000000000000
         H            0.873922840751     0.850791554800    -1.183789233956     1.007825032230
         H           -0.013895159249    -1.201434445200     0.480382766044     1.007825032230
         H            1.448230840751     1.326382554800     1.780429766044     1.007825032230
         H            2.204008840751     2.181002554800     0.418637766044     1.007825032230
         H            0.460960840751     2.376010554800     0.738586766044     1.007825032230
         H           -2.313710159249    -1.758227445200    -0.107724233956     1.007825032230
         H           -2.539970159249    -0.922318445200     1.415344766044     1.007825032230
         H           -4.180703159249     0.648858554800     0.318889766044     1.007825032230
         H           -3.954951159249    -0.191397445200    -1.217208233956     1.007825032230
         H           -4.692834159249    -1.040398445200     0.152571766044     1.007825032230

  Basis Set: AUG-CC-PVTZ
    Blend: AUG-CC-PVTZ
  Basis Set: (AUG-CC-PVTZ AUX)
    Blend: AUG-CC-PVTZ-JKFIT
	 Reference Energy          =    -512.3318649685603532 [Eh]
	 Singles Energy            =      -0.0000000000000000 [Eh]
	 Same-Spin Energy          =      -0.5204662849422790 [Eh]
	 Opposite-Spin Energy      =      -1.6214957860601640 [Eh]
	 Correlation Energy        =      -2.1419620710024430 [Eh]
	 Total Energy              =    -514.4738270395628206 [Eh]

	 ================> DF-SCS-MP2 Energies <==================
	-----------------------------------------------------------
	 SCS Same-Spin Scale       =       0.3333333333333333 [-]
	 SCS Opposite-Spin Scale   =       1.2000000000000000 [-]
	 SCS Same-Spin Energy      =      -0.1734887616474263 [Eh]
	 SCS Opposite-Spin Energy  =      -1.9457949432721966 [Eh]
	 SCS Correlation Energy    =      -2.1192837049196229 [Eh]
	 SCS Total Energy          =    -514.4511486734800201 [Eh]
	-----------------------------------------------------------

  Dipole Moment: [D]
     X:    -8.9357      Y:     0.6492      Z:     1.6085     Total:     9.1025

*** Psi4 exiting successfully. Buy a developer a beer!
