                               Psi4 1.3.2 release

  ==> Input File <==

--------------------------------------------------------------------------
#psi4
#
memory 32 gb

molecule  {
-1 1
  O       -1.6024110     1.2883820    -0.5634480
  O        2.0191420    -1.7287390     0.1939930
  O        3.3803020    -0.0587520    -0.5397320
  N       -0.1147610    -0.2476350     0.2334190
  C        1.0875530     0.4615680    -0.1724770
  C        1.3782960     1.6508690     0.7367710
  C       -2.4731170    -0.8032840     0.3122730
  C       -1.4518864     0.2275506    -0.0588973
  C        2.2731730    -0.5407160    -0.1753640
  C       -3.8468580    -0.3344400    -0.1480570
  H        0.9550610     0.8289670    -1.1997950
  H        0.0672430    -1.2232590     0.4643770
  H        1.5293690     1.3045580     1.7644240
  H        2.2851470     2.1591780     0.4026320
  H        0.5420990     2.3541860     0.7225810
  H       -2.2325720    -1.7800520    -0.1237300
  H       -2.4588320    -0.9441430     1.3993390
  H       -4.0995650     0.6270340     0.3028840
  H       -3.8738130    -0.2132220    -1.2332140
  H       -4.6116960    -1.0622230     0.1365660
units angstrom
no_reorient  #important for SAPT in psi4, default
symmetry c1  #important for SAPT in psi4, default
}

set PROPERTIES_ORIGIN ["COM"]
properties('MP2/aug-cc-pvtz', properties = ['dipole'])
--------------------------------------------------------------------------

    Molecular point group: c1
  Charge       = -1
  Multiplicity = 1
  Basis Set: AUG-CC-PVTZ
    Blend: AUG-CC-PVTZ
  Basis Set: (AUG-CC-PVTZ AUX)
    Blend: AUG-CC-PVTZ-JKFIT

    Orbital Energies [Eh]
    ---------------------

    Doubly Occupied:

       1A    -20.412172     2A    -20.315120     3A    -20.307702
       4A    -15.418763     5A    -11.228711     6A    -11.155023
       7A    -11.138209     8A    -11.128603     9A    -11.105374
      10A    -11.069995    11A     -1.287358    12A     -1.183863
      13A     -1.085156    14A     -1.055942    15A     -0.958751
      16A     -0.864584    17A     -0.786583    18A     -0.708339
      19A     -0.629732    20A     -0.589231    21A     -0.540518
      22A     -0.536498    23A     -0.520825    24A     -0.489420
      25A     -0.459977    26A     -0.438512    27A     -0.431450
      28A     -0.422431    29A     -0.416071    30A     -0.399552
      31A     -0.398347    32A     -0.382010    33A     -0.364420
      34A     -0.339254    35A     -0.307989    36A     -0.243260
      37A     -0.229465    38A     -0.215881    39A     -0.208094

  @DF-RHF Final Energy:  -512.32422672413622

   => Energetics <=

    Nuclear Repulsion Energy =            533.0345263411801398
    One-Electron Energy =               -1771.1711351967173869
    Two-Electron Energy =                 725.8123821314011366
    Total Energy =                       -512.3242267241362242
  Basis Set: (AUG-CC-PVTZ AUX)
    Blend: AUG-CC-PVTZ-RI
    Molecular point group: c1

    Geometry (in Angstrom), charge = -1, multiplicity = 1:

       Center              X                  Y                   Z               Mass
    ------------   -----------------  -----------------  -----------------  -----------------
         O           -1.676970411661     1.298413595651    -0.544803018185    15.994914619570
         O            1.944582588339    -1.718707404349     0.212637981815    15.994914619570
         O            3.305742588339    -0.048720404349    -0.521087018185    15.994914619570
         N           -0.189320411661    -0.237603404349     0.252063981815    14.003074004430
         C            1.012993588339     0.471599595651    -0.153832018185    12.000000000000
         C            1.303736588339     1.660900595651     0.755415981815    12.000000000000
         C           -2.547676411661    -0.793252404349     0.330917981815    12.000000000000
         C           -1.526445811661     0.237582195651    -0.040252318185    12.000000000000
         C            2.198613588339    -0.530684404349    -0.156719018185    12.000000000000
         C           -3.921417411661    -0.324408404349    -0.129412018185    12.000000000000
         H            0.880501588339     0.838998595651    -1.181150018185     1.007825032230
         H           -0.007316411661    -1.213227404349     0.483021981815     1.007825032230
         H            1.454809588339     1.314589595651     1.783068981815     1.007825032230
         H            2.210587588339     2.169209595651     0.421276981815     1.007825032230
         H            0.467539588339     2.364217595651     0.741225981815     1.007825032230
         H           -2.307131411661    -1.770020404349    -0.105085018185     1.007825032230
         H           -2.533391411661    -0.934111404349     1.417983981815     1.007825032230
         H           -4.174124411661     0.637065595651     0.321528981815     1.007825032230
         H           -3.948372411661    -0.203190404349    -1.214569018185     1.007825032230
         H           -4.686255411661    -1.052191404349     0.155210981815     1.007825032230

  Basis Set: AUG-CC-PVTZ
    Blend: AUG-CC-PVTZ
  Basis Set: (AUG-CC-PVTZ AUX)
    Blend: AUG-CC-PVTZ-JKFIT
	 Reference Energy          =    -512.3242267241362242 [Eh]
	 Singles Energy            =      -0.0000000000000000 [Eh]
	 Same-Spin Energy          =      -0.5196714937636913 [Eh]
	 Opposite-Spin Energy      =      -1.6203951996470030 [Eh]
	 Correlation Energy        =      -2.1400666934106942 [Eh]
	 Total Energy              =    -514.4642934175469691 [Eh]

	 ================> DF-SCS-MP2 Energies <==================
	-----------------------------------------------------------
	 SCS Same-Spin Scale       =       0.3333333333333333 [-]
	 SCS Opposite-Spin Scale   =       1.2000000000000000 [-]
	 SCS Same-Spin Energy      =      -0.1732238312545638 [Eh]
	 SCS Opposite-Spin Energy  =      -1.9444742395764034 [Eh]
	 SCS Correlation Energy    =      -2.1176980708309672 [Eh]
	 SCS Total Energy          =    -514.4419247949672354 [Eh]
	-----------------------------------------------------------

  Dipole Moment: [D]
     X:    -9.6149      Y:     0.9271      Z:     1.3915     Total:     9.7592

*** Psi4 exiting successfully. Buy a developer a beer!
