                               Psi4 1.3.2 release

  ==> Input File <==

--------------------------------------------------------------------------
#psi4
#
memory 32 gb

molecule  {
-1 1
  O       -1.6024110     1.2883820    -0.5634480
  O        2.0191420    -1.7287390     0.1939930
  O        3.3803020    -0.0587520    -0.5397320
  N       -0.1147610    -0.2476350     0.2334190
  C        1.0875530     0.4615680    -0.1724770
  C        1.3782960     1.6508690     0.7367710
  C       -2.4731170    -0.8032840     0.3122730
  C       -1.3471696     0.1623735    -0.0411342
  C        2.2731730    -0.5407160    -0.1753640
  C       -3.8575739    -0.3564670    -0.1377452
  H        0.9550610     0.8289670    -1.1997950
  H        0.0672430    -1.2232590     0.4643770
  H        1.5293690     1.3045580     1.7644240
  H        2.2851470     2.1591780     0.4026320
  H        0.5420990     2.3541860     0.7225810
  H       -2.2325720    -1.7800520    -0.1237300
  H       -2.4588320    -0.9441430     1.3993390
  H       -4.0995650     0.6270340     0.3028840
  H       -3.8738130    -0.2132220    -1.2332140
  H       -4.6116960    -1.0622230     0.1365660
units angstrom
no_reorient  #important for SAPT in psi4, default
symmetry c1  #important for SAPT in psi4, default
}

set PROPERTIES_ORIGIN ["COM"]
properties('MP2/aug-cc-pvtz', properties = ['dipole'])
--------------------------------------------------------------------------

    Molecular point group: c1
  Charge       = -1
  Multiplicity = 1
  Basis Set: AUG-CC-PVTZ
    Blend: AUG-CC-PVTZ
  Basis Set: (AUG-CC-PVTZ AUX)
    Blend: AUG-CC-PVTZ-JKFIT

    Orbital Energies [Eh]
    ---------------------

    Doubly Occupied:

       1A    -20.385600     2A    -20.324120     3A    -20.315364
       4A    -15.443024     5A    -11.222880     6A    -11.163791
       7A    -11.135450     8A    -11.123756     9A    -11.117370
      10A    -11.077001    11A     -1.228909    12A     -1.191903
      13A     -1.100488    14A     -1.085104    15A     -0.948437
      16A     -0.882355    17A     -0.785066    18A     -0.724590
      19A     -0.643091    20A     -0.588946    21A     -0.543286
      22A     -0.531588    23A     -0.511233    24A     -0.479860
      25A     -0.466813    26A     -0.442058    27A     -0.427650
      28A     -0.417445    29A     -0.409670    30A     -0.404142
      31A     -0.395300    32A     -0.374474    33A     -0.370205
      34A     -0.340515    35A     -0.295864    36A     -0.259092
      37A     -0.238741    38A     -0.224943    39A     -0.217405

  @DF-RHF Final Energy:  -512.33328363937324

   => Energetics <=

    Nuclear Repulsion Energy =            533.3193579515686906
    One-Electron Energy =               -1771.6302246391758217
    Two-Electron Energy =                 725.9775830482338961
    Total Energy =                       -512.3332836393732350
  Basis Set: (AUG-CC-PVTZ AUX)
    Blend: AUG-CC-PVTZ-RI
    Molecular point group: c1

    Geometry (in Angstrom), charge = -1, multiplicity = 1:

       Center              X                  Y                   Z               Mass
    ------------   -----------------  -----------------  -----------------  -----------------
         O           -1.684800227621     1.305677271360    -0.547141520265    15.994914619570
         O            1.936752772379    -1.711443728640     0.210299479735    15.994914619570
         O            3.297912772379    -0.041456728640    -0.523425520265    15.994914619570
         N           -0.197150227621    -0.230339728640     0.249725479735    14.003074004430
         C            1.005163772379     0.478863271360    -0.156170520265    12.000000000000
         C            1.295906772379     1.668164271360     0.753077479735    12.000000000000
         C           -2.555506227621    -0.785988728640     0.328579479735    12.000000000000
         C           -1.429558827621     0.179668771360    -0.024827720265    12.000000000000
         C            2.190783772379    -0.523420728640    -0.159057520265    12.000000000000
         C           -3.939963127621    -0.339171728640    -0.121438720265    12.000000000000
         H            0.872671772379     0.846262271360    -1.183488520265     1.007825032230
         H           -0.015146227621    -1.205963728640     0.480683479735     1.007825032230
         H            1.446979772379     1.321853271360     1.780730479735     1.007825032230
         H            2.202757772379     2.176473271360     0.418938479735     1.007825032230
         H            0.459709772379     2.371481271360     0.738887479735     1.007825032230
         H           -2.314961227621    -1.762756728640    -0.107423520265     1.007825032230
         H           -2.541221227621    -0.926847728640     1.415645479735     1.007825032230
         H           -4.181954227621     0.644329271360     0.319190479735     1.007825032230
         H           -3.956202227621    -0.195926728640    -1.216907520265     1.007825032230
         H           -4.694085227621    -1.044927728640     0.152872479735     1.007825032230

  Basis Set: AUG-CC-PVTZ
    Blend: AUG-CC-PVTZ
  Basis Set: (AUG-CC-PVTZ AUX)
    Blend: AUG-CC-PVTZ-JKFIT
	 Reference Energy          =    -512.3332836393732350 [Eh]
	 Singles Energy            =      -0.0000000000000000 [Eh]
	 Same-Spin Energy          =      -0.5204919685186187 [Eh]
	 Opposite-Spin Energy      =      -1.6220021990742377 [Eh]
	 Correlation Energy        =      -2.1424941675928562 [Eh]
	 Total Energy              =    -514.4757778069661072 [Eh]

	 ================> DF-SCS-MP2 Energies <==================
	-----------------------------------------------------------
	 SCS Same-Spin Scale       =       0.3333333333333333 [-]
	 SCS Opposite-Spin Scale   =       1.2000000000000000 [-]
	 SCS Same-Spin Energy      =      -0.1734973228395396 [Eh]
	 SCS Opposite-Spin Energy  =      -1.9464026388890852 [Eh]
	 SCS Correlation Energy    =      -2.1198999617286249 [Eh]
	 SCS Total Energy          =    -514.4531836011018413 [Eh]
	-----------------------------------------------------------

  Dipole Moment: [D]
     X:    -8.4779      Y:     0.4921      Z:     1.6856     Total:     8.6579

*** Psi4 exiting successfully. Buy a developer a beer!
