                               Psi4 1.3.2 release

  ==> Input File <==

--------------------------------------------------------------------------
#psi4
#
memory 32 gb

molecule  {
-1 1
  O       -1.6024110     1.2883820    -0.5634480
  O        2.0191420    -1.7287390     0.1939930
  O        3.3803020    -0.0587520    -0.5397320
  N       -0.1147610    -0.2476350     0.2334190
  C        1.0875530     0.4615680    -0.1724770
  C        1.3592312     1.5728833     0.6771491
  C       -2.4731170    -0.8032840     0.3122730
  C       -1.3649450     0.1785500    -0.0525630
  C        2.2731730    -0.5407160    -0.1753640
  C       -3.8468580    -0.3344400    -0.1480570
  H        0.9550610     0.8289670    -1.1997950
  H        0.0672430    -1.2232590     0.4643770
  H        1.5293690     1.3045580     1.7644240
  H        2.2851470     2.1591780     0.4026320
  H        0.5420990     2.3541860     0.7225810
  H       -2.2325720    -1.7800520    -0.1237300
  H       -2.4588320    -0.9441430     1.3993390
  H       -4.0995650     0.6270340     0.3028840
  H       -3.8738130    -0.2132220    -1.2332140
  H       -4.6116960    -1.0622230     0.1365660
units angstrom
no_reorient  #important for SAPT in psi4, default
symmetry c1  #important for SAPT in psi4, default
}

set PROPERTIES_ORIGIN ["COM"]
properties('MP2/aug-cc-pvtz', properties = ['dipole'])
--------------------------------------------------------------------------

    Molecular point group: c1
  Charge       = -1
  Multiplicity = 1
  Basis Set: AUG-CC-PVTZ
    Blend: AUG-CC-PVTZ
  Basis Set: (AUG-CC-PVTZ AUX)
    Blend: AUG-CC-PVTZ-JKFIT

    Orbital Energies [Eh]
    ---------------------

    Doubly Occupied:

       1A    -20.391649     2A    -20.322974     3A    -20.314346
       4A    -15.437672     5A    -11.223716     6A    -11.162704
       7A    -11.135379     8A    -11.124328     9A    -11.109964
      10A    -11.080430    11A     -1.241743    12A     -1.191622
      13A     -1.097833    14A     -1.083040    15A     -0.950898
      16A     -0.893398    17A     -0.782969    18A     -0.714768
      19A     -0.639629    20A     -0.590550    21A     -0.544044
      22A     -0.533685    23A     -0.514461    24A     -0.484113
      25A     -0.474946    26A     -0.439624    27A     -0.425974
      28A     -0.422765    29A     -0.413553    30A     -0.405347
      31A     -0.389565    32A     -0.369119    33A     -0.360523
      34A     -0.339547    35A     -0.298391    36A     -0.261047
      37A     -0.236599    38A     -0.223003    39A     -0.216224

  @DF-RHF Final Energy:  -512.32419318263055

   => Energetics <=

    Nuclear Repulsion Energy =            535.3626938877032444
    One-Electron Energy =               -1775.6894898650893992
    Two-Electron Energy =                 728.0026027947556031
    Total Energy =                       -512.3241931826305517
  Basis Set: (AUG-CC-PVTZ AUX)
    Blend: AUG-CC-PVTZ-RI
    Molecular point group: c1

    Geometry (in Angstrom), charge = -1, multiplicity = 1:

       Center              X                  Y                   Z               Mass
    ------------   -----------------  -----------------  -----------------  -----------------
         O           -1.682624200997     1.308990934362    -0.540364421311    15.994914619570
         O            1.938928799003    -1.708130065638     0.217076578689    15.994914619570
         O            3.300088799003    -0.038143065638    -0.516648421311    15.994914619570
         N           -0.194974200997    -0.227026065638     0.256502578689    14.003074004430
         C            1.007339799003     0.482176934362    -0.149393421311    12.000000000000
         C            1.279017999003     1.593492234362     0.700232678689    12.000000000000
         C           -2.553330200997    -0.782675065638     0.335356578689    12.000000000000
         C           -1.445158200997     0.199158934362    -0.029479421311    12.000000000000
         C            2.192959799003    -0.520107065638    -0.152280421311    12.000000000000
         C           -3.927071200997    -0.313831065638    -0.124973421311    12.000000000000
         H            0.874847799003     0.849575934362    -1.176711421311     1.007825032230
         H           -0.012970200997    -1.202650065638     0.487460578689     1.007825032230
         H            1.449155799003     1.325166934362     1.787507578689     1.007825032230
         H            2.204933799003     2.179786934362     0.425715578689     1.007825032230
         H            0.461885799003     2.374794934362     0.745664578689     1.007825032230
         H           -2.312785200997    -1.759443065638    -0.100646421311     1.007825032230
         H           -2.539045200997    -0.923534065638     1.422422578689     1.007825032230
         H           -4.179778200997     0.647642934362     0.325967578689     1.007825032230
         H           -3.954026200997    -0.192613065638    -1.210130421311     1.007825032230
         H           -4.691909200997    -1.041614065638     0.159649578689     1.007825032230

  Basis Set: AUG-CC-PVTZ
    Blend: AUG-CC-PVTZ
  Basis Set: (AUG-CC-PVTZ AUX)
    Blend: AUG-CC-PVTZ-JKFIT
	 Reference Energy          =    -512.3241931826305517 [Eh]
	 Singles Energy            =      -0.0000000000000000 [Eh]
	 Same-Spin Energy          =      -0.5212152084852784 [Eh]
	 Opposite-Spin Energy      =      -1.6226763821748047 [Eh]
	 Correlation Energy        =      -2.1438915906600831 [Eh]
	 Total Energy              =    -514.4680847732906841 [Eh]

	 ================> DF-SCS-MP2 Energies <==================
	-----------------------------------------------------------
	 SCS Same-Spin Scale       =       0.3333333333333333 [-]
	 SCS Opposite-Spin Scale   =       1.2000000000000000 [-]
	 SCS Same-Spin Energy      =      -0.1737384028284261 [Eh]
	 SCS Opposite-Spin Energy  =      -1.9472116586097656 [Eh]
	 SCS Correlation Energy    =      -2.1209500614381920 [Eh]
	 SCS Total Energy          =    -514.4451432440687313 [Eh]
	-----------------------------------------------------------

  Dipole Moment: [D]
     X:    -8.6549      Y:     0.5972      Z:     1.5618     Total:     8.8149

*** Psi4 exiting successfully. Buy a developer a beer!
