                               Psi4 1.3.2 release

  ==> Input File <==

--------------------------------------------------------------------------
#psi4
#
memory 32 gb

molecule  {
-1 1
  O       -1.6024110     1.2883820    -0.5634480
  O        2.0191420    -1.7287390     0.1939930
  O        3.3803020    -0.0587520    -0.5397320
  N       -0.1408491    -0.2043886     0.2285336
  C        1.0875530     0.4615680    -0.1724770
  C        1.3782960     1.6508690     0.7367710
  C       -2.4731170    -0.8032840     0.3122730
  C       -1.3649450     0.1785500    -0.0525630
  C        2.3058637    -0.5005348    -0.1912805
  C       -3.8468580    -0.3344400    -0.1480570
  H        0.9550610     0.8289670    -1.1997950
  H        0.0672430    -1.2232590     0.4643770
  H        1.5293690     1.3045580     1.7644240
  H        2.2851470     2.1591780     0.4026320
  H        0.5420990     2.3541860     0.7225810
  H       -2.2325720    -1.7800520    -0.1237300
  H       -2.4588320    -0.9441430     1.3993390
  H       -4.0995650     0.6270340     0.3028840
  H       -3.8738130    -0.2132220    -1.2332140
  H       -4.6116960    -1.0622230     0.1365660
units angstrom
no_reorient  #important for SAPT in psi4, default
symmetry c1  #important for SAPT in psi4, default
}

set PROPERTIES_ORIGIN ["COM"]
properties('MP2/aug-cc-pvtz', properties = ['dipole'])
--------------------------------------------------------------------------

    Molecular point group: c1
  Charge       = -1
  Multiplicity = 1
  Basis Set: AUG-CC-PVTZ
    Blend: AUG-CC-PVTZ
  Basis Set: (AUG-CC-PVTZ AUX)
    Blend: AUG-CC-PVTZ-JKFIT

    Orbital Energies [Eh]
    ---------------------

    Doubly Occupied:

       1A    -20.382062     2A    -20.329363     3A    -20.312843
       4A    -15.440087     5A    -11.215326     6A    -11.164740
       7A    -11.133295     8A    -11.122363     9A    -11.116949
      10A    -11.076944    11A     -1.239860    12A     -1.204692
      13A     -1.100019    14A     -1.073465    15A     -0.947413
      16A     -0.883225    17A     -0.781715    18A     -0.724131
      19A     -0.631984    20A     -0.587950    21A     -0.546597
      22A     -0.532202    23A     -0.509494    24A     -0.479579
      25A     -0.467473    26A     -0.439829    27A     -0.427592
      28A     -0.420648    29A     -0.412063    30A     -0.404371
      31A     -0.396201    32A     -0.374779    33A     -0.367682
      34A     -0.343377    35A     -0.295522    36A     -0.256474
      37A     -0.235258    38A     -0.225015    39A     -0.218397

  @DF-RHF Final Energy:  -512.32852146959738

   => Energetics <=

    Nuclear Repulsion Energy =            533.7590296956217344
    One-Electron Energy =               -1772.5331422251724689
    Two-Electron Energy =                 726.4455910599532444
    Total Energy =                       -512.3285214695973764
  Basis Set: (AUG-CC-PVTZ AUX)
    Blend: AUG-CC-PVTZ-RI
    Molecular point group: c1

    Geometry (in Angstrom), charge = -1, multiplicity = 1:

       Center              X                  Y                   Z               Mass
    ------------   -----------------  -----------------  -----------------  -----------------
         O           -1.684399444872     1.294944702900    -0.543530011848    15.994914619570
         O            1.937153555128    -1.722176297100     0.213910988152    15.994914619570
         O            3.298313555128    -0.052189297100    -0.519814011848    15.994914619570
         N           -0.222837544872    -0.197825897100     0.248451588152    14.003074004430
         C            1.005564555128     0.468130702900    -0.152559011848    12.000000000000
         C            1.296307555128     1.657431702900     0.756688988152    12.000000000000
         C           -2.555105444872    -0.796721297100     0.332190988152    12.000000000000
         C           -1.446933444872     0.185112702900    -0.032645011848    12.000000000000
         C            2.223875255128    -0.493972097100    -0.171362511848    12.000000000000
         C           -3.928846444872    -0.327877297100    -0.128139011848    12.000000000000
         H            0.873072555128     0.835529702900    -1.179877011848     1.007825032230
         H           -0.014745444872    -1.216696297100     0.484294988152     1.007825032230
         H            1.447380555128     1.311120702900     1.784341988152     1.007825032230
         H            2.203158555128     2.165740702900     0.422549988152     1.007825032230
         H            0.460110555128     2.360748702900     0.742498988152     1.007825032230
         H           -2.314560444872    -1.773489297100    -0.103812011848     1.007825032230
         H           -2.540820444872    -0.937580297100     1.419256988152     1.007825032230
         H           -4.181553444872     0.633596702900     0.322801988152     1.007825032230
         H           -3.955801444872    -0.206659297100    -1.213296011848     1.007825032230
         H           -4.693684444872    -1.055660297100     0.156483988152     1.007825032230

  Basis Set: AUG-CC-PVTZ
    Blend: AUG-CC-PVTZ
  Basis Set: (AUG-CC-PVTZ AUX)
    Blend: AUG-CC-PVTZ-JKFIT
	 Reference Energy          =    -512.3285214695973764 [Eh]
	 Singles Energy            =      -0.0000000000000000 [Eh]
	 Same-Spin Energy          =      -0.5204460598763199 [Eh]
	 Opposite-Spin Energy      =      -1.6216842588719349 [Eh]
	 Correlation Energy        =      -2.1421303187482548 [Eh]
	 Total Energy              =    -514.4706517883456627 [Eh]

	 ================> DF-SCS-MP2 Energies <==================
	-----------------------------------------------------------
	 SCS Same-Spin Scale       =       0.3333333333333333 [-]
	 SCS Opposite-Spin Scale   =       1.2000000000000000 [-]
	 SCS Same-Spin Energy      =      -0.1734820199587733 [Eh]
	 SCS Opposite-Spin Energy  =      -1.9460211106463219 [Eh]
	 SCS Correlation Energy    =      -2.1195031306050951 [Eh]
	 SCS Total Energy          =    -514.4480246002024160 [Eh]
	-----------------------------------------------------------

  Dipole Moment: [D]
     X:    -8.0682      Y:     0.9045      Z:     1.4617     Total:     8.2493

*** Psi4 exiting successfully. Buy a developer a beer!
