                               Psi4 1.4a3.dev225

  ==> Input File <==

--------------------------------------------------------------------------
#psi4
#
memory 32 gb

molecule  {
-1 1
  O       -1.5868420     1.2523650    -0.8113290
  O        2.0299390    -1.6922460     0.2543140
  O        3.4074630     0.0142020    -0.3584910
  N       -0.1383540    -0.2870410     0.0455440
  C        1.0782140     0.4735880    -0.1782270
  C        1.2275190     1.6106150     0.8299030
  C       -2.4816390    -0.8906360    -0.1487800
  C       -1.3641120     0.1217370    -0.3343690
  C        2.2675570    -0.4895021    -0.0957094
  C       -3.7126180    -0.2515540     0.4884160
  H        1.0494870     0.8996880    -1.1894520
  H        0.0515970    -1.2513350     0.3145600
  H        1.2660770     1.2028380     1.8451460
  H        2.1536960     2.1558630     0.6353850
  H        0.3800930     2.2967220     0.7589720
  H       -2.7387560    -1.2794370    -1.1416750
  H       -2.1327770    -1.7398080     0.4477120
  H       -3.4838230     0.1112750     1.4946450
  H       -4.0489630     0.5957980    -0.1116680
  H       -4.5299760    -0.9736440     0.5641870
units angstrom
no_reorient  #important for SAPT in psi4, default
symmetry c1  #important for SAPT in psi4, default
}

set PROPERTIES_ORIGIN ["COM"]
properties('MP2/aug-cc-pvtz', properties = ['dipole'])
--------------------------------------------------------------------------

    Molecular point group: c1
  Charge       = -1
  Multiplicity = 1
  Basis Set: AUG-CC-PVTZ
    Blend: AUG-CC-PVTZ
  Basis Set: (AUG-CC-PVTZ AUX)
    Blend: AUG-CC-PVTZ-JKFIT

    Orbital Energies [Eh]
    ---------------------

    Doubly Occupied:

       1A    -20.388313     2A    -20.323558     3A    -20.313096
       4A    -15.443387     5A    -11.223399     6A    -11.163384
       7A    -11.135164     8A    -11.127818     9A    -11.117514
      10A    -11.078752    11A     -1.239546    12A     -1.187219
      13A     -1.096067    14A     -1.079250    15A     -0.951258
      16A     -0.882077    17A     -0.784947    18A     -0.728661
      19A     -0.644693    20A     -0.591225    21A     -0.548031
      22A     -0.523619    23A     -0.515193    24A     -0.483584
      25A     -0.464324    26A     -0.443583    27A     -0.435359
      28A     -0.417067    29A     -0.411891    30A     -0.405353
      31A     -0.395996    32A     -0.376337    33A     -0.368730
      34A     -0.339095    35A     -0.297509    36A     -0.259383
      37A     -0.237122    38A     -0.224962    39A     -0.213967

  @DF-RHF Final Energy:  -512.33441927277022

   => Energetics <=

    Nuclear Repulsion Energy =            534.4370657865016483
    One-Electron Energy =               -1773.8221048109362528
    Two-Electron Energy =                 727.0506197516644988
    Total Energy =                       -512.3344192727702193
  Basis Set: (AUG-CC-PVTZ AUX)
    Blend: AUG-CC-PVTZ-RI
    Molecular point group: c1

    Geometry (in Angstrom), charge = -1, multiplicity = 1:

       Center              X                  Y                   Z               Mass
    ------------   -----------------  -----------------  -----------------  -----------------
         O           -1.668079330703     1.265577203592    -0.786168602056    15.994914619570
         O            1.948701669297    -1.679033796408     0.279474397944    15.994914619570
         O            3.326225669297     0.027414203592    -0.333330602056    15.994914619570
         N           -0.219591330703    -0.273828796408     0.070704397944    14.003074004430
         C            0.996976669297     0.486800203592    -0.153066602056    12.000000000000
         C            1.146281669297     1.623827203592     0.855063397944    12.000000000000
         C           -2.562876330703    -0.877423796408    -0.123619602056    12.000000000000
         C           -1.445349330703     0.134949203592    -0.309208602056    12.000000000000
         C            2.186319669297    -0.476289896408    -0.070549002056    12.000000000000
         C           -3.793855330703    -0.238341796408     0.513576397944    12.000000000000
         H            0.968249669297     0.912900203592    -1.164291602056     1.007825032230
         H           -0.029640330703    -1.238122796408     0.339720397944     1.007825032230
         H            1.184839669297     1.216050203592     1.870306397944     1.007825032230
         H            2.072458669297     2.169075203592     0.660545397944     1.007825032230
         H            0.298855669297     2.309934203592     0.784132397944     1.007825032230
         H           -2.819993330703    -1.266224796408    -1.116514602056     1.007825032230
         H           -2.214014330703    -1.726595796408     0.472872397944     1.007825032230
         H           -3.565060330703     0.124487203592     1.519805397944     1.007825032230
         H           -4.130200330703     0.609010203592    -0.086507602056     1.007825032230
         H           -4.611213330703    -0.960431796408     0.589347397944     1.007825032230

  Basis Set: AUG-CC-PVTZ
    Blend: AUG-CC-PVTZ
  Basis Set: (AUG-CC-PVTZ AUX)
    Blend: AUG-CC-PVTZ-JKFIT
	 Reference Energy          =    -512.3344192727702193 [Eh]
	 Singles Energy            =      -0.0000000000000000 [Eh]
	 Same-Spin Energy          =      -0.5207683495060900 [Eh]
	 Opposite-Spin Energy      =      -1.6225619563257927 [Eh]
	 Correlation Energy        =      -2.1433303058318827 [Eh]
	 Total Energy              =    -514.4777495786021291 [Eh]

	 ================> DF-SCS-MP2 Energies <==================
	-----------------------------------------------------------
	 SCS Same-Spin Scale       =       0.3333333333333333 [-]
	 SCS Opposite-Spin Scale   =       1.2000000000000000 [-]
	 SCS Same-Spin Energy      =      -0.1735894498353633 [Eh]
	 SCS Opposite-Spin Energy  =      -1.9470743475909511 [Eh]
	 SCS Correlation Energy    =      -2.1206637974263143 [Eh]
	 SCS Total Energy          =    -514.4550830701965651 [Eh]
	-----------------------------------------------------------

  Dipole Moment: [D]
     X:    -8.7795      Y:     0.4252      Z:     1.2367     Total:     8.8763

*** Psi4 exiting successfully. Buy a developer a beer!
