                               Psi4 1.3.2 release

  ==> Input File <==

--------------------------------------------------------------------------
#psi4
#
memory 32 gb

molecule  {
-1 1
  O       -1.6024110     1.2883820    -0.5634480
  O        2.0191420    -1.7287390     0.1939930
  O        3.3803020    -0.0587520    -0.5397320
  N       -0.1147610    -0.2476350     0.2334190
  C        1.0875530     0.4615680    -0.1724770
  C        1.3782960     1.6508690     0.7367710
  C       -2.4731170    -0.8032840     0.3122730
  C       -1.3649450     0.1785500    -0.0525630
  C        2.1968049    -0.4761569    -0.1751780
  C       -3.8468580    -0.3344400    -0.1480570
  H        0.9550610     0.8289670    -1.1997950
  H        0.0672430    -1.2232590     0.4643770
  H        1.5293690     1.3045580     1.7644240
  H        2.2851470     2.1591780     0.4026320
  H        0.5420990     2.3541860     0.7225810
  H       -2.2325720    -1.7800520    -0.1237300
  H       -2.4588320    -0.9441430     1.3993390
  H       -4.0995650     0.6270340     0.3028840
  H       -3.8738130    -0.2132220    -1.2332140
  H       -4.6116960    -1.0622230     0.1365660
units angstrom
no_reorient  #important for SAPT in psi4, default
symmetry c1  #important for SAPT in psi4, default
}

set PROPERTIES_ORIGIN ["COM"]
properties('MP2/aug-cc-pvtz', properties = ['dipole'])
--------------------------------------------------------------------------

    Molecular point group: c1
  Charge       = -1
  Multiplicity = 1
  Basis Set: AUG-CC-PVTZ
    Blend: AUG-CC-PVTZ
  Basis Set: (AUG-CC-PVTZ AUX)
    Blend: AUG-CC-PVTZ-JKFIT

    Orbital Energies [Eh]
    ---------------------

    Doubly Occupied:

       1A    -20.395841     2A    -20.319280     3A    -20.310559
       4A    -15.442668     5A    -11.227689     6A    -11.165271
       7A    -11.137951     8A    -11.126357     9A    -11.122724
      10A    -11.082554    11A     -1.245889    12A     -1.168070
      13A     -1.094761    14A     -1.055213    15A     -0.953150
      16A     -0.893191    17A     -0.788385    18A     -0.740445
      19A     -0.646184    20A     -0.599541    21A     -0.548537
      22A     -0.536515    23A     -0.517020    24A     -0.484207
      25A     -0.467738    26A     -0.440886    27A     -0.427623
      28A     -0.419801    29A     -0.412957    30A     -0.400471
      31A     -0.395240    32A     -0.376977    33A     -0.366829
      34A     -0.326128    35A     -0.302460    36A     -0.261480
      37A     -0.241150    38A     -0.218083    39A     -0.203312

  @DF-RHF Final Energy:  -512.31559236410226

   => Energetics <=

    Nuclear Repulsion Energy =            533.9600014749057664
    One-Electron Energy =               -1772.8249085772263243
    Two-Electron Energy =                 726.5493147382182997
    Total Energy =                       -512.3155923641022582
  Basis Set: (AUG-CC-PVTZ AUX)
    Blend: AUG-CC-PVTZ-RI
    Molecular point group: c1

    Geometry (in Angstrom), charge = -1, multiplicity = 1:

       Center              X                  Y                   Z               Mass
    ------------   -----------------  -----------------  -----------------  -----------------
         O           -1.677851115921     1.297117648574    -0.545346127337    15.994914619570
         O            1.943701884079    -1.720003351426     0.212094872663    15.994914619570
         O            3.304861884079    -0.050016351426    -0.521630127337    15.994914619570
         N           -0.190201115921    -0.238899351426     0.251520872663    14.003074004430
         C            1.012112884079     0.470303648574    -0.154375127337    12.000000000000
         C            1.302855884079     1.659604648574     0.754872872663    12.000000000000
         C           -2.548557115921    -0.794548351426     0.330374872663    12.000000000000
         C           -1.440385115921     0.187285648574    -0.034461127337    12.000000000000
         C            2.121364784079    -0.467421251426    -0.157076127337    12.000000000000
         C           -3.922298115921    -0.325704351426    -0.129955127337    12.000000000000
         H            0.879620884079     0.837702648574    -1.181693127337     1.007825032230
         H           -0.008197115921    -1.214523351426     0.482478872663     1.007825032230
         H            1.453928884079     1.313293648574     1.782525872663     1.007825032230
         H            2.209706884079     2.167913648574     0.420733872663     1.007825032230
         H            0.466658884079     2.362921648574     0.740682872663     1.007825032230
         H           -2.308012115921    -1.771316351426    -0.105628127337     1.007825032230
         H           -2.534272115921    -0.935407351426     1.417440872663     1.007825032230
         H           -4.175005115921     0.635769648574     0.320985872663     1.007825032230
         H           -3.949253115921    -0.204486351426    -1.215112127337     1.007825032230
         H           -4.687136115921    -1.053487351426     0.154667872663     1.007825032230

  Basis Set: AUG-CC-PVTZ
    Blend: AUG-CC-PVTZ
  Basis Set: (AUG-CC-PVTZ AUX)
    Blend: AUG-CC-PVTZ-JKFIT
	 Reference Energy          =    -512.3155923641022582 [Eh]
	 Singles Energy            =      -0.0000000000000000 [Eh]
	 Same-Spin Energy          =      -0.5224167773670224 [Eh]
	 Opposite-Spin Energy      =      -1.6262620377588815 [Eh]
	 Correlation Energy        =      -2.1486788151259040 [Eh]
	 Total Energy              =    -514.4642711792281489 [Eh]

	 ================> DF-SCS-MP2 Energies <==================
	-----------------------------------------------------------
	 SCS Same-Spin Scale       =       0.3333333333333333 [-]
	 SCS Opposite-Spin Scale   =       1.2000000000000000 [-]
	 SCS Same-Spin Energy      =      -0.1741389257890075 [Eh]
	 SCS Opposite-Spin Energy  =      -1.9515144453106577 [Eh]
	 SCS Correlation Energy    =      -2.1256533710996650 [Eh]
	 SCS Total Energy          =    -514.4412457352019601 [Eh]
	-----------------------------------------------------------

  Dipole Moment: [D]
     X:    -9.1578      Y:     0.9989      Z:     1.6351     Total:     9.3561

*** Psi4 exiting successfully. Buy a developer a beer!
