                               Psi4 1.3.2 release

  ==> Input File <==

--------------------------------------------------------------------------
#psi4
#
memory 32 gb

molecule  {
-1 1
  O       -1.6024110     1.2883820    -0.5634480
  O        2.0191420    -1.7287390     0.1939930
  O        3.3803020    -0.0587520    -0.5397320
  N       -0.1147610    -0.2476350     0.2334190
  C        1.1016235     0.4436664    -0.1612842
  C        1.3782960     1.6508690     0.7367710
  C       -2.4731170    -0.8032840     0.3122730
  C       -1.3737016     0.1597579    -0.0413152
  C        2.2731730    -0.5407160    -0.1753640
  C       -3.8468580    -0.3344400    -0.1480570
  H        0.9550610     0.8289670    -1.1997950
  H        0.0672430    -1.2232590     0.4643770
  H        1.5293690     1.3045580     1.7644240
  H        2.2851470     2.1591780     0.4026320
  H        0.5420990     2.3541860     0.7225810
  H       -2.2325720    -1.7800520    -0.1237300
  H       -2.4588320    -0.9441430     1.3993390
  H       -4.0995650     0.6270340     0.3028840
  H       -3.8738130    -0.2132220    -1.2332140
  H       -4.6116960    -1.0622230     0.1365660
units angstrom
no_reorient  #important for SAPT in psi4, default
symmetry c1  #important for SAPT in psi4, default
}

set PROPERTIES_ORIGIN ["COM"]
properties('MP2/aug-cc-pvtz', properties = ['dipole'])
--------------------------------------------------------------------------

    Molecular point group: c1
  Charge       = -1
  Multiplicity = 1
  Basis Set: AUG-CC-PVTZ
    Blend: AUG-CC-PVTZ
  Basis Set: (AUG-CC-PVTZ AUX)
    Blend: AUG-CC-PVTZ-JKFIT

    Orbital Energies [Eh]
    ---------------------

    Doubly Occupied:

       1A    -20.388913     2A    -20.322081     3A    -20.313903
       4A    -15.439734     5A    -11.225161     6A    -11.161448
       7A    -11.136964     8A    -11.125514     9A    -11.116849
      10A    -11.076129    11A     -1.230415    12A     -1.191343
      13A     -1.096319    14A     -1.080379    15A     -0.953269
      16A     -0.879269    17A     -0.787821    18A     -0.724234
      19A     -0.638241    20A     -0.590385    21A     -0.545325
      22A     -0.534685    23A     -0.508597    24A     -0.479339
      25A     -0.466043    26A     -0.437305    27A     -0.427615
      28A     -0.420163    29A     -0.412709    30A     -0.404057
      31A     -0.396873    32A     -0.373270    33A     -0.369257
      34A     -0.336569    35A     -0.299768    36A     -0.255015
      37A     -0.237341    38A     -0.225776    39A     -0.215774

  @DF-RHF Final Energy:  -512.33248143184505

   => Energetics <=

    Nuclear Repulsion Energy =            533.4124253907606317
    One-Electron Energy =               -1771.8421112104122130
    Two-Electron Energy =                 726.0972043878066415
    Total Energy =                       -512.3324814318450535
  Basis Set: (AUG-CC-PVTZ AUX)
    Blend: AUG-CC-PVTZ-RI
    Molecular point group: c1

    Geometry (in Angstrom), charge = -1, multiplicity = 1:

       Center              X                  Y                   Z               Mass
    ------------   -----------------  -----------------  -----------------  -----------------
         O           -1.684654827665     1.305551512392    -0.547199826846    15.994914619570
         O            1.936898172335    -1.711569487608     0.210241173154    15.994914619570
         O            3.298058172335    -0.041582487608    -0.523483826846    15.994914619570
         N           -0.197004827665    -0.230465487608     0.249667173154    14.003074004430
         C            1.019379672335     0.460835912392    -0.145036026846    12.000000000000
         C            1.296052172335     1.668038512392     0.753019173154    12.000000000000
         C           -2.555360827665    -0.786114487608     0.328521173154    12.000000000000
         C           -1.455945427665     0.176927412392    -0.025067026846    12.000000000000
         C            2.190929172335    -0.523546487608    -0.159115826846    12.000000000000
         C           -3.929101827665    -0.317270487608    -0.131808826846    12.000000000000
         H            0.872817172335     0.846136512392    -1.183546826846     1.007825032230
         H           -0.015000827665    -1.206089487608     0.480625173154     1.007825032230
         H            1.447125172335     1.321727512392     1.780672173154     1.007825032230
         H            2.202903172335     2.176347512392     0.418880173154     1.007825032230
         H            0.459855172335     2.371355512392     0.738829173154     1.007825032230
         H           -2.314815827665    -1.762882487608    -0.107481826846     1.007825032230
         H           -2.541075827665    -0.926973487608     1.415587173154     1.007825032230
         H           -4.181808827665     0.644203512392     0.319132173154     1.007825032230
         H           -3.956056827665    -0.196052487608    -1.216965826846     1.007825032230
         H           -4.693939827665    -1.045053487608     0.152814173154     1.007825032230

  Basis Set: AUG-CC-PVTZ
    Blend: AUG-CC-PVTZ
  Basis Set: (AUG-CC-PVTZ AUX)
    Blend: AUG-CC-PVTZ-JKFIT
	 Reference Energy          =    -512.3324814318450535 [Eh]
	 Singles Energy            =      -0.0000000000000000 [Eh]
	 Same-Spin Energy          =      -0.5207047609888040 [Eh]
	 Opposite-Spin Energy      =      -1.6224424231735100 [Eh]
	 Correlation Energy        =      -2.1431471841623138 [Eh]
	 Total Energy              =    -514.4756286160073842 [Eh]

	 ================> DF-SCS-MP2 Energies <==================
	-----------------------------------------------------------
	 SCS Same-Spin Scale       =       0.3333333333333333 [-]
	 SCS Opposite-Spin Scale   =       1.2000000000000000 [-]
	 SCS Same-Spin Energy      =      -0.1735682536629347 [Eh]
	 SCS Opposite-Spin Energy  =      -1.9469309078082118 [Eh]
	 SCS Correlation Energy    =      -2.1204991614711464 [Eh]
	 SCS Total Energy          =    -514.4529805933161697 [Eh]
	-----------------------------------------------------------

  Dipole Moment: [D]
     X:    -8.7117      Y:     0.5237      Z:     1.6704     Total:     8.8858

*** Psi4 exiting successfully. Buy a developer a beer!
