                               Psi4 1.3.2 release

  ==> Input File <==

--------------------------------------------------------------------------
#psi4
#
memory 32 gb

molecule  {
-1 1
  O       -1.6024110     1.2883820    -0.5634480
  O        2.0191420    -1.7287390     0.1939930
  O        3.3803020    -0.0587520    -0.5397320
  N       -0.0931744    -0.2566447     0.2784473
  C        1.0875530     0.4615680    -0.1724770
  C        1.3782960     1.6508690     0.7367710
  C       -2.4731170    -0.8032840     0.3122730
  C       -1.3649450     0.1785500    -0.0525630
  C        2.2731730    -0.5407160    -0.1753640
  C       -3.8468580    -0.3344400    -0.1480570
  H        0.9902638     0.8441284    -1.1981966
  H        0.0672430    -1.2232590     0.4643770
  H        1.5293690     1.3045580     1.7644240
  H        2.2851470     2.1591780     0.4026320
  H        0.5420990     2.3541860     0.7225810
  H       -2.2325720    -1.7800520    -0.1237300
  H       -2.4588320    -0.9441430     1.3993390
  H       -4.0995650     0.6270340     0.3028840
  H       -3.8738130    -0.2132220    -1.2332140
  H       -4.6116960    -1.0622230     0.1365660
units angstrom
no_reorient  #important for SAPT in psi4, default
symmetry c1  #important for SAPT in psi4, default
}

set PROPERTIES_ORIGIN ["COM"]
properties('MP2/aug-cc-pvtz', properties = ['dipole'])
--------------------------------------------------------------------------

    Molecular point group: c1
  Charge       = -1
  Multiplicity = 1
  Basis Set: AUG-CC-PVTZ
    Blend: AUG-CC-PVTZ
  Basis Set: (AUG-CC-PVTZ AUX)
    Blend: AUG-CC-PVTZ-JKFIT

    Orbital Energies [Eh]
    ---------------------

    Doubly Occupied:

       1A    -20.399416     2A    -20.320045     3A    -20.311769
       4A    -15.436176     5A    -11.229620     6A    -11.159486
       7A    -11.136955     8A    -11.125722     9A    -11.112805
      10A    -11.073525    11A     -1.243573    12A     -1.188890
      13A     -1.094368    14A     -1.077639    15A     -0.950592
      16A     -0.875433    17A     -0.784673    18A     -0.717109
      19A     -0.640971    20A     -0.587870    21A     -0.539540
      22A     -0.533337    23A     -0.514104    24A     -0.486658
      25A     -0.462700    26A     -0.436763    27A     -0.426806
      28A     -0.419534    29A     -0.414577    30A     -0.402430
      31A     -0.395599    32A     -0.376453    33A     -0.370400
      34A     -0.340097    35A     -0.302898    36A     -0.257939
      37A     -0.234879    38A     -0.220571    39A     -0.213833

  @DF-RHF Final Energy:  -512.33296198100925

   => Energetics <=

    Nuclear Repulsion Energy =            532.9695777112890482
    One-Electron Energy =               -1770.9735733101026653
    Two-Electron Energy =                 725.6710336178043690
    Total Energy =                       -512.3329619810092481
  Basis Set: (AUG-CC-PVTZ AUX)
    Blend: AUG-CC-PVTZ-RI
    Molecular point group: c1

    Geometry (in Angstrom), charge = -1, multiplicity = 1:

       Center              X                  Y                   Z               Mass
    ------------   -----------------  -----------------  -----------------  -----------------
         O           -1.686556664953     1.303264777239    -0.549718520730    15.994914619570
         O            1.934996335047    -1.713856222761     0.207722479270    15.994914619570
         O            3.296156335047    -0.043869222761    -0.526002520730    15.994914619570
         N           -0.177320064953    -0.241761922761     0.292176779270    14.003074004430
         C            1.003407335047     0.476450777239    -0.158747520730    12.000000000000
         C            1.294150335047     1.665751777239     0.750500479270    12.000000000000
         C           -2.557262664953    -0.788401222761     0.326002479270    12.000000000000
         C           -1.449090664953     0.193432777239    -0.038833520730    12.000000000000
         C            2.189027335047    -0.525833222761    -0.161634520730    12.000000000000
         C           -3.931003664953    -0.319557222761    -0.134327520730    12.000000000000
         H            0.906118135047     0.859011177239    -1.184467120730     1.007825032230
         H           -0.016902664953    -1.208376222761     0.478106479270     1.007825032230
         H            1.445223335047     1.319440777239     1.778153479270     1.007825032230
         H            2.201001335047     2.174060777239     0.416361479270     1.007825032230
         H            0.457953335047     2.369068777239     0.736310479270     1.007825032230
         H           -2.316717664953    -1.765169222761    -0.110000520730     1.007825032230
         H           -2.542977664953    -0.929260222761     1.413068479270     1.007825032230
         H           -4.183710664953     0.641916777239     0.316613479270     1.007825032230
         H           -3.957958664953    -0.198339222761    -1.219484520730     1.007825032230
         H           -4.695841664953    -1.047340222761     0.150295479270     1.007825032230

  Basis Set: AUG-CC-PVTZ
    Blend: AUG-CC-PVTZ
  Basis Set: (AUG-CC-PVTZ AUX)
    Blend: AUG-CC-PVTZ-JKFIT
	 Reference Energy          =    -512.3329619810092481 [Eh]
	 Singles Energy            =      -0.0000000000000000 [Eh]
	 Same-Spin Energy          =      -0.5201131607082715 [Eh]
	 Opposite-Spin Energy      =      -1.6215798397740415 [Eh]
	 Correlation Energy        =      -2.1416930004823129 [Eh]
	 Total Energy              =    -514.4746549814915397 [Eh]

	 ================> DF-SCS-MP2 Energies <==================
	-----------------------------------------------------------
	 SCS Same-Spin Scale       =       0.3333333333333333 [-]
	 SCS Opposite-Spin Scale   =       1.2000000000000000 [-]
	 SCS Same-Spin Energy      =      -0.1733710535694238 [Eh]
	 SCS Opposite-Spin Energy  =      -1.9458958077288497 [Eh]
	 SCS Correlation Energy    =      -2.1192668612982737 [Eh]
	 SCS Total Energy          =    -514.4522288423074770 [Eh]
	-----------------------------------------------------------

  Dipole Moment: [D]
     X:    -8.9264      Y:     0.6863      Z:     1.5039     Total:     9.0782

*** Psi4 exiting successfully. Buy a developer a beer!
