                               Psi4 1.3.2 release

  ==> Input File <==

--------------------------------------------------------------------------
#psi4
#
memory 32 gb

molecule  {
-1 1
  O       -1.6024110     1.2883820    -0.5634480
  O        2.0191420    -1.7287390     0.1939930
  O        3.3803020    -0.0587520    -0.5397320
  N       -0.1061344    -0.2274193     0.2248611
  C        1.0875530     0.4615680    -0.1724770
  C        1.3782960     1.6508690     0.7367710
  C       -2.4911413    -0.7859951     0.3030816
  C       -1.3649450     0.1785500    -0.0525630
  C        2.2731730    -0.5407160    -0.1753640
  C       -3.8468580    -0.3344400    -0.1480570
  H        0.9550610     0.8289670    -1.1997950
  H        0.0672430    -1.2232590     0.4643770
  H        1.5293690     1.3045580     1.7644240
  H        2.2851470     2.1591780     0.4026320
  H        0.5420990     2.3541860     0.7225810
  H       -2.2325720    -1.7800520    -0.1237300
  H       -2.4588320    -0.9441430     1.3993390
  H       -4.0995650     0.6270340     0.3028840
  H       -3.8738130    -0.2132220    -1.2332140
  H       -4.6116960    -1.0622230     0.1365660
units angstrom
no_reorient  #important for SAPT in psi4, default
symmetry c1  #important for SAPT in psi4, default
}

set PROPERTIES_ORIGIN ["COM"]
properties('MP2/aug-cc-pvtz', properties = ['dipole'])
--------------------------------------------------------------------------

    Molecular point group: c1
  Charge       = -1
  Multiplicity = 1
  Basis Set: AUG-CC-PVTZ
    Blend: AUG-CC-PVTZ
  Basis Set: (AUG-CC-PVTZ AUX)
    Blend: AUG-CC-PVTZ-JKFIT

    Orbital Energies [Eh]
    ---------------------

    Doubly Occupied:

       1A    -20.390041     2A    -20.322533     3A    -20.313739
       4A    -15.438740     5A    -11.223257     6A    -11.162030
       7A    -11.137953     8A    -11.124252     9A    -11.113294
      10A    -11.074821    11A     -1.241712    12A     -1.190682
      13A     -1.096814    14A     -1.081592    15A     -0.953716
      16A     -0.878810    17A     -0.784106    18A     -0.721771
      19A     -0.633656    20A     -0.589341    21A     -0.545271
      22A     -0.532220    23A     -0.511423    24A     -0.482892
      25A     -0.466704    26A     -0.439965    27A     -0.430152
      28A     -0.418759    29A     -0.413176    30A     -0.403085
      31A     -0.395694    32A     -0.373952    33A     -0.369140
      34A     -0.341320    35A     -0.298867    36A     -0.255077
      37A     -0.236904    38A     -0.223113    39A     -0.215432

  @DF-RHF Final Energy:  -512.33378892635562

   => Energetics <=

    Nuclear Repulsion Energy =            533.7717499890327417
    One-Electron Energy =               -1772.5590605711461194
    Two-Electron Energy =                 726.4535216557577542
    Total Energy =                       -512.3337889263556235
  Basis Set: (AUG-CC-PVTZ AUX)
    Blend: AUG-CC-PVTZ-RI
    Molecular point group: c1

    Geometry (in Angstrom), charge = -1, multiplicity = 1:

       Center              X                  Y                   Z               Mass
    ------------   -----------------  -----------------  -----------------  -----------------
         O           -1.683549366235     1.299090080114    -0.543733216608    15.994914619570
         O            1.938003633765    -1.718030919886     0.213707783392    15.994914619570
         O            3.299163633765    -0.048043919886    -0.520017216608    15.994914619570
         N           -0.187272766235    -0.216711219886     0.244575883392    14.003074004430
         C            1.006414633765     0.472276080114    -0.152762216608    12.000000000000
         C            1.297157633765     1.661577080114     0.756485783392    12.000000000000
         C           -2.572279666235    -0.775287019886     0.322796383392    12.000000000000
         C           -1.446083366235     0.189258080114    -0.032848216608    12.000000000000
         C            2.192034633765    -0.530007919886    -0.155649216608    12.000000000000
         C           -3.927996366235    -0.323731919886    -0.128342216608    12.000000000000
         H            0.873922633765     0.839675080114    -1.180080216608     1.007825032230
         H           -0.013895366235    -1.212550919886     0.484091783392     1.007825032230
         H            1.448230633765     1.315266080114     1.784138783392     1.007825032230
         H            2.204008633765     2.169886080114     0.422346783392     1.007825032230
         H            0.460960633765     2.364894080114     0.742295783392     1.007825032230
         H           -2.313710366235    -1.769343919886    -0.104015216608     1.007825032230
         H           -2.539970366235    -0.933434919886     1.419053783392     1.007825032230
         H           -4.180703366235     0.637742080114     0.322598783392     1.007825032230
         H           -3.954951366235    -0.202513919886    -1.213499216608     1.007825032230
         H           -4.692834366235    -1.051514919886     0.156280783392     1.007825032230

  Basis Set: AUG-CC-PVTZ
    Blend: AUG-CC-PVTZ
  Basis Set: (AUG-CC-PVTZ AUX)
    Blend: AUG-CC-PVTZ-JKFIT
	 Reference Energy          =    -512.3337889263556235 [Eh]
	 Singles Energy            =      -0.0000000000000000 [Eh]
	 Same-Spin Energy          =      -0.5206084459254576 [Eh]
	 Opposite-Spin Energy      =      -1.6217788253734531 [Eh]
	 Correlation Energy        =      -2.1423872712989107 [Eh]
	 Total Energy              =    -514.4761761976545813 [Eh]

	 ================> DF-SCS-MP2 Energies <==================
	-----------------------------------------------------------
	 SCS Same-Spin Scale       =       0.3333333333333333 [-]
	 SCS Opposite-Spin Scale   =       1.2000000000000000 [-]
	 SCS Same-Spin Energy      =      -0.1735361486418192 [Eh]
	 SCS Opposite-Spin Energy  =      -1.9461345904481435 [Eh]
	 SCS Correlation Energy    =      -2.1196707390899627 [Eh]
	 SCS Total Energy          =    -514.4534596654456209 [Eh]
	-----------------------------------------------------------

  Dipole Moment: [D]
     X:    -8.7272      Y:     0.5962      Z:     1.6020     Total:     8.8930

*** Psi4 exiting successfully. Buy a developer a beer!
