                               Psi4 1.4a3.dev225

  ==> Input File <==

--------------------------------------------------------------------------
#psi4
#
memory 32 gb

molecule  {
-1 1
  O       -1.5868420     1.2523650    -0.8113290
  O        2.0299390    -1.6922460     0.2543140
  O        3.4074630     0.0142020    -0.3584910
  N       -0.1383540    -0.2870410     0.0455440
  C        1.0782140     0.4735880    -0.1782270
  C        1.2275190     1.6106150     0.8299030
  C       -2.4816390    -0.8906360    -0.1487800
  C       -1.4008902     0.0884195    -0.3282612
  C        2.2855270    -0.4976230    -0.0923730
  C       -3.7126180    -0.2515540     0.4884160
  H        1.0494870     0.8996880    -1.1894520
  H        0.0515970    -1.2513350     0.3145600
  H        1.2660770     1.2028380     1.8451460
  H        2.1536960     2.1558630     0.6353850
  H        0.3800930     2.2967220     0.7589720
  H       -2.7387560    -1.2794370    -1.1416750
  H       -2.1327770    -1.7398080     0.4477120
  H       -3.4838230     0.1112750     1.4946450
  H       -4.0489630     0.5957980    -0.1116680
  H       -4.5299760    -0.9736440     0.5641870
units angstrom
no_reorient  #important for SAPT in psi4, default
symmetry c1  #important for SAPT in psi4, default
}

set PROPERTIES_ORIGIN ["COM"]
properties('MP2/aug-cc-pvtz', properties = ['dipole'])
--------------------------------------------------------------------------

    Molecular point group: c1
  Charge       = -1
  Multiplicity = 1
  Basis Set: AUG-CC-PVTZ
    Blend: AUG-CC-PVTZ
  Basis Set: (AUG-CC-PVTZ AUX)
    Blend: AUG-CC-PVTZ-JKFIT

    Orbital Energies [Eh]
    ---------------------

    Doubly Occupied:

       1A    -20.385570     2A    -20.322073     3A    -20.314052
       4A    -15.442121     5A    -11.226074     6A    -11.162099
       7A    -11.137279     8A    -11.130675     9A    -11.114978
      10A    -11.075966    11A     -1.224031    12A     -1.190034
      13A     -1.094104    14A     -1.076350    15A     -0.960720
      16A     -0.877686    17A     -0.792499    18A     -0.723885
      19A     -0.638355    20A     -0.589942    21A     -0.550463
      22A     -0.527548    23A     -0.511683    24A     -0.477977
      25A     -0.460678    26A     -0.445469    27A     -0.435079
      28A     -0.419142    29A     -0.411006    30A     -0.405218
      31A     -0.395784    32A     -0.372675    33A     -0.366988
      34A     -0.337965    35A     -0.298992    36A     -0.254405
      37A     -0.236878    38A     -0.222777    39A     -0.215029

  @DF-RHF Final Energy:  -512.32928851762881

   => Energetics <=

    Nuclear Repulsion Energy =            533.9199323389429992
    One-Electron Energy =               -1772.8499432823739426
    Two-Electron Energy =                 726.6007224258021324
    Total Energy =                       -512.3292885176288110
  Basis Set: (AUG-CC-PVTZ AUX)
    Blend: AUG-CC-PVTZ-RI
    Molecular point group: c1

    Geometry (in Angstrom), charge = -1, multiplicity = 1:

       Center              X                  Y                   Z               Mass
    ------------   -----------------  -----------------  -----------------  -----------------
         O           -1.666512699484     1.269028819967    -0.786955257800    15.994914619570
         O            1.950268300516    -1.675582180033     0.278687742200    15.994914619570
         O            3.327792300516     0.030865819967    -0.334117257800    15.994914619570
         N           -0.218024699484    -0.270377180033     0.069917742200    14.003074004430
         C            0.998543300516     0.490251819967    -0.153853257800    12.000000000000
         C            1.147848300516     1.627278819967     0.854276742200    12.000000000000
         C           -2.561309699484    -0.873972180033    -0.124406257800    12.000000000000
         C           -1.480560899484     0.105083319967    -0.303887457800    12.000000000000
         C            2.205856300516    -0.480959180033    -0.067999257800    12.000000000000
         C           -3.792288699484    -0.234890180033     0.512789742200    12.000000000000
         H            0.969816300516     0.916351819967    -1.165078257800     1.007825032230
         H           -0.028073699484    -1.234671180033     0.338933742200     1.007825032230
         H            1.186406300516     1.219501819967     1.869519742200     1.007825032230
         H            2.074025300516     2.172526819967     0.659758742200     1.007825032230
         H            0.300422300516     2.313385819967     0.783345742200     1.007825032230
         H           -2.818426699484    -1.262773180033    -1.117301257800     1.007825032230
         H           -2.212447699484    -1.723144180033     0.472085742200     1.007825032230
         H           -3.563493699484     0.127938819967     1.519018742200     1.007825032230
         H           -4.128633699484     0.612461819967    -0.087294257800     1.007825032230
         H           -4.609646699484    -0.956980180033     0.588560742200     1.007825032230

  Basis Set: AUG-CC-PVTZ
    Blend: AUG-CC-PVTZ
  Basis Set: (AUG-CC-PVTZ AUX)
    Blend: AUG-CC-PVTZ-JKFIT
	 Reference Energy          =    -512.3292885176288110 [Eh]
	 Singles Energy            =      -0.0000000000000000 [Eh]
	 Same-Spin Energy          =      -0.5214243772476694 [Eh]
	 Opposite-Spin Energy      =      -1.6236730686861864 [Eh]
	 Correlation Energy        =      -2.1450974459338559 [Eh]
	 Total Energy              =    -514.4743859635626677 [Eh]

	 ================> DF-SCS-MP2 Energies <==================
	-----------------------------------------------------------
	 SCS Same-Spin Scale       =       0.3333333333333333 [-]
	 SCS Opposite-Spin Scale   =       1.2000000000000000 [-]
	 SCS Same-Spin Energy      =      -0.1738081257492231 [Eh]
	 SCS Opposite-Spin Energy  =      -1.9484076824234235 [Eh]
	 SCS Correlation Energy    =      -2.1222158081726468 [Eh]
	 SCS Total Energy          =    -514.4515043258014657 [Eh]
	-----------------------------------------------------------

  Dipole Moment: [D]
     X:    -8.8575      Y:     0.2184      Z:     1.2595     Total:     8.9492

*** Psi4 exiting successfully. Buy a developer a beer!
