                               Psi4 1.3.2 release

  ==> Input File <==

--------------------------------------------------------------------------
#psi4
#
memory 32 gb

molecule  {
-1 1
  O       -1.6917330     1.1059002    -0.4661134
  O        2.0191420    -1.7287390     0.1939930
  O        3.4095510    -0.1135773    -0.5173955
  N       -0.1147610    -0.2476350     0.2334190
  C        1.0875530     0.4615680    -0.1724770
  C        1.3782960     1.6508690     0.7367710
  C       -2.4731170    -0.8032840     0.3122730
  C       -1.3649450     0.1785500    -0.0525630
  C        2.2731730    -0.5407160    -0.1753640
  C       -3.8468580    -0.3344400    -0.1480570
  H        0.9550610     0.8289670    -1.1997950
  H        0.0672430    -1.2232590     0.4643770
  H        1.5293690     1.3045580     1.7644240
  H        2.2851470     2.1591780     0.4026320
  H        0.5420990     2.3541860     0.7225810
  H       -2.2325720    -1.7800520    -0.1237300
  H       -2.4588320    -0.9441430     1.3993390
  H       -4.0995650     0.6270340     0.3028840
  H       -3.8738130    -0.2132220    -1.2332140
  H       -4.6116960    -1.0622230     0.1365660
units angstrom
no_reorient  #important for SAPT in psi4, default
symmetry c1  #important for SAPT in psi4, default
}

set PROPERTIES_ORIGIN ["COM"]
properties('MP2/aug-cc-pvtz', properties = ['dipole'])
--------------------------------------------------------------------------

    Molecular point group: c1
  Charge       = -1
  Multiplicity = 1
  Basis Set: AUG-CC-PVTZ
    Blend: AUG-CC-PVTZ
  Basis Set: (AUG-CC-PVTZ AUX)
    Blend: AUG-CC-PVTZ-JKFIT

    Orbital Energies [Eh]
    ---------------------

    Doubly Occupied:

       1A    -20.396711     2A    -20.314753     3A    -20.309483
       4A    -15.417126     5A    -11.192106     6A    -11.157638
       7A    -11.118651     8A    -11.115278     9A    -11.112252
      10A    -11.078258    11A     -1.369839    12A     -1.187506
      13A     -1.092525    14A     -1.074652    15A     -0.938165
      16A     -0.877220    17A     -0.775604    18A     -0.720156
      19A     -0.634085    20A     -0.597872    21A     -0.554642
      22A     -0.544350    23A     -0.536670    24A     -0.494358
      25A     -0.472694    26A     -0.454714    27A     -0.433184
      28A     -0.418632    29A     -0.413313    30A     -0.402138
      31A     -0.394094    32A     -0.388212    33A     -0.370570
      34A     -0.345117    35A     -0.287813    36A     -0.255107
      37A     -0.229976    38A     -0.220692    39A     -0.209552

  @DF-RHF Final Energy:  -512.29308271335447

   => Energetics <=

    Nuclear Repulsion Energy =            538.8544636628037097
    One-Electron Energy =               -1782.4836752893420453
    Two-Electron Energy =                 731.3361289131838703
    Total Energy =                       -512.2930827133544653
  Basis Set: (AUG-CC-PVTZ AUX)
    Blend: AUG-CC-PVTZ-RI
    Molecular point group: c1

    Geometry (in Angstrom), charge = -1, multiplicity = 1:

       Center              X                  Y                   Z               Mass
    ------------   -----------------  -----------------  -----------------  -----------------
         O           -1.766864609508     1.146360293203    -0.461282501210    15.994914619570
         O            1.944010390492    -1.688278906797     0.198823898790    15.994914619570
         O            3.334419390492    -0.073117206797    -0.512564601210    15.994914619570
         N           -0.189892609508    -0.207174906797     0.238249898790    14.003074004430
         C            1.012421390492     0.502028093203    -0.167646101210    12.000000000000
         C            1.303164390492     1.691329093203     0.741601898790    12.000000000000
         C           -2.548248609508    -0.762823906797     0.317103898790    12.000000000000
         C           -1.440076609508     0.219010093203    -0.047732101210    12.000000000000
         C            2.198041390492    -0.500255906797    -0.170533101210    12.000000000000
         C           -3.921989609508    -0.293979906797    -0.143226101210    12.000000000000
         H            0.879929390492     0.869427093203    -1.194964101210     1.007825032230
         H           -0.007888609508    -1.182798906797     0.469207898790     1.007825032230
         H            1.454237390492     1.345018093203     1.769254898790     1.007825032230
         H            2.210015390492     2.199638093203     0.407462898790     1.007825032230
         H            0.466967390492     2.394646093203     0.727411898790     1.007825032230
         H           -2.307703609508    -1.739591906797    -0.118899101210     1.007825032230
         H           -2.533963609508    -0.903682906797     1.404169898790     1.007825032230
         H           -4.174696609508     0.667494093203     0.307714898790     1.007825032230
         H           -3.948944609508    -0.172761906797    -1.228383101210     1.007825032230
         H           -4.686827609508    -1.021762906797     0.141396898790     1.007825032230

  Basis Set: AUG-CC-PVTZ
    Blend: AUG-CC-PVTZ
  Basis Set: (AUG-CC-PVTZ AUX)
    Blend: AUG-CC-PVTZ-JKFIT
	 Reference Energy          =    -512.2930827133544653 [Eh]
	 Singles Energy            =      -0.0000000000000000 [Eh]
	 Same-Spin Energy          =      -0.5164334557634035 [Eh]
	 Opposite-Spin Energy      =      -1.6117430378386333 [Eh]
	 Correlation Energy        =      -2.1281764936020369 [Eh]
	 Total Energy              =    -514.4212592069565062 [Eh]

	 ================> DF-SCS-MP2 Energies <==================
	-----------------------------------------------------------
	 SCS Same-Spin Scale       =       0.3333333333333333 [-]
	 SCS Opposite-Spin Scale   =       1.2000000000000000 [-]
	 SCS Same-Spin Energy      =      -0.1721444852544678 [Eh]
	 SCS Opposite-Spin Energy  =      -1.9340916454063599 [Eh]
	 SCS Correlation Energy    =      -2.1062361306608279 [Eh]
	 SCS Total Energy          =    -514.3993188440152835 [Eh]
	-----------------------------------------------------------

  Dipole Moment: [D]
     X:    -9.0013      Y:     1.6731      Z:     1.1232     Total:     9.2241

*** Psi4 exiting successfully. Buy a developer a beer!
