                               Psi4 1.4a3.dev225

  ==> Input File <==

--------------------------------------------------------------------------
#psi4
#
memory 32 gb

molecule  {
-1 1
  O       -1.5868420     1.2523650    -0.8113290
  O        2.0299390    -1.6922460     0.2543140
  O        3.4074630     0.0142020    -0.3584910
  N       -0.1383540    -0.2870410     0.0455440
  C        1.0782140     0.4735880    -0.1782270
  C        1.2275190     1.6106150     0.8299030
  C       -2.4816390    -0.8906360    -0.1487800
  C       -1.3466760     0.1124182    -0.3313448
  C        2.2855270    -0.4976230    -0.0923730
  C       -3.7126180    -0.2515540     0.4884160
  H        1.0494870     0.8996880    -1.1894520
  H        0.0515970    -1.2513350     0.3145600
  H        1.2660770     1.2028380     1.8451460
  H        2.1536960     2.1558630     0.6353850
  H        0.3800930     2.2967220     0.7589720
  H       -2.7387560    -1.2794370    -1.1416750
  H       -2.1327770    -1.7398080     0.4477120
  H       -3.4838230     0.1112750     1.4946450
  H       -4.0489630     0.5957980    -0.1116680
  H       -4.5299760    -0.9736440     0.5641870
units angstrom
no_reorient  #important for SAPT in psi4, default
symmetry c1  #important for SAPT in psi4, default
}

set PROPERTIES_ORIGIN ["COM"]
properties('MP2/aug-cc-pvtz', properties = ['dipole'])
--------------------------------------------------------------------------

    Molecular point group: c1
  Charge       = -1
  Multiplicity = 1
  Basis Set: AUG-CC-PVTZ
    Blend: AUG-CC-PVTZ
  Basis Set: (AUG-CC-PVTZ AUX)
    Blend: AUG-CC-PVTZ-JKFIT

    Orbital Energies [Eh]
    ---------------------

    Doubly Occupied:

       1A    -20.383237     2A    -20.324819     3A    -20.316112
       4A    -15.445929     5A    -11.221136     6A    -11.164398
       7A    -11.134216     8A    -11.126524     9A    -11.117445
      10A    -11.078568    11A     -1.231435    12A     -1.192598
      13A     -1.101732    14A     -1.085874    15A     -0.948640
      16A     -0.882435    17A     -0.783465    18A     -0.727624
      19A     -0.646541    20A     -0.589461    21A     -0.546119
      22A     -0.522508    23A     -0.515537    24A     -0.479995
      25A     -0.465267    26A     -0.441889    27A     -0.435496
      28A     -0.419269    29A     -0.409423    30A     -0.407104
      31A     -0.395520    32A     -0.375609    33A     -0.370051
      34A     -0.340909    35A     -0.293750    36A     -0.260357
      37A     -0.239703    38A     -0.225099    39A     -0.217799

  @DF-RHF Final Energy:  -512.33581735381017

   => Energetics <=

    Nuclear Repulsion Energy =            534.4286188490503946
    One-Electron Energy =               -1773.8016833350595789
    Two-Electron Energy =                 727.0372471321991270
    Total Energy =                       -512.3358173538101710
  Basis Set: (AUG-CC-PVTZ AUX)
    Blend: AUG-CC-PVTZ-RI
    Molecular point group: c1

    Geometry (in Angstrom), charge = -1, multiplicity = 1:

       Center              X                  Y                   Z               Mass
    ------------   -----------------  -----------------  -----------------  -----------------
         O           -1.671028477614     1.267029845444    -0.786698408977    15.994914619570
         O            1.945752522386    -1.677581154556     0.278944591023    15.994914619570
         O            3.323276522386     0.028866845444    -0.333860408977    15.994914619570
         N           -0.222540477614    -0.272376154556     0.070174591023    14.003074004430
         C            0.994027522386     0.488252845444    -0.153596408977    12.000000000000
         C            1.143332522386     1.625279845444     0.854533591023    12.000000000000
         C           -2.565825477614    -0.875971154556    -0.124149408977    12.000000000000
         C           -1.430862477614     0.127083045444    -0.306714208977    12.000000000000
         C            2.201340522386    -0.482958154556    -0.067742408977    12.000000000000
         C           -3.796804477614    -0.236889154556     0.513046591023    12.000000000000
         H            0.965300522386     0.914352845444    -1.164821408977     1.007825032230
         H           -0.032589477614    -1.236670154556     0.339190591023     1.007825032230
         H            1.181890522386     1.217502845444     1.869776591023     1.007825032230
         H            2.069509522386     2.170527845444     0.660015591023     1.007825032230
         H            0.295906522386     2.311386845444     0.783602591023     1.007825032230
         H           -2.822942477614    -1.264772154556    -1.117044408977     1.007825032230
         H           -2.216963477614    -1.725143154556     0.472342591023     1.007825032230
         H           -3.568009477614     0.125939845444     1.519275591023     1.007825032230
         H           -4.133149477614     0.610462845444    -0.087037408977     1.007825032230
         H           -4.614162477614    -0.958979154556     0.588817591023     1.007825032230

  Basis Set: AUG-CC-PVTZ
    Blend: AUG-CC-PVTZ
  Basis Set: (AUG-CC-PVTZ AUX)
    Blend: AUG-CC-PVTZ-JKFIT
	 Reference Energy          =    -512.3358173538101710 [Eh]
	 Singles Energy            =      -0.0000000000000000 [Eh]
	 Same-Spin Energy          =      -0.5205115826211011 [Eh]
	 Opposite-Spin Energy      =      -1.6219806640573098 [Eh]
	 Correlation Energy        =      -2.1424922466784109 [Eh]
	 Total Energy              =    -514.4783096004886147 [Eh]

	 ================> DF-SCS-MP2 Energies <==================
	-----------------------------------------------------------
	 SCS Same-Spin Scale       =       0.3333333333333333 [-]
	 SCS Opposite-Spin Scale   =       1.2000000000000000 [-]
	 SCS Same-Spin Energy      =      -0.1735038608737003 [Eh]
	 SCS Opposite-Spin Energy  =      -1.9463767968687717 [Eh]
	 SCS Correlation Energy    =      -2.1198806577424723 [Eh]
	 SCS Total Energy          =    -514.4556980115526130 [Eh]
	-----------------------------------------------------------

  Dipole Moment: [D]
     X:    -8.4756      Y:     0.3171      Z:     1.2841     Total:     8.5782

*** Psi4 exiting successfully. Buy a developer a beer!
