                               Psi4 1.4a3.dev225

  ==> Input File <==

--------------------------------------------------------------------------
#psi4
#
memory 32 gb

molecule  {
-1 1
  O       -1.5868420     1.2523650    -0.8113290
  O        2.0299390    -1.6922460     0.2543140
  O        3.4074630     0.0142020    -0.3584910
  N       -0.1383540    -0.2870410     0.0455440
  C        1.0782140     0.4735880    -0.1782270
  C        1.2275190     1.6106150     0.8299030
  C       -2.4816390    -0.8906360    -0.1487800
  C       -1.3641120     0.1217370    -0.3343690
  C        2.2855270    -0.4976230    -0.0923730
  C       -3.7126180    -0.2515540     0.4884160
  H        1.0500104     0.8919245    -1.1710277
  H        0.0515970    -1.2513350     0.3145600
  H        1.2660770     1.2028380     1.8451460
  H        2.1536960     2.1558630     0.6353850
  H        0.3800930     2.2967220     0.7589720
  H       -2.7387560    -1.2794370    -1.1416750
  H       -2.1327770    -1.7398080     0.4477120
  H       -3.4838230     0.1112750     1.4946450
  H       -4.0489630     0.5957980    -0.1116680
  H       -4.5299760    -0.9736440     0.5641870
units angstrom
no_reorient  #important for SAPT in psi4, default
symmetry c1  #important for SAPT in psi4, default
}

set PROPERTIES_ORIGIN ["COM"]
properties('MP2/aug-cc-pvtz', properties = ['dipole'])
--------------------------------------------------------------------------

    Molecular point group: c1
  Charge       = -1
  Multiplicity = 1
  Basis Set: AUG-CC-PVTZ
    Blend: AUG-CC-PVTZ
  Basis Set: (AUG-CC-PVTZ AUX)
    Blend: AUG-CC-PVTZ-JKFIT

    Orbital Energies [Eh]
    ---------------------

    Doubly Occupied:

       1A    -20.387341     2A    -20.323278     3A    -20.314936
       4A    -15.442150     5A    -11.222436     6A    -11.162879
       7A    -11.134514     8A    -11.127303     9A    -11.113153
      10A    -11.077228    11A     -1.238574    12A     -1.191484
      13A     -1.098240    14A     -1.082653    15A     -0.950488
      16A     -0.880073    17A     -0.783991    18A     -0.725694
      19A     -0.644115    20A     -0.589064    21A     -0.546840
      22A     -0.523306    23A     -0.515683    24A     -0.483326
      25A     -0.463771    26A     -0.443048    27A     -0.434889
      28A     -0.419015    29A     -0.411580    30A     -0.406033
      31A     -0.395595    32A     -0.375855    33A     -0.369972
      34A     -0.342173    35A     -0.296844    36A     -0.258640
      37A     -0.238276    38A     -0.223648    39A     -0.216361

  @DF-RHF Final Energy:  -512.33670406855936

   => Energetics <=

    Nuclear Repulsion Energy =            534.4381364645400936
    One-Electron Energy =               -1773.8407857949464415
    Two-Electron Energy =                 727.0659452618469913
    Total Energy =                       -512.3367040685593565
  Basis Set: (AUG-CC-PVTZ AUX)
    Blend: AUG-CC-PVTZ-RI
    Molecular point group: c1

    Geometry (in Angstrom), charge = -1, multiplicity = 1:

       Center              X                  Y                   Z               Mass
    ------------   -----------------  -----------------  -----------------  -----------------
         O           -1.669579805439     1.266307945057    -0.786575396463    15.994914619570
         O            1.947201194561    -1.678303054943     0.279067603537    15.994914619570
         O            3.324725194561     0.028144945057    -0.333737396463    15.994914619570
         N           -0.221091805439    -0.273098054943     0.070297603537    14.003074004430
         C            0.995476194561     0.487530945057    -0.153473396463    12.000000000000
         C            1.144781194561     1.624557945057     0.854656603537    12.000000000000
         C           -2.564376805439    -0.876693054943    -0.124026396463    12.000000000000
         C           -1.446849805439     0.135679945057    -0.309615396463    12.000000000000
         C            2.202789194561    -0.483680054943    -0.067619396463    12.000000000000
         C           -3.795355805439    -0.237611054943     0.513169603537    12.000000000000
         H            0.967272594561     0.905867445057    -1.146274096463     1.007825032230
         H           -0.031140805439    -1.237392054943     0.339313603537     1.007825032230
         H            1.183339194561     1.216780945057     1.869899603537     1.007825032230
         H            2.070958194561     2.169805945057     0.660138603537     1.007825032230
         H            0.297355194561     2.310664945057     0.783725603537     1.007825032230
         H           -2.821493805439    -1.265494054943    -1.116921396463     1.007825032230
         H           -2.215514805439    -1.725865054943     0.472465603537     1.007825032230
         H           -3.566560805439     0.125217945057     1.519398603537     1.007825032230
         H           -4.131700805439     0.609740945057    -0.086914396463     1.007825032230
         H           -4.612713805439    -0.959701054943     0.588940603537     1.007825032230

  Basis Set: AUG-CC-PVTZ
    Blend: AUG-CC-PVTZ
  Basis Set: (AUG-CC-PVTZ AUX)
    Blend: AUG-CC-PVTZ-JKFIT
	 Reference Energy          =    -512.3367040685593565 [Eh]
	 Singles Energy            =      -0.0000000000000000 [Eh]
	 Same-Spin Energy          =      -0.5203865189841087 [Eh]
	 Opposite-Spin Energy      =      -1.6216314341724281 [Eh]
	 Correlation Energy        =      -2.1420179531565369 [Eh]
	 Total Energy              =    -514.4787220217158392 [Eh]

	 ================> DF-SCS-MP2 Energies <==================
	-----------------------------------------------------------
	 SCS Same-Spin Scale       =       0.3333333333333333 [-]
	 SCS Opposite-Spin Scale   =       1.2000000000000000 [-]
	 SCS Same-Spin Energy      =      -0.1734621729947029 [Eh]
	 SCS Opposite-Spin Energy  =      -1.9459577210069137 [Eh]
	 SCS Correlation Energy    =      -2.1194198940016165 [Eh]
	 SCS Total Energy          =    -514.4561239625609232 [Eh]
	-----------------------------------------------------------

  Dipole Moment: [D]
     X:    -8.6439      Y:     0.3814      Z:     1.2183     Total:     8.7377

*** Psi4 exiting successfully. Buy a developer a beer!
