                               Psi4 1.3.2 release

  ==> Input File <==

--------------------------------------------------------------------------
#psi4
#
memory 32 gb

molecule  {
-1 1
  O       -1.6024110     1.2883820    -0.5634480
  O        2.0191420    -1.7287390     0.1939930
  O        3.3803020    -0.0587520    -0.5397320
  N       -0.1147610    -0.2476350     0.2334190
  C        1.0875530     0.4615680    -0.1724770
  C        1.3782960     1.6508690     0.7367710
  C       -2.4731170    -0.8032840     0.3122730
  C       -1.4044628     0.2349247    -0.0121487
  C        2.2731730    -0.5407160    -0.1753640
  C       -3.8468580    -0.3344400    -0.1480570
  H        0.9550610     0.8289670    -1.1997950
  H        0.0672430    -1.2232590     0.4643770
  H        1.5293690     1.3045580     1.7644240
  H        2.2851470     2.1591780     0.4026320
  H        0.5420990     2.3541860     0.7225810
  H       -2.2811397    -1.8004878    -0.1009649
  H       -2.4588320    -0.9441430     1.3993390
  H       -4.0995650     0.6270340     0.3028840
  H       -3.8738130    -0.2132220    -1.2332140
  H       -4.6116960    -1.0622230     0.1365660
units angstrom
no_reorient  #important for SAPT in psi4, default
symmetry c1  #important for SAPT in psi4, default
}

set PROPERTIES_ORIGIN ["COM"]
properties('MP2/aug-cc-pvtz', properties = ['dipole'])
--------------------------------------------------------------------------

    Molecular point group: c1
  Charge       = -1
  Multiplicity = 1
  Basis Set: AUG-CC-PVTZ
    Blend: AUG-CC-PVTZ
  Basis Set: (AUG-CC-PVTZ AUX)
    Blend: AUG-CC-PVTZ-JKFIT

    Orbital Energies [Eh]
    ---------------------

    Doubly Occupied:

       1A    -20.403914     2A    -20.318858     3A    -20.310834
       4A    -15.428438     5A    -11.227151     6A    -11.158648
       7A    -11.135867     8A    -11.125263     9A    -11.109954
      10A    -11.073386    11A     -1.269617    12A     -1.187448
      13A     -1.090064    14A     -1.070079    15A     -0.951351
      16A     -0.871379    17A     -0.782444    18A     -0.715059
      19A     -0.634404    20A     -0.590345    21A     -0.541031
      22A     -0.531951    23A     -0.516012    24A     -0.489504
      25A     -0.462999    26A     -0.438447    27A     -0.426598
      28A     -0.420648    29A     -0.415386    30A     -0.401724
      31A     -0.397012    32A     -0.379686    33A     -0.367968
      34A     -0.341761    35A     -0.305118    36A     -0.249824
      37A     -0.233509    38A     -0.219773    39A     -0.212147

  @DF-RHF Final Energy:  -512.33057785580513

   => Energetics <=

    Nuclear Repulsion Energy =            533.1525391023234306
    One-Electron Energy =               -1771.3550357838480522
    Two-Electron Energy =                 725.8719188257196038
    Total Energy =                       -512.3305778558051315
  Basis Set: (AUG-CC-PVTZ AUX)
    Blend: AUG-CC-PVTZ-RI
    Molecular point group: c1

    Geometry (in Angstrom), charge = -1, multiplicity = 1:

       Center              X                  Y                   Z               Mass
    ------------   -----------------  -----------------  -----------------  -----------------
         O           -1.680580806966     1.297942329307    -0.548856203262    15.994914619570
         O            1.940972193034    -1.719178670693     0.208584796738    15.994914619570
         O            3.302132193034    -0.049191670693    -0.525140203262    15.994914619570
         N           -0.192930806966    -0.238074670693     0.248010796738    14.003074004430
         C            1.009383193034     0.471128329307    -0.157885203262    12.000000000000
         C            1.300126193034     1.660429329307     0.751362796738    12.000000000000
         C           -2.551286806966    -0.793723670693     0.326864796738    12.000000000000
         C           -1.482632606966     0.244485029307     0.002443096738    12.000000000000
         C            2.195003193034    -0.531155670693    -0.160772203262    12.000000000000
         C           -3.925027806966    -0.324879670693    -0.133465203262    12.000000000000
         H            0.876891193034     0.838527329307    -1.185203203262     1.007825032230
         H           -0.010926806966    -1.213698670693     0.478968796738     1.007825032230
         H            1.451199193034     1.314118329307     1.779015796738     1.007825032230
         H            2.206977193034     2.168738329307     0.417223796738     1.007825032230
         H            0.463929193034     2.363746329307     0.737172796738     1.007825032230
         H           -2.359309506966    -1.790927470693    -0.086373103262     1.007825032230
         H           -2.537001806966    -0.934582670693     1.413930796738     1.007825032230
         H           -4.177734806966     0.636594329307     0.317475796738     1.007825032230
         H           -3.951982806966    -0.203661670693    -1.218622203262     1.007825032230
         H           -4.689865806966    -1.052662670693     0.151157796738     1.007825032230

  Basis Set: AUG-CC-PVTZ
    Blend: AUG-CC-PVTZ
  Basis Set: (AUG-CC-PVTZ AUX)
    Blend: AUG-CC-PVTZ-JKFIT
	 Reference Energy          =    -512.3305778558051315 [Eh]
	 Singles Energy            =      -0.0000000000000000 [Eh]
	 Same-Spin Energy          =      -0.5198185858986553 [Eh]
	 Opposite-Spin Energy      =      -1.6206966758518035 [Eh]
	 Correlation Energy        =      -2.1405152617504588 [Eh]
	 Total Energy              =    -514.4710931175555970 [Eh]

	 ================> DF-SCS-MP2 Energies <==================
	-----------------------------------------------------------
	 SCS Same-Spin Scale       =       0.3333333333333333 [-]
	 SCS Opposite-Spin Scale   =       1.2000000000000000 [-]
	 SCS Same-Spin Energy      =      -0.1732728619662184 [Eh]
	 SCS Opposite-Spin Energy  =      -1.9448360110221641 [Eh]
	 SCS Correlation Energy    =      -2.1181088729883824 [Eh]
	 SCS Total Energy          =    -514.4486867287935183 [Eh]
	-----------------------------------------------------------

  Dipole Moment: [D]
     X:    -9.0961      Y:     0.8471      Z:     1.5242     Total:     9.2617

*** Psi4 exiting successfully. Buy a developer a beer!
