                               Psi4 1.3.2 release

  ==> Input File <==

--------------------------------------------------------------------------
#psi4
#
memory 32 gb

molecule  {
-1 1
  O       -1.6180427     1.2583032    -0.5472923
  O        2.0191420    -1.7287390     0.1939930
  O        3.3853898    -0.0678018    -0.5360770
  N       -0.1147610    -0.2476350     0.2334190
  C        1.0875530     0.4615680    -0.1724770
  C        1.3782960     1.6508690     0.7367710
  C       -2.4731170    -0.8032840     0.3122730
  C       -1.3649450     0.1785500    -0.0525630
  C        2.2731730    -0.5407160    -0.1753640
  C       -3.8468580    -0.3344400    -0.1480570
  H        0.9550610     0.8289670    -1.1997950
  H        0.0672430    -1.2232590     0.4643770
  H        1.5293690     1.3045580     1.7644240
  H        2.2851470     2.1591780     0.4026320
  H        0.5420990     2.3541860     0.7225810
  H       -2.2325720    -1.7800520    -0.1237300
  H       -2.4588320    -0.9441430     1.3993390
  H       -4.0995650     0.6270340     0.3028840
  H       -3.8738130    -0.2132220    -1.2332140
  H       -4.6116960    -1.0622230     0.1365660
units angstrom
no_reorient  #important for SAPT in psi4, default
symmetry c1  #important for SAPT in psi4, default
}

set PROPERTIES_ORIGIN ["COM"]
properties('MP2/aug-cc-pvtz', properties = ['dipole'])
--------------------------------------------------------------------------

    Molecular point group: c1
  Charge       = -1
  Multiplicity = 1
  Basis Set: AUG-CC-PVTZ
    Blend: AUG-CC-PVTZ
  Basis Set: (AUG-CC-PVTZ AUX)
    Blend: AUG-CC-PVTZ-JKFIT

    Orbital Energies [Eh]
    ---------------------

    Doubly Occupied:

       1A    -20.392905     2A    -20.320984     3A    -20.313010
       4A    -15.434239     5A    -11.218508     6A    -11.161171
       7A    -11.131939     8A    -11.123376     9A    -11.114769
      10A    -11.075997    11A     -1.260222    12A     -1.190136
      13A     -1.096168    14A     -1.080416    15A     -0.947401
      16A     -0.878137    17A     -0.782561    18A     -0.720578
      19A     -0.637914    20A     -0.589031    21A     -0.543384
      22A     -0.533066    23A     -0.513261    24A     -0.487105
      25A     -0.465869    26A     -0.440077    27A     -0.425714
      28A     -0.420157    29A     -0.413607    30A     -0.403568
      31A     -0.396679    32A     -0.378658    33A     -0.370295
      34A     -0.342924    35A     -0.299568    36A     -0.257073
      37A     -0.235605    38A     -0.222774    39A     -0.214592

  @DF-RHF Final Energy:  -512.33828619470250

   => Energetics <=

    Nuclear Repulsion Energy =            534.2433671149691463
    One-Electron Energy =               -1773.4964244209947992
    Two-Electron Energy =                 726.9147711113232617
    Total Energy =                       -512.3382861947025049
  Basis Set: (AUG-CC-PVTZ AUX)
    Blend: AUG-CC-PVTZ-RI
    Molecular point group: c1

    Geometry (in Angstrom), charge = -1, multiplicity = 1:

       Center              X                  Y                   Z               Mass
    ------------   -----------------  -----------------  -----------------  -----------------
         O           -1.698673270753     1.276760553579    -0.531374414579    15.994914619570
         O            1.938511429247    -1.710281646421     0.209910885421    15.994914619570
         O            3.304759229247    -0.049344446421    -0.520159114579    15.994914619570
         N           -0.195391570753    -0.229177646421     0.249336885421    14.003074004430
         C            1.006922429247     0.480025353579    -0.156559114579    12.000000000000
         C            1.297665429247     1.669326353579     0.752688885421    12.000000000000
         C           -2.553747570753    -0.784826646421     0.328190885421    12.000000000000
         C           -1.445575570753     0.197007353579    -0.036645114579    12.000000000000
         C            2.192542429247    -0.522258646421    -0.159446114579    12.000000000000
         C           -3.927488570753    -0.315982646421    -0.132139114579    12.000000000000
         H            0.874430429247     0.847424353579    -1.183877114579     1.007825032230
         H           -0.013387570753    -1.204801646421     0.480294885421     1.007825032230
         H            1.448738429247     1.323015353579     1.780341885421     1.007825032230
         H            2.204516429247     2.177635353579     0.418549885421     1.007825032230
         H            0.461468429247     2.372643353579     0.738498885421     1.007825032230
         H           -2.313202570753    -1.761594646421    -0.107812114579     1.007825032230
         H           -2.539462570753    -0.925685646421     1.415256885421     1.007825032230
         H           -4.180195570753     0.645491353579     0.318801885421     1.007825032230
         H           -3.954443570753    -0.194764646421    -1.217296114579     1.007825032230
         H           -4.692326570753    -1.043765646421     0.152483885421     1.007825032230

  Basis Set: AUG-CC-PVTZ
    Blend: AUG-CC-PVTZ
  Basis Set: (AUG-CC-PVTZ AUX)
    Blend: AUG-CC-PVTZ-JKFIT
	 Reference Energy          =    -512.3382861947025049 [Eh]
	 Singles Energy            =      -0.0000000000000000 [Eh]
	 Same-Spin Energy          =      -0.5194466290398860 [Eh]
	 Opposite-Spin Energy      =      -1.6195602254577608 [Eh]
	 Correlation Energy        =      -2.1390068544976470 [Eh]
	 Total Energy              =    -514.4772930492001706 [Eh]

	 ================> DF-SCS-MP2 Energies <==================
	-----------------------------------------------------------
	 SCS Same-Spin Scale       =       0.3333333333333333 [-]
	 SCS Opposite-Spin Scale   =       1.2000000000000000 [-]
	 SCS Same-Spin Energy      =      -0.1731488763466287 [Eh]
	 SCS Opposite-Spin Energy  =      -1.9434722705493128 [Eh]
	 SCS Correlation Energy    =      -2.1166211468959415 [Eh]
	 SCS Total Energy          =    -514.4549073415984140 [Eh]
	-----------------------------------------------------------

  Dipole Moment: [D]
     X:    -8.7395      Y:     0.7906      Z:     1.5239     Total:     8.9066

*** Psi4 exiting successfully. Buy a developer a beer!
