                               Psi4 1.3.2 release

  ==> Input File <==

--------------------------------------------------------------------------
#psi4
#
memory 32 gb

molecule  {
-1 1
  O       -1.6024110     1.2883820    -0.5634480
  O        2.0191420    -1.7287390     0.1939930
  O        3.3896455    -0.0784582    -0.5367429
  N       -0.1147610    -0.2476350     0.2334190
  C        1.0711624     0.4417881    -0.1638573
  C        1.3782960     1.6508690     0.7367710
  C       -2.4731170    -0.8032840     0.3122730
  C       -1.3649450     0.1785500    -0.0525630
  C        2.2731730    -0.5407160    -0.1753640
  C       -3.8468580    -0.3344400    -0.1480570
  H        0.9550610     0.8289670    -1.1997950
  H        0.0672430    -1.2232590     0.4643770
  H        1.5293690     1.3045580     1.7644240
  H        2.2851470     2.1591780     0.4026320
  H        0.5420990     2.3541860     0.7225810
  H       -2.2325720    -1.7800520    -0.1237300
  H       -2.4588320    -0.9441430     1.3993390
  H       -4.0995650     0.6270340     0.3028840
  H       -3.8738130    -0.2132220    -1.2332140
  H       -4.6116960    -1.0622230     0.1365660
units angstrom
no_reorient  #important for SAPT in psi4, default
symmetry c1  #important for SAPT in psi4, default
}

set PROPERTIES_ORIGIN ["COM"]
properties('MP2/aug-cc-pvtz', properties = ['dipole'])
--------------------------------------------------------------------------

    Molecular point group: c1
  Charge       = -1
  Multiplicity = 1
  Basis Set: AUG-CC-PVTZ
    Blend: AUG-CC-PVTZ
  Basis Set: (AUG-CC-PVTZ AUX)
    Blend: AUG-CC-PVTZ-JKFIT

    Orbital Energies [Eh]
    ---------------------

    Doubly Occupied:

       1A    -20.393545     2A    -20.320278     3A    -20.313163
       4A    -15.439745     5A    -11.225453     6A    -11.161171
       7A    -11.136554     8A    -11.125191     9A    -11.115223
      10A    -11.075918    11A     -1.243700    12A     -1.190274
      13A     -1.099991    14A     -1.081834    15A     -0.950662
      16A     -0.876416    17A     -0.785643    18A     -0.722153
      19A     -0.641278    20A     -0.591272    21A     -0.545355
      22A     -0.533834    23A     -0.510834    24A     -0.484084
      25A     -0.465743    26A     -0.438134    27A     -0.426394
      28A     -0.419526    29A     -0.414095    30A     -0.401305
      31A     -0.398440    32A     -0.377820    33A     -0.369787
      34A     -0.339343    35A     -0.301331    36A     -0.256005
      37A     -0.234880    38A     -0.223349    39A     -0.214413

  @DF-RHF Final Energy:  -512.33493282184236

   => Energetics <=

    Nuclear Repulsion Energy =            533.5604408028110583
    One-Electron Energy =               -1772.1024770438950782
    Two-Electron Energy =                 726.2071034192417756
    Total Energy =                       -512.3349328218423580
  Basis Set: (AUG-CC-PVTZ AUX)
    Blend: AUG-CC-PVTZ-RI
    Molecular point group: c1

    Geometry (in Angstrom), charge = -1, multiplicity = 1:

       Center              X                  Y                   Z               Mass
    ------------   -----------------  -----------------  -----------------  -----------------
         O           -1.683884309550     1.306330553480    -0.546380477765    15.994914619570
         O            1.937668690450    -1.710790446520     0.211060522235    15.994914619570
         O            3.308172190450    -0.060509646520    -0.519675377765    15.994914619570
         N           -0.196234309550    -0.229686446520     0.250486522235    14.003074004430
         C            0.989689090450     0.459736653480    -0.146789777765    12.000000000000
         C            1.296822690450     1.668817553480     0.753838522235    12.000000000000
         C           -2.554590309550    -0.785335446520     0.329340522235    12.000000000000
         C           -1.446418309550     0.196498553480    -0.035495477765    12.000000000000
         C            2.191699690450    -0.522767446520    -0.158296477765    12.000000000000
         C           -3.928331309550    -0.316491446520    -0.130989477765    12.000000000000
         H            0.873587690450     0.846915553480    -1.182727477765     1.007825032230
         H           -0.014230309550    -1.205310446520     0.481444522235     1.007825032230
         H            1.447895690450     1.322506553480     1.781491522235     1.007825032230
         H            2.203673690450     2.177126553480     0.419699522235     1.007825032230
         H            0.460625690450     2.372134553480     0.739648522235     1.007825032230
         H           -2.314045309550    -1.762103446520    -0.106662477765     1.007825032230
         H           -2.540305309550    -0.926194446520     1.416406522235     1.007825032230
         H           -4.181038309550     0.644982553480     0.319951522235     1.007825032230
         H           -3.955286309550    -0.195273446520    -1.216146477765     1.007825032230
         H           -4.693169309550    -1.044274446520     0.153633522235     1.007825032230

  Basis Set: AUG-CC-PVTZ
    Blend: AUG-CC-PVTZ
  Basis Set: (AUG-CC-PVTZ AUX)
    Blend: AUG-CC-PVTZ-JKFIT
	 Reference Energy          =    -512.3349328218423580 [Eh]
	 Singles Energy            =      -0.0000000000000000 [Eh]
	 Same-Spin Energy          =      -0.5202694078410197 [Eh]
	 Opposite-Spin Energy      =      -1.6213412557157110 [Eh]
	 Correlation Energy        =      -2.1416106635567305 [Eh]
	 Total Energy              =    -514.4765434853991337 [Eh]

	 ================> DF-SCS-MP2 Energies <==================
	-----------------------------------------------------------
	 SCS Same-Spin Scale       =       0.3333333333333333 [-]
	 SCS Opposite-Spin Scale   =       1.2000000000000000 [-]
	 SCS Same-Spin Energy      =      -0.1734231359470066 [Eh]
	 SCS Opposite-Spin Energy  =      -1.9456095068588530 [Eh]
	 SCS Correlation Energy    =      -2.1190326428058595 [Eh]
	 SCS Total Energy          =    -514.4539654646482632 [Eh]
	-----------------------------------------------------------

  Dipole Moment: [D]
     X:    -8.8127      Y:     0.6376      Z:     1.6044     Total:     8.9802

*** Psi4 exiting successfully. Buy a developer a beer!
