                               Psi4 1.3.2 release

  ==> Input File <==

--------------------------------------------------------------------------
#psi4
#
memory 32 gb

molecule  {
-1 1
  O       -1.6024110     1.2883820    -0.5634480
  O        2.0191420    -1.7287390     0.1939930
  O        3.3803020    -0.0587520    -0.5397320
  N       -0.1147610    -0.2476350     0.2334190
  C        1.0875530     0.4615680    -0.1724770
  C        1.3782960     1.6508690     0.7367710
  C       -2.4731170    -0.8032840     0.3122730
  C       -1.3689967     0.1675949    -0.0509333
  C        2.2731730    -0.5407160    -0.1753640
  C       -3.8468580    -0.3344400    -0.1480570
  H        0.9550610     0.8289670    -1.1997950
  H        0.0585934    -1.2250671     0.4633841
  H        1.5293690     1.3045580     1.7644240
  H        2.2851470     2.1591780     0.4026320
  H        0.5420990     2.3541860     0.7225810
  H       -2.2325720    -1.7800520    -0.1237300
  H       -2.4588320    -0.9441430     1.3993390
  H       -4.0995650     0.6270340     0.3028840
  H       -3.8738130    -0.2132220    -1.2332140
  H       -4.6116960    -1.0622230     0.1365660
units angstrom
no_reorient  #important for SAPT in psi4, default
symmetry c1  #important for SAPT in psi4, default
}

set PROPERTIES_ORIGIN ["COM"]
properties('MP2/aug-cc-pvtz', properties = ['dipole'])
--------------------------------------------------------------------------

    Molecular point group: c1
  Charge       = -1
  Multiplicity = 1
  Basis Set: AUG-CC-PVTZ
    Blend: AUG-CC-PVTZ
  Basis Set: (AUG-CC-PVTZ AUX)
    Blend: AUG-CC-PVTZ-JKFIT

    Orbital Energies [Eh]
    ---------------------

    Doubly Occupied:

       1A    -20.390302     2A    -20.322036     3A    -20.313704
       4A    -15.438900     5A    -11.223965     6A    -11.161901
       7A    -11.136177     8A    -11.124932     9A    -11.115144
      10A    -11.075536    11A     -1.236014    12A     -1.190291
      13A     -1.096174    14A     -1.080802    15A     -0.951244
      16A     -0.878904    17A     -0.785722    18A     -0.721374
      19A     -0.638671    20A     -0.588916    21A     -0.542635
      22A     -0.533968    23A     -0.511199    24A     -0.481033
      25A     -0.465395    26A     -0.437899    27A     -0.426596
      28A     -0.419267    29A     -0.413090    30A     -0.403736
      31A     -0.396692    32A     -0.374976    33A     -0.369675
      34A     -0.340610    35A     -0.299671    36A     -0.256795
      37A     -0.236668    38A     -0.223022    39A     -0.215446

  @DF-RHF Final Energy:  -512.33487546187541

   => Energetics <=

    Nuclear Repulsion Energy =            533.3345293968898204
    One-Electron Energy =               -1771.7006376309802818
    Two-Electron Energy =                 726.0312327722150485
    Total Energy =                       -512.3348754618754128
  Basis Set: (AUG-CC-PVTZ AUX)
    Blend: AUG-CC-PVTZ-RI
    Molecular point group: c1

    Geometry (in Angstrom), charge = -1, multiplicity = 1:

       Center              X                  Y                   Z               Mass
    ------------   -----------------  -----------------  -----------------  -----------------
         O           -1.683814209989     1.303420261395    -0.545459434590    15.994914619570
         O            1.937738790011    -1.713700738605     0.211981565410    15.994914619570
         O            3.298898790011    -0.043713738605    -0.521743434590    15.994914619570
         N           -0.196164209989    -0.232596738605     0.251407565410    14.003074004430
         C            1.006149790011     0.476606261395    -0.154488434590    12.000000000000
         C            1.296892790011     1.665907261395     0.754759565410    12.000000000000
         C           -2.554520209989    -0.788245738605     0.330261565410    12.000000000000
         C           -1.450399909989     0.182633161395    -0.032944734590    12.000000000000
         C            2.191769790011    -0.525677738605    -0.157375434590    12.000000000000
         C           -3.928261209989    -0.319401738605    -0.130068434590    12.000000000000
         H            0.873657790011     0.844005261395    -1.181806434590     1.007825032230
         H           -0.022809809989    -1.210028838605     0.481372665410     1.007825032230
         H            1.447965790011     1.319596261395     1.782412565410     1.007825032230
         H            2.203743790011     2.174216261395     0.420620565410     1.007825032230
         H            0.460695790011     2.369224261395     0.740569565410     1.007825032230
         H           -2.313975209989    -1.765013738605    -0.105741434590     1.007825032230
         H           -2.540235209989    -0.929104738605     1.417327565410     1.007825032230
         H           -4.180968209989     0.642072261395     0.320872565410     1.007825032230
         H           -3.955216209989    -0.198183738605    -1.215225434590     1.007825032230
         H           -4.693099209989    -1.047184738605     0.154554565410     1.007825032230

  Basis Set: AUG-CC-PVTZ
    Blend: AUG-CC-PVTZ
  Basis Set: (AUG-CC-PVTZ AUX)
    Blend: AUG-CC-PVTZ-JKFIT
	 Reference Energy          =    -512.3348754618754128 [Eh]
	 Singles Energy            =      -0.0000000000000000 [Eh]
	 Same-Spin Energy          =      -0.5203622437939914 [Eh]
	 Opposite-Spin Energy      =      -1.6217649317186162 [Eh]
	 Correlation Energy        =      -2.1421271755126075 [Eh]
	 Total Energy              =    -514.4770026373880683 [Eh]

	 ================> DF-SCS-MP2 Energies <==================
	-----------------------------------------------------------
	 SCS Same-Spin Scale       =       0.3333333333333333 [-]
	 SCS Opposite-Spin Scale   =       1.2000000000000000 [-]
	 SCS Same-Spin Energy      =      -0.1734540812646638 [Eh]
	 SCS Opposite-Spin Energy  =      -1.9461179180623394 [Eh]
	 SCS Correlation Energy    =      -2.1195719993270030 [Eh]
	 SCS Total Energy          =    -514.4544474612024487 [Eh]
	-----------------------------------------------------------

  Dipole Moment: [D]
     X:    -8.7067      Y:     0.5725      Z:     1.6228     Total:     8.8751

*** Psi4 exiting successfully. Buy a developer a beer!
