                               Psi4 1.3.2 release

  ==> Input File <==

--------------------------------------------------------------------------
#psi4
#
memory 32 gb

molecule  {
-1 1
  O       -1.6024110     1.2883820    -0.5634480
  O        2.0191420    -1.7287390     0.1939930
  O        3.3803020    -0.0587520    -0.5397320
  N       -0.1147610    -0.2476350     0.2334190
  C        1.0875530     0.4615680    -0.1724770
  C        1.4255694     1.6292947     0.7483159
  C       -2.4731170    -0.8032840     0.3122730
  C       -1.3649450     0.1785500    -0.0525630
  C        2.2994327    -0.5082876    -0.1407898
  C       -3.8468580    -0.3344400    -0.1480570
  H        0.9550610     0.8289670    -1.1997950
  H        0.0672430    -1.2232590     0.4643770
  H        1.5293690     1.3045580     1.7644240
  H        2.2851470     2.1591780     0.4026320
  H        0.5420990     2.3541860     0.7225810
  H       -2.2325720    -1.7800520    -0.1237300
  H       -2.4588320    -0.9441430     1.3993390
  H       -4.0995650     0.6270340     0.3028840
  H       -3.8738130    -0.2132220    -1.2332140
  H       -4.6116960    -1.0622230     0.1365660
units angstrom
no_reorient  #important for SAPT in psi4, default
symmetry c1  #important for SAPT in psi4, default
}

set PROPERTIES_ORIGIN ["COM"]
properties('MP2/aug-cc-pvtz', properties = ['dipole'])
--------------------------------------------------------------------------

    Molecular point group: c1
  Charge       = -1
  Multiplicity = 1
  Basis Set: AUG-CC-PVTZ
    Blend: AUG-CC-PVTZ
  Basis Set: (AUG-CC-PVTZ AUX)
    Blend: AUG-CC-PVTZ-JKFIT

    Orbital Energies [Eh]
    ---------------------

    Doubly Occupied:

       1A    -20.391305     2A    -20.320228     3A    -20.315184
       4A    -15.437963     5A    -11.223316     6A    -11.161164
       7A    -11.135008     8A    -11.124020     9A    -11.114990
      10A    -11.076140    11A     -1.241119    12A     -1.192770
      13A     -1.098597    14A     -1.075758    15A     -0.948914
      16A     -0.880120    17A     -0.783876    18A     -0.719371
      19A     -0.639052    20A     -0.588716    21A     -0.542801
      22A     -0.532987    23A     -0.512491    24A     -0.482673
      25A     -0.464510    26A     -0.438502    27A     -0.427921
      28A     -0.419587    29A     -0.413647    30A     -0.406087
      31A     -0.393647    32A     -0.379195    33A     -0.363517
      34A     -0.343084    35A     -0.299110    36A     -0.258024
      37A     -0.234120    38A     -0.221877    39A     -0.215276

  @DF-RHF Final Energy:  -512.33055121046959

   => Energetics <=

    Nuclear Repulsion Energy =            533.3487283354072588
    One-Electron Energy =               -1771.7252272762443681
    Two-Electron Energy =                 726.0459477303675158
    Total Energy =                       -512.3305512104695936
  Basis Set: (AUG-CC-PVTZ AUX)
    Blend: AUG-CC-PVTZ-RI
    Molecular point group: c1

    Geometry (in Angstrom), charge = -1, multiplicity = 1:

       Center              X                  Y                   Z               Mass
    ------------   -----------------  -----------------  -----------------  -----------------
         O           -1.690337153908     1.301591012830    -0.549172130274    15.994914619570
         O            1.931215846092    -1.715529987170     0.208268869726    15.994914619570
         O            3.292375846092    -0.045542987170    -0.525456130274    15.994914619570
         N           -0.202687153908    -0.234425987170     0.247694869726    14.003074004430
         C            0.999626846092     0.474777012830    -0.158201130274    12.000000000000
         C            1.337643246092     1.642503712830     0.762591769726    12.000000000000
         C           -2.561043153908    -0.790074987170     0.326548869726    12.000000000000
         C           -1.452871153908     0.191759012830    -0.038287130274    12.000000000000
         C            2.211506546092    -0.495078587170    -0.126513930274    12.000000000000
         C           -3.934784153908    -0.321230987170    -0.133781130274    12.000000000000
         H            0.867134846092     0.842176012830    -1.185519130274     1.007825032230
         H           -0.020683153908    -1.210049987170     0.478652869726     1.007825032230
         H            1.441442846092     1.317767012830     1.778699869726     1.007825032230
         H            2.197220846092     2.172387012830     0.416907869726     1.007825032230
         H            0.454172846092     2.367395012830     0.736856869726     1.007825032230
         H           -2.320498153908    -1.766842987170    -0.109454130274     1.007825032230
         H           -2.546758153908    -0.930933987170     1.413614869726     1.007825032230
         H           -4.187491153908     0.640243012830     0.317159869726     1.007825032230
         H           -3.961739153908    -0.200012987170    -1.218938130274     1.007825032230
         H           -4.699622153908    -1.049013987170     0.150841869726     1.007825032230

  Basis Set: AUG-CC-PVTZ
    Blend: AUG-CC-PVTZ
  Basis Set: (AUG-CC-PVTZ AUX)
    Blend: AUG-CC-PVTZ-JKFIT
	 Reference Energy          =    -512.3305512104695936 [Eh]
	 Singles Energy            =      -0.0000000000000000 [Eh]
	 Same-Spin Energy          =      -0.5202879756956464 [Eh]
	 Opposite-Spin Energy      =      -1.6216551262301604 [Eh]
	 Correlation Energy        =      -2.1419431019258068 [Eh]
	 Total Energy              =    -514.4724943123953835 [Eh]

	 ================> DF-SCS-MP2 Energies <==================
	-----------------------------------------------------------
	 SCS Same-Spin Scale       =       0.3333333333333333 [-]
	 SCS Opposite-Spin Scale   =       1.2000000000000000 [-]
	 SCS Same-Spin Energy      =      -0.1734293252318821 [Eh]
	 SCS Opposite-Spin Energy  =      -1.9459861514761925 [Eh]
	 SCS Correlation Energy    =      -2.1194154767080748 [Eh]
	 SCS Total Energy          =    -514.4499666871777208 [Eh]
	-----------------------------------------------------------

  Dipole Moment: [D]
     X:    -8.4706      Y:     0.8089      Z:     1.5326     Total:     8.6460

*** Psi4 exiting successfully. Buy a developer a beer!
