                               Psi4 1.3.2 release

  ==> Input File <==

--------------------------------------------------------------------------
#psi4
#
memory 32 gb

molecule  {
-1 1
  O       -1.6024110     1.2883820    -0.5634480
  O        2.0074316    -1.7520292     0.1722167
  O        3.3803020    -0.0587520    -0.5397320
  N       -0.1132997    -0.2383797     0.2405807
  C        1.0875530     0.4615680    -0.1724770
  C        1.3782960     1.6508690     0.7367710
  C       -2.4731170    -0.8032840     0.3122730
  C       -1.3649450     0.1785500    -0.0525630
  C        2.2731730    -0.5407160    -0.1753640
  C       -3.8468580    -0.3344400    -0.1480570
  H        0.9550610     0.8289670    -1.1997950
  H        0.0672430    -1.2232590     0.4643770
  H        1.5293690     1.3045580     1.7644240
  H        2.2851470     2.1591780     0.4026320
  H        0.5420990     2.3541860     0.7225810
  H       -2.2325720    -1.7800520    -0.1237300
  H       -2.4588320    -0.9441430     1.3993390
  H       -4.0995650     0.6270340     0.3028840
  H       -3.8738130    -0.2132220    -1.2332140
  H       -4.6116960    -1.0622230     0.1365660
units angstrom
no_reorient  #important for SAPT in psi4, default
symmetry c1  #important for SAPT in psi4, default
}

set PROPERTIES_ORIGIN ["COM"]
properties('MP2/aug-cc-pvtz', properties = ['dipole'])
--------------------------------------------------------------------------

    Molecular point group: c1
  Charge       = -1
  Multiplicity = 1
  Basis Set: AUG-CC-PVTZ
    Blend: AUG-CC-PVTZ
  Basis Set: (AUG-CC-PVTZ AUX)
    Blend: AUG-CC-PVTZ-JKFIT

    Orbital Energies [Eh]
    ---------------------

    Doubly Occupied:

       1A    -20.391714     2A    -20.322320     3A    -20.317660
       4A    -15.438068     5A    -11.223540     6A    -11.165495
       7A    -11.135588     8A    -11.124446     9A    -11.115854
      10A    -11.075937    11A     -1.241762    12A     -1.185928
      13A     -1.096276    14A     -1.078456    15A     -0.949526
      16A     -0.879017    17A     -0.784039    18A     -0.721695
      19A     -0.637646    20A     -0.589067    21A     -0.543193
      22A     -0.533248    23A     -0.511914    24A     -0.482470
      25A     -0.465158    26A     -0.437964    27A     -0.425953
      28A     -0.418976    29A     -0.413275    30A     -0.402592
      31A     -0.396603    32A     -0.375446    33A     -0.369343
      34A     -0.340233    35A     -0.299778    36A     -0.257157
      37A     -0.236936    38A     -0.224339    39A     -0.215983

  @DF-RHF Final Energy:  -512.33370917744321

   => Energetics <=

    Nuclear Repulsion Energy =            532.9249650516244401
    One-Electron Energy =               -1770.8681603350025853
    Two-Electron Energy =                 725.6094861059349341
    Total Energy =                       -512.3337091774432110
  Basis Set: (AUG-CC-PVTZ AUX)
    Blend: AUG-CC-PVTZ-RI
    Molecular point group: c1

    Geometry (in Angstrom), charge = -1, multiplicity = 1:

       Center              X                  Y                   Z               Mass
    ------------   -----------------  -----------------  -----------------  -----------------
         O           -1.683054097118     1.304181291820    -0.543609033743    15.994914619570
         O            1.926788502882    -1.736229908180     0.192055666257    15.994914619570
         O            3.299658902882    -0.042952708180    -0.519893033743    15.994914619570
         N           -0.193942797118    -0.222580408180     0.260419666257    14.003074004430
         C            1.006909902882     0.477367291820    -0.152638033743    12.000000000000
         C            1.297652902882     1.666668291820     0.756609966257    12.000000000000
         C           -2.553760097118    -0.787484708180     0.332111966257    12.000000000000
         C           -1.445588097118     0.194349291820    -0.032724033743    12.000000000000
         C            2.192529902882    -0.524916708180    -0.155525033743    12.000000000000
         C           -3.927501097118    -0.318640708180    -0.128218033743    12.000000000000
         H            0.874417902882     0.844766291820    -1.179956033743     1.007825032230
         H           -0.013400097118    -1.207459708180     0.484215966257     1.007825032230
         H            1.448725902882     1.320357291820     1.784262966257     1.007825032230
         H            2.204503902882     2.174977291820     0.422470966257     1.007825032230
         H            0.461455902882     2.369985291820     0.742419966257     1.007825032230
         H           -2.313215097118    -1.764252708180    -0.103891033743     1.007825032230
         H           -2.539475097118    -0.928343708180     1.419177966257     1.007825032230
         H           -4.180208097118     0.642833291820     0.322722966257     1.007825032230
         H           -3.954456097118    -0.197422708180    -1.213375033743     1.007825032230
         H           -4.692339097118    -1.046423708180     0.156404966257     1.007825032230

  Basis Set: AUG-CC-PVTZ
    Blend: AUG-CC-PVTZ
  Basis Set: (AUG-CC-PVTZ AUX)
    Blend: AUG-CC-PVTZ-JKFIT
	 Reference Energy          =    -512.3337091774432110 [Eh]
	 Singles Energy            =      -0.0000000000000000 [Eh]
	 Same-Spin Energy          =      -0.5205839119739519 [Eh]
	 Opposite-Spin Energy      =      -1.6224122264468099 [Eh]
	 Correlation Energy        =      -2.1429961384207621 [Eh]
	 Total Energy              =    -514.4767053158640238 [Eh]

	 ================> DF-SCS-MP2 Energies <==================
	-----------------------------------------------------------
	 SCS Same-Spin Scale       =       0.3333333333333333 [-]
	 SCS Opposite-Spin Scale   =       1.2000000000000000 [-]
	 SCS Same-Spin Energy      =      -0.1735279706579840 [Eh]
	 SCS Opposite-Spin Energy  =      -1.9468946717361719 [Eh]
	 SCS Correlation Energy    =      -2.1204226423941561 [Eh]
	 SCS Total Energy          =    -514.4541318198373574 [Eh]
	-----------------------------------------------------------

  Dipole Moment: [D]
     X:    -8.6284      Y:     0.7346      Z:     1.5979     Total:     8.8058

*** Psi4 exiting successfully. Buy a developer a beer!
