                               Psi4 1.3.2 release

  ==> Input File <==

--------------------------------------------------------------------------
#psi4
#
memory 32 gb

molecule  {
-1 1
  O       -1.6024110     1.2883820    -0.5634480
  O        2.0191420    -1.7287390     0.1939930
  O        3.3803020    -0.0587520    -0.5397320
  N       -0.1237685    -0.2677209     0.2418898
  C        1.0875530     0.4615680    -0.1724770
  C        1.3782960     1.6508690     0.7367710
  C       -2.4547551    -0.8202738     0.3213533
  C       -1.3649450     0.1785500    -0.0525630
  C        2.2731730    -0.5407160    -0.1753640
  C       -3.8468580    -0.3344400    -0.1480570
  H        0.9550610     0.8289670    -1.1997950
  H        0.0672430    -1.2232590     0.4643770
  H        1.5293690     1.3045580     1.7644240
  H        2.2851470     2.1591780     0.4026320
  H        0.5420990     2.3541860     0.7225810
  H       -2.2325720    -1.7800520    -0.1237300
  H       -2.4588320    -0.9441430     1.3993390
  H       -4.0995650     0.6270340     0.3028840
  H       -3.8738130    -0.2132220    -1.2332140
  H       -4.6116960    -1.0622230     0.1365660
units angstrom
no_reorient  #important for SAPT in psi4, default
symmetry c1  #important for SAPT in psi4, default
}

set PROPERTIES_ORIGIN ["COM"]
properties('MP2/aug-cc-pvtz', properties = ['dipole'])
--------------------------------------------------------------------------

    Molecular point group: c1
  Charge       = -1
  Multiplicity = 1
  Basis Set: AUG-CC-PVTZ
    Blend: AUG-CC-PVTZ
  Basis Set: (AUG-CC-PVTZ AUX)
    Blend: AUG-CC-PVTZ-JKFIT

    Orbital Energies [Eh]
    ---------------------

    Doubly Occupied:

       1A    -20.393516     2A    -20.322041     3A    -20.313761
       4A    -15.437072     5A    -11.224063     6A    -11.161833
       7A    -11.133039     8A    -11.124389     9A    -11.116121
      10A    -11.076346    11A     -1.241611    12A     -1.190442
      13A     -1.096564    14A     -1.080954    15A     -0.945215
      16A     -0.878048    17A     -0.783893    18A     -0.720211
      19A     -0.645675    20A     -0.587705    21A     -0.539267
      22A     -0.534146    23A     -0.511474    24A     -0.482863
      25A     -0.464801    26A     -0.438430    27A     -0.422248
      28A     -0.419957    29A     -0.412234    30A     -0.404434
      31A     -0.397229    32A     -0.376978    33A     -0.370060
      34A     -0.341547    35A     -0.300101    36A     -0.259140
      37A     -0.236882    38A     -0.222902    39A     -0.215704

  @DF-RHF Final Energy:  -512.33509966923077

   => Energetics <=

    Nuclear Repulsion Energy =            533.0792359198093209
    One-Electron Energy =               -1771.1828795814337809
    Two-Electron Energy =                 725.7685439923938020
    Total Energy =                       -512.3350996692307717
  Basis Set: (AUG-CC-PVTZ AUX)
    Blend: AUG-CC-PVTZ-RI
    Molecular point group: c1

    Geometry (in Angstrom), charge = -1, multiplicity = 1:

       Center              X                  Y                   Z               Mass
    ------------   -----------------  -----------------  -----------------  -----------------
         O           -1.684866142594     1.305862602608    -0.546910332164    15.994914619570
         O            1.936686857406    -1.711258397392     0.210530667836    15.994914619570
         O            3.297846857406    -0.041271397392    -0.523194332164    15.994914619570
         N           -0.206223642594    -0.250240297392     0.258427467836    14.003074004430
         C            1.005097857406     0.479048602608    -0.155939332164    12.000000000000
         C            1.295840857406     1.668349602608     0.753308667836    12.000000000000
         C           -2.537210242594    -0.802793197392     0.337890967836    12.000000000000
         C           -1.447400142594     0.196030602608    -0.036025332164    12.000000000000
         C            2.190717857406    -0.523235397392    -0.158826332164    12.000000000000
         C           -3.929313142594    -0.316959397392    -0.131519332164    12.000000000000
         H            0.872605857406     0.846447602608    -1.183257332164     1.007825032230
         H           -0.015212142594    -1.205778397392     0.480914667836     1.007825032230
         H            1.446913857406     1.322038602608     1.780961667836     1.007825032230
         H            2.202691857406     2.176658602608     0.419169667836     1.007825032230
         H            0.459643857406     2.371666602608     0.739118667836     1.007825032230
         H           -2.315027142594    -1.762571397392    -0.107192332164     1.007825032230
         H           -2.541287142594    -0.926662397392     1.415876667836     1.007825032230
         H           -4.182020142594     0.644514602608     0.319421667836     1.007825032230
         H           -3.956268142594    -0.195741397392    -1.216676332164     1.007825032230
         H           -4.694151142594    -1.044742397392     0.153103667836     1.007825032230

  Basis Set: AUG-CC-PVTZ
    Blend: AUG-CC-PVTZ
  Basis Set: (AUG-CC-PVTZ AUX)
    Blend: AUG-CC-PVTZ-JKFIT
	 Reference Energy          =    -512.3350996692307717 [Eh]
	 Singles Energy            =      -0.0000000000000000 [Eh]
	 Same-Spin Energy          =      -0.5198241822281080 [Eh]
	 Opposite-Spin Energy      =      -1.6211294215723677 [Eh]
	 Correlation Energy        =      -2.1409536038004759 [Eh]
	 Total Energy              =    -514.4760532730311979 [Eh]

	 ================> DF-SCS-MP2 Energies <==================
	-----------------------------------------------------------
	 SCS Same-Spin Scale       =       0.3333333333333333 [-]
	 SCS Opposite-Spin Scale   =       1.2000000000000000 [-]
	 SCS Same-Spin Energy      =      -0.1732747274093693 [Eh]
	 SCS Opposite-Spin Energy  =      -1.9453553058868411 [Eh]
	 SCS Correlation Energy    =      -2.1186300332962107 [Eh]
	 SCS Total Energy          =    -514.4537297025269709 [Eh]
	-----------------------------------------------------------

  Dipole Moment: [D]
     X:    -8.6389      Y:     0.6561      Z:     1.5978     Total:     8.8098

*** Psi4 exiting successfully. Buy a developer a beer!
