                               Psi4 1.3.2 release

  ==> Input File <==

--------------------------------------------------------------------------
#psi4
#
memory 32 gb

molecule  {
-1 1
  O       -1.6024110     1.2883820    -0.5634480
  O        2.0191420    -1.7287390     0.1939930
  O        3.3803020    -0.0587520    -0.5397320
  N       -0.1147610    -0.2476350     0.2334190
  C        1.0875530     0.4615680    -0.1724770
  C        1.3782960     1.6508690     0.7367710
  C       -2.4731170    -0.8032840     0.3122730
  C       -1.4202744     0.2252659    -0.0861689
  C        2.2731730    -0.5407160    -0.1753640
  C       -3.8122132    -0.2692424    -0.1781387
  H        0.9550610     0.8289670    -1.1997950
  H        0.0672430    -1.2232590     0.4643770
  H        1.5293690     1.3045580     1.7644240
  H        2.2851470     2.1591780     0.4026320
  H        0.5420990     2.3541860     0.7225810
  H       -2.2325720    -1.7800520    -0.1237300
  H       -2.4588320    -0.9441430     1.3993390
  H       -4.0995650     0.6270340     0.3028840
  H       -3.8738130    -0.2132220    -1.2332140
  H       -4.6116960    -1.0622230     0.1365660
units angstrom
no_reorient  #important for SAPT in psi4, default
symmetry c1  #important for SAPT in psi4, default
}

set PROPERTIES_ORIGIN ["COM"]
properties('MP2/aug-cc-pvtz', properties = ['dipole'])
--------------------------------------------------------------------------

    Molecular point group: c1
  Charge       = -1
  Multiplicity = 1
  Basis Set: AUG-CC-PVTZ
    Blend: AUG-CC-PVTZ
  Basis Set: (AUG-CC-PVTZ AUX)
    Blend: AUG-CC-PVTZ-JKFIT

    Orbital Energies [Eh]
    ---------------------

    Doubly Occupied:

       1A    -20.410192     2A    -20.316760     3A    -20.308926
       4A    -15.421913     5A    -11.225026     6A    -11.156342
       7A    -11.136681     8A    -11.127939     9A    -11.106842
      10A    -11.071436    11A     -1.289749    12A     -1.185395
      13A     -1.087190    14A     -1.062936    15A     -0.953480
      16A     -0.867109    17A     -0.782295    18A     -0.710908
      19A     -0.631740    20A     -0.589205    21A     -0.543435
      22A     -0.537223    23A     -0.520098    24A     -0.489811
      25A     -0.463454    26A     -0.443489    27A     -0.428320
      28A     -0.419365    29A     -0.408581    30A     -0.402952
      31A     -0.399311    32A     -0.383582    33A     -0.365384
      34A     -0.340738    35A     -0.304140    36A     -0.247785
      37A     -0.231172    38A     -0.217111    39A     -0.209825

  @DF-RHF Final Energy:  -512.32179267111110

   => Energetics <=

    Nuclear Repulsion Energy =            533.8354091128730943
    One-Electron Energy =               -1772.7187214424834565
    Two-Electron Energy =                 726.5615196584992646
    Total Energy =                       -512.3217926711110977
  Basis Set: (AUG-CC-PVTZ AUX)
    Blend: AUG-CC-PVTZ-RI
    Molecular point group: c1

    Geometry (in Angstrom), charge = -1, multiplicity = 1:

       Center              X                  Y                   Z               Mass
    ------------   -----------------  -----------------  -----------------  -----------------
         O           -1.682489279567     1.293173258287    -0.540025768354    15.994914619570
         O            1.939063720433    -1.723947741713     0.217415231646    15.994914619570
         O            3.300223720433    -0.053960741713    -0.516309768354    15.994914619570
         N           -0.194839279567    -0.242843741713     0.256841231646    14.003074004430
         C            1.007474720433     0.466359258287    -0.149054768354    12.000000000000
         C            1.298217720433     1.655660258287     0.760193231646    12.000000000000
         C           -2.553195279567    -0.798492741713     0.335695231646    12.000000000000
         C           -1.500352679567     0.230057158287    -0.062746668354    12.000000000000
         C            2.193094720433    -0.535924741713    -0.151941768354    12.000000000000
         C           -3.892291479567    -0.264451141713    -0.154716468354    12.000000000000
         H            0.874982720433     0.833758258287    -1.176372768354     1.007825032230
         H           -0.012835279567    -1.218467741713     0.487799231646     1.007825032230
         H            1.449290720433     1.309349258287     1.787846231646     1.007825032230
         H            2.205068720433     2.163969258287     0.426054231646     1.007825032230
         H            0.462020720433     2.358977258287     0.746003231646     1.007825032230
         H           -2.312650279567    -1.775260741713    -0.100307768354     1.007825032230
         H           -2.538910279567    -0.939351741713     1.422761231646     1.007825032230
         H           -4.179643279567     0.631825258287     0.326306231646     1.007825032230
         H           -3.953891279567    -0.208430741713    -1.209791768354     1.007825032230
         H           -4.691774279567    -1.057431741713     0.159988231646     1.007825032230

  Basis Set: AUG-CC-PVTZ
    Blend: AUG-CC-PVTZ
  Basis Set: (AUG-CC-PVTZ AUX)
    Blend: AUG-CC-PVTZ-JKFIT
	 Reference Energy          =    -512.3217926711110977 [Eh]
	 Singles Energy            =      -0.0000000000000000 [Eh]
	 Same-Spin Energy          =      -0.5194065119202034 [Eh]
	 Opposite-Spin Energy      =      -1.6200134834282158 [Eh]
	 Correlation Energy        =      -2.1394199953484190 [Eh]
	 Total Energy              =    -514.4612126664594598 [Eh]

	 ================> DF-SCS-MP2 Energies <==================
	-----------------------------------------------------------
	 SCS Same-Spin Scale       =       0.3333333333333333 [-]
	 SCS Opposite-Spin Scale   =       1.2000000000000000 [-]
	 SCS Same-Spin Energy      =      -0.1731355039734011 [Eh]
	 SCS Opposite-Spin Energy  =      -1.9440161801138589 [Eh]
	 SCS Correlation Energy    =      -2.1171516840872600 [Eh]
	 SCS Total Energy          =    -514.4389443551983732 [Eh]
	-----------------------------------------------------------

  Dipole Moment: [D]
     X:    -9.3134      Y:     1.0291      Z:     1.3402     Total:     9.4655

*** Psi4 exiting successfully. Buy a developer a beer!
