                               Psi4 1.3.2 release

  ==> Input File <==

--------------------------------------------------------------------------
#psi4
#
memory 32 gb

molecule  {
-1 1
  O       -1.6024110     1.2883820    -0.5634480
  O        2.0191420    -1.7287390     0.1939930
  O        3.3803020    -0.0587520    -0.5397320
  N       -0.1147610    -0.2476350     0.2334190
  C        1.1009658     0.4402939    -0.1691250
  C        1.3782960     1.6508690     0.7367710
  C       -2.4731170    -0.8032840     0.3122730
  C       -1.3649450     0.1785500    -0.0525630
  C        2.2731730    -0.5407160    -0.1753640
  C       -3.8468580    -0.3344400    -0.1480570
  H        0.9550610     0.8289670    -1.1997950
  H        0.0844507    -1.2207722     0.4606368
  H        1.5293690     1.3045580     1.7644240
  H        2.2851470     2.1591780     0.4026320
  H        0.5420990     2.3541860     0.7225810
  H       -2.2325720    -1.7800520    -0.1237300
  H       -2.4588320    -0.9441430     1.3993390
  H       -4.0995650     0.6270340     0.3028840
  H       -3.8738130    -0.2132220    -1.2332140
  H       -4.6116960    -1.0622230     0.1365660
units angstrom
no_reorient  #important for SAPT in psi4, default
symmetry c1  #important for SAPT in psi4, default
}

set PROPERTIES_ORIGIN ["COM"]
properties('MP2/aug-cc-pvtz', properties = ['dipole'])
--------------------------------------------------------------------------

    Molecular point group: c1
  Charge       = -1
  Multiplicity = 1
  Basis Set: AUG-CC-PVTZ
    Blend: AUG-CC-PVTZ
  Basis Set: (AUG-CC-PVTZ AUX)
    Blend: AUG-CC-PVTZ-JKFIT

    Orbital Energies [Eh]
    ---------------------

    Doubly Occupied:

       1A    -20.392005     2A    -20.322526     3A    -20.313929
       4A    -15.437647     5A    -11.224326     6A    -11.161361
       7A    -11.135440     8A    -11.124364     9A    -11.115718
      10A    -11.076326    11A     -1.241673    12A     -1.191967
      13A     -1.097235    14A     -1.081203    15A     -0.949288
      16A     -0.877234    17A     -0.784062    18A     -0.723725
      19A     -0.640040    20A     -0.589747    21A     -0.544044
      22A     -0.532896    23A     -0.509732    24A     -0.483022
      25A     -0.465962    26A     -0.437735    27A     -0.426123
      28A     -0.420271    29A     -0.413641    30A     -0.404080
      31A     -0.396769    32A     -0.374960    33A     -0.369416
      34A     -0.338772    35A     -0.299971    36A     -0.255751
      37A     -0.237913    38A     -0.225848    39A     -0.216028

  @DF-RHF Final Energy:  -512.33536471703565

   => Energetics <=

    Nuclear Repulsion Energy =            533.5648343960278908
    One-Electron Energy =               -1772.1348980374468738
    Two-Electron Energy =                 726.2346989243833377
    Total Energy =                       -512.3353647170356453
  Basis Set: (AUG-CC-PVTZ AUX)
    Blend: AUG-CC-PVTZ-RI
    Molecular point group: c1

    Geometry (in Angstrom), charge = -1, multiplicity = 1:

       Center              X                  Y                   Z               Mass
    ------------   -----------------  -----------------  -----------------  -----------------
         O           -1.685449804249     1.304249738410    -0.545583674826    15.994914619570
         O            1.936103195751    -1.712871261590     0.211857325174    15.994914619570
         O            3.297263195751    -0.042884261590    -0.521867674826    15.994914619570
         N           -0.197799804249    -0.231767261590     0.251283325174    14.003074004430
         C            1.017926995751     0.456161638410    -0.151260674826    12.000000000000
         C            1.295257195751     1.666736738410     0.754635325174    12.000000000000
         C           -2.556155804249    -0.787416261590     0.330137325174    12.000000000000
         C           -1.447983804249     0.194417738410    -0.034698674826    12.000000000000
         C            2.190134195751    -0.524848261590    -0.157499674826    12.000000000000
         C           -3.929896804249    -0.318572261590    -0.130192674826    12.000000000000
         H            0.872022195751     0.844834738410    -1.181930674826     1.007825032230
         H            0.001411895751    -1.204904461590     0.478501125174     1.007825032230
         H            1.446330195751     1.320425738410     1.782288325174     1.007825032230
         H            2.202108195751     2.175045738410     0.420496325174     1.007825032230
         H            0.459060195751     2.370053738410     0.740445325174     1.007825032230
         H           -2.315610804249    -1.764184261590    -0.105865674826     1.007825032230
         H           -2.541870804249    -0.928275261590     1.417203325174     1.007825032230
         H           -4.182603804249     0.642901738410     0.320748325174     1.007825032230
         H           -3.956851804249    -0.197354261590    -1.215349674826     1.007825032230
         H           -4.694734804249    -1.046355261590     0.154430325174     1.007825032230

  Basis Set: AUG-CC-PVTZ
    Blend: AUG-CC-PVTZ
  Basis Set: (AUG-CC-PVTZ AUX)
    Blend: AUG-CC-PVTZ-JKFIT
	 Reference Energy          =    -512.3353647170356453 [Eh]
	 Singles Energy            =      -0.0000000000000000 [Eh]
	 Same-Spin Energy          =      -0.5202320439914819 [Eh]
	 Opposite-Spin Energy      =      -1.6215040788310808 [Eh]
	 Correlation Energy        =      -2.1417361228225626 [Eh]
	 Total Energy              =    -514.4771008398581671 [Eh]

	 ================> DF-SCS-MP2 Energies <==================
	-----------------------------------------------------------
	 SCS Same-Spin Scale       =       0.3333333333333333 [-]
	 SCS Opposite-Spin Scale   =       1.2000000000000000 [-]
	 SCS Same-Spin Energy      =      -0.1734106813304940 [Eh]
	 SCS Opposite-Spin Energy  =      -1.9458048945972970 [Eh]
	 SCS Correlation Energy    =      -2.1192155759277909 [Eh]
	 SCS Total Energy          =    -514.4545802929634419 [Eh]
	-----------------------------------------------------------

  Dipole Moment: [D]
     X:    -8.6762      Y:     0.6212      Z:     1.5967     Total:     8.8437

*** Psi4 exiting successfully. Buy a developer a beer!
