                               Psi4 1.4a3.dev225

  ==> Input File <==

--------------------------------------------------------------------------
#psi4
#
memory 32 gb

molecule  {
-1 1
  O       -1.5868420     1.2523650    -0.8113290
  O        2.0299390    -1.6922460     0.2543140
  O        3.4074630     0.0142020    -0.3584910
  N       -0.1383540    -0.2870410     0.0455440
  C        1.0782140     0.4735880    -0.1782270
  C        1.2275190     1.6106150     0.8299030
  C       -2.4816390    -0.8906360    -0.1487800
  C       -1.3823143     0.1278073    -0.3400106
  C        2.2855270    -0.4976230    -0.0923730
  C       -3.7126180    -0.2515540     0.4884160
  H        1.0494870     0.8996880    -1.1894520
  H        0.0515970    -1.2513350     0.3145600
  H        1.2660770     1.2028380     1.8451460
  H        2.1536960     2.1558630     0.6353850
  H        0.3800930     2.2967220     0.7589720
  H       -2.7387560    -1.2794370    -1.1416750
  H       -2.1327770    -1.7398080     0.4477120
  H       -3.4838230     0.1112750     1.4946450
  H       -4.0489630     0.5957980    -0.1116680
  H       -4.5299760    -0.9736440     0.5641870
units angstrom
no_reorient  #important for SAPT in psi4, default
symmetry c1  #important for SAPT in psi4, default
}

set PROPERTIES_ORIGIN ["COM"]
properties('MP2/aug-cc-pvtz', properties = ['dipole'])
--------------------------------------------------------------------------

    Molecular point group: c1
  Charge       = -1
  Multiplicity = 1
  Basis Set: AUG-CC-PVTZ
    Blend: AUG-CC-PVTZ
  Basis Set: (AUG-CC-PVTZ AUX)
    Blend: AUG-CC-PVTZ-JKFIT

    Orbital Energies [Eh]
    ---------------------

    Doubly Occupied:

       1A    -20.391292     2A    -20.321892     3A    -20.313648
       4A    -15.438791     5A    -11.223860     6A    -11.161590
       7A    -11.135108     8A    -11.128330     9A    -11.113687
      10A    -11.076198    11A     -1.245551    12A     -1.190232
      13A     -1.095035    14A     -1.078536    15A     -0.952740
      16A     -0.876578    17A     -0.785160    18A     -0.722503
      19A     -0.640050    20A     -0.588728    21A     -0.547619
      22A     -0.523807    23A     -0.512753    24A     -0.486329
      25A     -0.461976    26A     -0.444168    27A     -0.434547
      28A     -0.419099    29A     -0.413131    30A     -0.404983
      31A     -0.395603    32A     -0.376179    33A     -0.368624
      34A     -0.341141    35A     -0.299648    36A     -0.256278
      37A     -0.236771    38A     -0.222259    39A     -0.214854

  @DF-RHF Final Energy:  -512.33597934993873

   => Energetics <=

    Nuclear Repulsion Energy =            534.2134356637471910
    One-Electron Energy =               -1773.4202712242013149
    Two-Electron Energy =                 726.8708562105155124
    Total Energy =                       -512.3359793499387251
  Basis Set: (AUG-CC-PVTZ AUX)
    Blend: AUG-CC-PVTZ-RI
    Molecular point group: c1

    Geometry (in Angstrom), charge = -1, multiplicity = 1:

       Center              X                  Y                   Z               Mass
    ------------   -----------------  -----------------  -----------------  -----------------
         O           -1.668059981247     1.265748008559    -0.785976590153    15.994914619570
         O            1.948721018753    -1.678862991441     0.279666409847    15.994914619570
         O            3.326245018753     0.027585008559    -0.333138590153    15.994914619570
         N           -0.219571981247    -0.273657991441     0.070896409847    14.003074004430
         C            0.996996018753     0.486971008559    -0.152874590153    12.000000000000
         C            1.146301018753     1.623998008559     0.855255409847    12.000000000000
         C           -2.562856981247    -0.877252991441    -0.123427590153    12.000000000000
         C           -1.463532281247     0.141190308559    -0.314658190153    12.000000000000
         C            2.204309018753    -0.484239991441    -0.067020590153    12.000000000000
         C           -3.793835981247    -0.238170991441     0.513768409847    12.000000000000
         H            0.968269018753     0.913071008559    -1.164099590153     1.007825032230
         H           -0.029620981247    -1.237951991441     0.339912409847     1.007825032230
         H            1.184859018753     1.216221008559     1.870498409847     1.007825032230
         H            2.072478018753     2.169246008559     0.660737409847     1.007825032230
         H            0.298875018753     2.310105008559     0.784324409847     1.007825032230
         H           -2.819973981247    -1.266053991441    -1.116322590153     1.007825032230
         H           -2.213994981247    -1.726424991441     0.473064409847     1.007825032230
         H           -3.565040981247     0.124658008559     1.519997409847     1.007825032230
         H           -4.130180981247     0.609181008559    -0.086315590153     1.007825032230
         H           -4.611193981247    -0.960260991441     0.589539409847     1.007825032230

  Basis Set: AUG-CC-PVTZ
    Blend: AUG-CC-PVTZ
  Basis Set: (AUG-CC-PVTZ AUX)
    Blend: AUG-CC-PVTZ-JKFIT
	 Reference Energy          =    -512.3359793499387251 [Eh]
	 Singles Energy            =      -0.0000000000000000 [Eh]
	 Same-Spin Energy          =      -0.5203951970026357 [Eh]
	 Opposite-Spin Energy      =      -1.6216857868274634 [Eh]
	 Correlation Energy        =      -2.1420809838300992 [Eh]
	 Total Energy              =    -514.4780603337687808 [Eh]

	 ================> DF-SCS-MP2 Energies <==================
	-----------------------------------------------------------
	 SCS Same-Spin Scale       =       0.3333333333333333 [-]
	 SCS Opposite-Spin Scale   =       1.2000000000000000 [-]
	 SCS Same-Spin Energy      =      -0.1734650656675452 [Eh]
	 SCS Opposite-Spin Energy  =      -1.9460229441929560 [Eh]
	 SCS Correlation Energy    =      -2.1194880098605013 [Eh]
	 SCS Total Energy          =    -514.4554673597991723 [Eh]
	-----------------------------------------------------------

  Dipole Moment: [D]
     X:    -8.8281      Y:     0.4291      Z:     1.1695     Total:     8.9156

*** Psi4 exiting successfully. Buy a developer a beer!
