                               Psi4 1.3.2 release

  ==> Input File <==

--------------------------------------------------------------------------
#psi4
#
memory 32 gb

molecule  {
-1 1
  O       -1.6024110     1.2883820    -0.5634480
  O        2.0191420    -1.7287390     0.1939930
  O        3.3803020    -0.0587520    -0.5397320
  N       -0.1147610    -0.2476350     0.2334190
  C        1.0875530     0.4615680    -0.1724770
  C        1.3545229     1.6611144     0.7305822
  C       -2.4731170    -0.8032840     0.3122730
  C       -1.3649450     0.1785500    -0.0525630
  C        2.2594994    -0.5564747    -0.1926524
  C       -3.8468580    -0.3344400    -0.1480570
  H        0.9550610     0.8289670    -1.1997950
  H        0.0672430    -1.2232590     0.4643770
  H        1.5293690     1.3045580     1.7644240
  H        2.2851470     2.1591780     0.4026320
  H        0.5420990     2.3541860     0.7225810
  H       -2.2325720    -1.7800520    -0.1237300
  H       -2.4588320    -0.9441430     1.3993390
  H       -4.0995650     0.6270340     0.3028840
  H       -3.8738130    -0.2132220    -1.2332140
  H       -4.6116960    -1.0622230     0.1365660
units angstrom
no_reorient  #important for SAPT in psi4, default
symmetry c1  #important for SAPT in psi4, default
}

set PROPERTIES_ORIGIN ["COM"]
properties('MP2/aug-cc-pvtz', properties = ['dipole'])
--------------------------------------------------------------------------

    Molecular point group: c1
  Charge       = -1
  Multiplicity = 1
  Basis Set: AUG-CC-PVTZ
    Blend: AUG-CC-PVTZ
  Basis Set: (AUG-CC-PVTZ AUX)
    Blend: AUG-CC-PVTZ-JKFIT

    Orbital Energies [Eh]
    ---------------------

    Doubly Occupied:

       1A    -20.392028     2A    -20.325965     3A    -20.310670
       4A    -15.437941     5A    -11.223727     6A    -11.162574
       7A    -11.135592     8A    -11.124535     9A    -11.114868
      10A    -11.075744    11A     -1.241900    12A     -1.192154
      13A     -1.094029    14A     -1.082463    15A     -0.949541
      16A     -0.877877    17A     -0.784163    18A     -0.722076
      19A     -0.639808    20A     -0.588502    21A     -0.541917
      22A     -0.533161    23A     -0.511293    24A     -0.483308
      25A     -0.467436    26A     -0.438649    27A     -0.424877
      28A     -0.420061    29A     -0.413260    30A     -0.404420
      31A     -0.397720    32A     -0.375076    33A     -0.369652
      34A     -0.340501    35A     -0.299787    36A     -0.256735
      37A     -0.238255    38A     -0.222386    39A     -0.214935

  @DF-RHF Final Energy:  -512.33430259557963

   => Energetics <=

    Nuclear Repulsion Energy =            533.4542092521393215
    One-Electron Energy =               -1771.9178484722410758
    Two-Electron Energy =                 726.1293366245222387
    Total Energy =                       -512.3343025955796293
  Basis Set: (AUG-CC-PVTZ AUX)
    Blend: AUG-CC-PVTZ-RI
    Molecular point group: c1

    Geometry (in Angstrom), charge = -1, multiplicity = 1:

       Center              X                  Y                   Z               Mass
    ------------   -----------------  -----------------  -----------------  -----------------
         O           -1.681093078487     1.302954337327    -0.543375098325    15.994914619570
         O            1.940459921513    -1.714166662673     0.214065901675    15.994914619570
         O            3.301619921513    -0.044179662673    -0.519659098325    15.994914619570
         N           -0.193443078487    -0.233062662673     0.253491901675    14.003074004430
         C            1.008870921513     0.476140337327    -0.152404098325    12.000000000000
         C            1.275840821513     1.675686737327     0.750655101675    12.000000000000
         C           -2.551799078487    -0.788711662673     0.332345901675    12.000000000000
         C           -1.443627078487     0.193122337327    -0.032490098325    12.000000000000
         C            2.180817321513    -0.541902362673    -0.172579498325    12.000000000000
         C           -3.925540078487    -0.319867662673    -0.127984098325    12.000000000000
         H            0.876378921513     0.843539337327    -1.179722098325     1.007825032230
         H           -0.011439078487    -1.208686662673     0.484449901675     1.007825032230
         H            1.450686921513     1.319130337327     1.784496901675     1.007825032230
         H            2.206464921513     2.173750337327     0.422704901675     1.007825032230
         H            0.463416921513     2.368758337327     0.742653901675     1.007825032230
         H           -2.311254078487    -1.765479662673    -0.103657098325     1.007825032230
         H           -2.537514078487    -0.929570662673     1.419411901675     1.007825032230
         H           -4.178247078487     0.641606337327     0.322956901675     1.007825032230
         H           -3.952495078487    -0.198649662673    -1.213141098325     1.007825032230
         H           -4.690378078487    -1.047650662673     0.156638901675     1.007825032230

  Basis Set: AUG-CC-PVTZ
    Blend: AUG-CC-PVTZ
  Basis Set: (AUG-CC-PVTZ AUX)
    Blend: AUG-CC-PVTZ-JKFIT
	 Reference Energy          =    -512.3343025955796293 [Eh]
	 Singles Energy            =      -0.0000000000000000 [Eh]
	 Same-Spin Energy          =      -0.5202287832203741 [Eh]
	 Opposite-Spin Energy      =      -1.6215144649869839 [Eh]
	 Correlation Energy        =      -2.1417432482073582 [Eh]
	 Total Energy              =    -514.4760458437870057 [Eh]

	 ================> DF-SCS-MP2 Energies <==================
	-----------------------------------------------------------
	 SCS Same-Spin Scale       =       0.3333333333333333 [-]
	 SCS Opposite-Spin Scale   =       1.2000000000000000 [-]
	 SCS Same-Spin Energy      =      -0.1734095944067914 [Eh]
	 SCS Opposite-Spin Energy  =      -1.9458173579843807 [Eh]
	 SCS Correlation Energy    =      -2.1192269523911720 [Eh]
	 SCS Total Energy          =    -514.4535295479707884 [Eh]
	-----------------------------------------------------------

  Dipole Moment: [D]
     X:    -8.7923      Y:     0.5306      Z:     1.6311     Total:     8.9580

*** Psi4 exiting successfully. Buy a developer a beer!
