                               Psi4 1.3.2 release

  ==> Input File <==

--------------------------------------------------------------------------
#psi4
#
memory 32 gb

molecule  {
0 1
  O       -0.1434730    -0.3418260     0.0001200
  O       -2.2943480    -0.3022200    -0.0003020
  N       -1.2770414     0.5019080     0.0001347
  C        0.9942900     0.5577750     0.0000260
  C        2.2263960    -0.3194130     0.0000350
  H        0.9504280     1.1934050    -0.8894500
  H        0.9504900     1.1935070     0.8894320
  H        3.1263330     0.3018800    -0.0000350
  H        2.2416080    -0.9559660     0.8869040
  H        2.2415440    -0.9560740    -0.8867580
units angstrom
no_reorient  #important for SAPT in psi4, default
symmetry c1  #important for SAPT in psi4, default
}

set PROPERTIES_ORIGIN ["COM"]
properties('MP2/aug-cc-pvtz', properties = ['dipole'])
--------------------------------------------------------------------------

    Molecular point group: c1
  Charge       = 0
  Multiplicity = 1
  Basis Set: AUG-CC-PVTZ
    Blend: AUG-CC-PVTZ
  Basis Set: (AUG-CC-PVTZ AUX)
    Blend: AUG-CC-PVTZ-JKFIT

    Orbital Energies [Eh]
    ---------------------

    Doubly Occupied:

       1A    -20.645954     2A    -20.643985     3A    -15.798846
       4A    -11.306676     5A    -11.238015     6A     -1.524366
       7A     -1.375056     8A     -1.055697     9A     -0.943369
      10A     -0.868111    11A     -0.721618    12A     -0.699012
      13A     -0.687697    14A     -0.605832    15A     -0.585758
      16A     -0.553799    17A     -0.539732    18A     -0.531816
      19A     -0.469862    20A     -0.468872

  @DF-RHF Final Energy:  -282.77728710003487

   => Energetics <=

    Nuclear Repulsion Energy =            172.8590801760971658
    One-Electron Energy =                -728.7445908248929527
    Two-Electron Energy =                 273.1082235487609751
    Total Energy =                       -282.7772871000348687
  Basis Set: (AUG-CC-PVTZ AUX)
    Blend: AUG-CC-PVTZ-RI
    Molecular point group: c1

    Geometry (in Angstrom), charge = 0, multiplicity = 1:

       Center              X                  Y                   Z               Mass
    ------------   -----------------  -----------------  -----------------  -----------------
         O           -0.028292990110    -0.346756803600     0.000122653969    15.994914619570
         O           -2.179167990110    -0.307150803600    -0.000299346031    15.994914619570
         N           -1.161861390110     0.496977196400     0.000137353969    14.003074004430
         C            1.109470009890     0.552844196400     0.000028653969    12.000000000000
         C            2.341576009890    -0.324343803600     0.000037653969    12.000000000000
         H            1.065608009890     1.188474196400    -0.889447346031     1.007825032230
         H            1.065670009890     1.188576196400     0.889434653969     1.007825032230
         H            3.241513009890     0.296949196400    -0.000032346031     1.007825032230
         H            2.356788009890    -0.960896803600     0.886906653969     1.007825032230
         H            2.356724009890    -0.961004803600    -0.886755346031     1.007825032230

  Basis Set: AUG-CC-PVTZ
    Blend: AUG-CC-PVTZ
  Basis Set: (AUG-CC-PVTZ AUX)
    Blend: AUG-CC-PVTZ-JKFIT
	 Reference Energy          =    -282.7772871000348687 [Eh]
	 Singles Energy            =      -0.0000000000000000 [Eh]
	 Same-Spin Energy          =      -0.2770744602690948 [Eh]
	 Opposite-Spin Energy      =      -0.8719773475698125 [Eh]
	 Correlation Energy        =      -1.1490518078389074 [Eh]
	 Total Energy              =    -283.9263389078737987 [Eh]

	 ================> DF-SCS-MP2 Energies <==================
	-----------------------------------------------------------
	 SCS Same-Spin Scale       =       0.3333333333333333 [-]
	 SCS Opposite-Spin Scale   =       1.2000000000000000 [-]
	 SCS Same-Spin Energy      =      -0.0923581534230316 [Eh]
	 SCS Opposite-Spin Energy  =      -1.0463728170837749 [Eh]
	 SCS Correlation Energy    =      -1.1387309705068065 [Eh]
	 SCS Total Energy          =    -283.9160180705416678 [Eh]
	-----------------------------------------------------------

  Dipole Moment: [D]
     X:     2.8442      Y:     1.0211      Z:     0.0001     Total:     3.0219

*** Psi4 exiting successfully. Buy a developer a beer!
