                               Psi4 1.3.2 release

  ==> Input File <==

--------------------------------------------------------------------------
#psi4
#
memory 32 gb

molecule  {
0 1
  O       -0.0432063    -0.4558265     0.0001233
  O       -2.2943480    -0.3022200    -0.0003020
  N       -1.3331360     0.4207790     0.0001410
  C        0.9942900     0.5577750     0.0000260
  C        2.2263960    -0.3194130     0.0000350
  H        0.9504280     1.1934050    -0.8894500
  H        0.9504900     1.1935070     0.8894320
  H        3.1263330     0.3018800    -0.0000350
  H        2.2416080    -0.9559660     0.8869040
  H        2.2415440    -0.9560740    -0.8867580
units angstrom
no_reorient  #important for SAPT in psi4, default
symmetry c1  #important for SAPT in psi4, default
}

set PROPERTIES_ORIGIN ["COM"]
properties('MP2/aug-cc-pvtz', properties = ['dipole'])
--------------------------------------------------------------------------

    Molecular point group: c1
  Charge       = 0
  Multiplicity = 1
  Basis Set: AUG-CC-PVTZ
    Blend: AUG-CC-PVTZ
  Basis Set: (AUG-CC-PVTZ AUX)
    Blend: AUG-CC-PVTZ-JKFIT

    Orbital Energies [Eh]
    ---------------------

    Doubly Occupied:

       1A    -20.679110     2A    -20.616986     3A    -15.802452
       4A    -11.292290     5A    -11.224628     6A     -1.568847
       7A     -1.364228     8A     -1.031873     9A     -0.938601
      10A     -0.851490    11A     -0.732377    12A     -0.703399
      13A     -0.681738    14A     -0.625171    15A     -0.597356
      16A     -0.543717    17A     -0.535507    18A     -0.531640
      19A     -0.469647    20A     -0.436757

  @DF-RHF Final Energy:  -282.78381638482438

   => Energetics <=

    Nuclear Repulsion Energy =            172.0862621812301541
    One-Electron Energy =                -727.2845253071504885
    Two-Electron Energy =                 272.4144467410959578
    Total Energy =                       -282.7838163848243767
  Basis Set: (AUG-CC-PVTZ AUX)
    Blend: AUG-CC-PVTZ-RI
    Molecular point group: c1

    Geometry (in Angstrom), charge = 0, multiplicity = 1:

       Center              X                  Y                   Z               Mass
    ------------   -----------------  -----------------  -----------------  -----------------
         O            0.061068227418    -0.421314365459     0.000124074737    15.994914619570
         O           -2.190073472582    -0.267707865459    -0.000301225263    15.994914619570
         N           -1.228861472582     0.455291134541     0.000141774737    14.003074004430
         C            1.098564527418     0.592287134541     0.000026774737    12.000000000000
         C            2.330670527418    -0.284900865459     0.000035774737    12.000000000000
         H            1.054702527418     1.227917134541    -0.889449225263     1.007825032230
         H            1.054764527418     1.228019134541     0.889432774737     1.007825032230
         H            3.230607527418     0.336392134541    -0.000034225263     1.007825032230
         H            2.345882527418    -0.921453865459     0.886904774737     1.007825032230
         H            2.345818527418    -0.921561865459    -0.886757225263     1.007825032230

  Basis Set: AUG-CC-PVTZ
    Blend: AUG-CC-PVTZ
  Basis Set: (AUG-CC-PVTZ AUX)
    Blend: AUG-CC-PVTZ-JKFIT
	 Reference Energy          =    -282.7838163848243767 [Eh]
	 Singles Energy            =      -0.0000000000000000 [Eh]
	 Same-Spin Energy          =      -0.2761800995876253 [Eh]
	 Opposite-Spin Energy      =      -0.8714391177440046 [Eh]
	 Correlation Energy        =      -1.1476192173316300 [Eh]
	 Total Energy              =    -283.9314356021560002 [Eh]

	 ================> DF-SCS-MP2 Energies <==================
	-----------------------------------------------------------
	 SCS Same-Spin Scale       =       0.3333333333333333 [-]
	 SCS Opposite-Spin Scale   =       1.2000000000000000 [-]
	 SCS Same-Spin Energy      =      -0.0920600331958751 [Eh]
	 SCS Opposite-Spin Energy  =      -1.0457269412928054 [Eh]
	 SCS Correlation Energy    =      -1.1377869744886806 [Eh]
	 SCS Total Energy          =    -283.9216033593130533 [Eh]
	-----------------------------------------------------------

  Dipole Moment: [D]
     X:     1.1819      Y:     1.2262      Z:    -0.0000     Total:     1.7031

*** Psi4 exiting successfully. Buy a developer a beer!
