                               Psi4 1.3.2 release

  ==> Input File <==

--------------------------------------------------------------------------
#psi4
#
memory 32 gb

molecule  {
0 1
  O       -0.1434730    -0.3418260     0.0001200
  O       -2.2943480    -0.3022200    -0.0003020
  N       -1.2489481     0.3668124     0.0001395
  C        0.9942900     0.5577750     0.0000260
  C        2.2263960    -0.3194130     0.0000350
  H        0.9504280     1.1934050    -0.8894500
  H        0.9504900     1.1935070     0.8894320
  H        3.1263330     0.3018800    -0.0000350
  H        2.2416080    -0.9559660     0.8869040
  H        2.2415440    -0.9560740    -0.8867580
units angstrom
no_reorient  #important for SAPT in psi4, default
symmetry c1  #important for SAPT in psi4, default
}

set PROPERTIES_ORIGIN ["COM"]
properties('MP2/aug-cc-pvtz', properties = ['dipole'])
--------------------------------------------------------------------------

    Molecular point group: c1
  Charge       = 0
  Multiplicity = 1
  Basis Set: AUG-CC-PVTZ
    Blend: AUG-CC-PVTZ
  Basis Set: (AUG-CC-PVTZ AUX)
    Blend: AUG-CC-PVTZ-JKFIT

    Orbital Energies [Eh]
    ---------------------

    Doubly Occupied:

       1A    -20.653946     2A    -20.623617     3A    -15.775049
       4A    -11.314397     5A    -11.242570     6A     -1.571118
       7A     -1.406375     8A     -1.071589     9A     -0.934093
      10A     -0.872633    11A     -0.741006    12A     -0.717440
      13A     -0.707925    14A     -0.622692    15A     -0.587744
      16A     -0.558000    17A     -0.544461    18A     -0.537182
      19A     -0.474222    20A     -0.448080

  @DF-RHF Final Energy:  -282.80631438960370

   => Energetics <=

    Nuclear Repulsion Energy =            175.6905967518750629
    One-Electron Energy =                -734.1855451759884090
    Two-Electron Energy =                 275.6886340345096187
    Total Energy =                       -282.8063143896036991
  Basis Set: (AUG-CC-PVTZ AUX)
    Blend: AUG-CC-PVTZ-RI
    Molecular point group: c1

    Geometry (in Angstrom), charge = 0, multiplicity = 1:

       Center              X                  Y                   Z               Mass
    ------------   -----------------  -----------------  -----------------  -----------------
         O           -0.033535985232    -0.321544188072     0.000121758155    15.994914619570
         O           -2.184410985232    -0.281938188072    -0.000300241845    15.994914619570
         N           -1.139011085232     0.387094211928     0.000141258155    14.003074004430
         C            1.104227014768     0.578056811928     0.000027758155    12.000000000000
         C            2.336333014768    -0.299131188072     0.000036758155    12.000000000000
         H            1.060365014768     1.213686811928    -0.889448241845     1.007825032230
         H            1.060427014768     1.213788811928     0.889433758155     1.007825032230
         H            3.236270014768     0.322161811928    -0.000033241845     1.007825032230
         H            2.351545014768    -0.935684188072     0.886905758155     1.007825032230
         H            2.351481014768    -0.935792188072    -0.886756241845     1.007825032230

  Basis Set: AUG-CC-PVTZ
    Blend: AUG-CC-PVTZ
  Basis Set: (AUG-CC-PVTZ AUX)
    Blend: AUG-CC-PVTZ-JKFIT
	 Reference Energy          =    -282.8063143896036991 [Eh]
	 Singles Energy            =      -0.0000000000000000 [Eh]
	 Same-Spin Energy          =      -0.2724543731998093 [Eh]
	 Opposite-Spin Energy      =      -0.8577734928171787 [Eh]
	 Correlation Energy        =      -1.1302278660169880 [Eh]
	 Total Energy              =    -283.9365422556206795 [Eh]

	 ================> DF-SCS-MP2 Energies <==================
	-----------------------------------------------------------
	 SCS Same-Spin Scale       =       0.3333333333333333 [-]
	 SCS Opposite-Spin Scale   =       1.2000000000000000 [-]
	 SCS Same-Spin Energy      =      -0.0908181243999364 [Eh]
	 SCS Opposite-Spin Energy  =      -1.0293281913806145 [Eh]
	 SCS Correlation Energy    =      -1.1201463157805509 [Eh]
	 SCS Total Energy          =    -283.9264607053842724 [Eh]
	-----------------------------------------------------------

  Dipole Moment: [D]
     X:     3.4800      Y:     0.9137      Z:     0.0001     Total:     3.5980

*** Psi4 exiting successfully. Buy a developer a beer!
