                               Psi4 1.3.2 release

  ==> Input File <==

--------------------------------------------------------------------------
#psi4
#
memory 32 gb

molecule  {
0 1
  O       -0.1569635    -0.3624723     0.0001102
  O       -2.2943480    -0.3022200    -0.0003020
  N       -1.3331360     0.4207790     0.0001410
  C        0.9942900     0.5577750     0.0000260
  C        2.2263960    -0.3194130     0.0000350
  H        0.9504280     1.1934050    -0.8894500
  H        0.9504900     1.1935070     0.8894320
  H        3.1263330     0.3018800    -0.0000350
  H        2.2416080    -0.9559660     0.8869040
  H        2.2415440    -0.9560740    -0.8867580
units angstrom
no_reorient  #important for SAPT in psi4, default
symmetry c1  #important for SAPT in psi4, default
}

set PROPERTIES_ORIGIN ["COM"]
properties('MP2/aug-cc-pvtz', properties = ['dipole'])
--------------------------------------------------------------------------

    Molecular point group: c1
  Charge       = 0
  Multiplicity = 1
  Basis Set: AUG-CC-PVTZ
    Blend: AUG-CC-PVTZ
  Basis Set: (AUG-CC-PVTZ AUX)
    Blend: AUG-CC-PVTZ-JKFIT

    Orbital Energies [Eh]
    ---------------------

    Doubly Occupied:

       1A    -20.646699     2A    -20.629640     3A    -15.783781
       4A    -11.304825     5A    -11.235699     6A     -1.569908
       7A     -1.387255     8A     -1.051429     9A     -0.927988
      10A     -0.862283    11A     -0.737779    12A     -0.703747
      13A     -0.695587    14A     -0.624370    15A     -0.590127
      16A     -0.554787    17A     -0.537026    18A     -0.536297
      19A     -0.473412    20A     -0.448891

  @DF-RHF Final Energy:  -282.80822390875375

   => Energetics <=

    Nuclear Repulsion Energy =            173.9235499194468844
    One-Electron Energy =                -730.8604853726283181
    Two-Electron Energy =                 274.1287115444276310
    Total Energy =                       -282.8082239087537459
  Basis Set: (AUG-CC-PVTZ AUX)
    Blend: AUG-CC-PVTZ-RI
    Molecular point group: c1

    Geometry (in Angstrom), charge = 0, multiplicity = 1:

       Center              X                  Y                   Z               Mass
    ------------   -----------------  -----------------  -----------------  -----------------
         O           -0.028438839139    -0.347860899720     0.000113767323    15.994914619570
         O           -2.165823339139    -0.287608599720    -0.000298432677    15.994914619570
         N           -1.204611339139     0.435390400280     0.000144567323    14.003074004430
         C            1.122814660861     0.572386400280     0.000029567323    12.000000000000
         C            2.354920660861    -0.304801599720     0.000038567323    12.000000000000
         H            1.078952660861     1.208016400280    -0.889446432677     1.007825032230
         H            1.079014660861     1.208118400280     0.889435567323     1.007825032230
         H            3.254857660861     0.316491400280    -0.000031432677     1.007825032230
         H            2.370132660861    -0.941354599720     0.886907567323     1.007825032230
         H            2.370068660861    -0.941462599720    -0.886754432677     1.007825032230

  Basis Set: AUG-CC-PVTZ
    Blend: AUG-CC-PVTZ
  Basis Set: (AUG-CC-PVTZ AUX)
    Blend: AUG-CC-PVTZ-JKFIT
	 Reference Energy          =    -282.8082239087537459 [Eh]
	 Singles Energy            =      -0.0000000000000000 [Eh]
	 Same-Spin Energy          =      -0.2725246305621800 [Eh]
	 Opposite-Spin Energy      =      -0.8603047432380870 [Eh]
	 Correlation Energy        =      -1.1328293738002670 [Eh]
	 Total Energy              =    -283.9410532825540372 [Eh]

	 ================> DF-SCS-MP2 Energies <==================
	-----------------------------------------------------------
	 SCS Same-Spin Scale       =       0.3333333333333333 [-]
	 SCS Opposite-Spin Scale   =       1.2000000000000000 [-]
	 SCS Same-Spin Energy      =      -0.0908415435207267 [Eh]
	 SCS Opposite-Spin Energy  =      -1.0323656918857045 [Eh]
	 SCS Correlation Energy    =      -1.1232072354064311 [Eh]
	 SCS Total Energy          =    -283.9314311441601717 [Eh]
	-----------------------------------------------------------

  Dipole Moment: [D]
     X:     2.5468      Y:     1.0635      Z:     0.0001     Total:     2.7599

*** Psi4 exiting successfully. Buy a developer a beer!
