                               Psi4 1.3.2 release

  ==> Input File <==

--------------------------------------------------------------------------
#psi4
#
memory 32 gb

molecule  {
0 1
  O       -0.1434730    -0.3418260     0.0001200
  O       -2.2943480    -0.3022200    -0.0003020
  N       -1.4173239     0.4747456     0.0001425
  C        0.9942900     0.5577750     0.0000260
  C        2.2263960    -0.3194130     0.0000350
  H        0.9504280     1.1934050    -0.8894500
  H        0.9504900     1.1935070     0.8894320
  H        3.1263330     0.3018800    -0.0000350
  H        2.2416080    -0.9559660     0.8869040
  H        2.2415440    -0.9560740    -0.8867580
units angstrom
no_reorient  #important for SAPT in psi4, default
symmetry c1  #important for SAPT in psi4, default
}

set PROPERTIES_ORIGIN ["COM"]
properties('MP2/aug-cc-pvtz', properties = ['dipole'])
--------------------------------------------------------------------------

    Molecular point group: c1
  Charge       = 0
  Multiplicity = 1
  Basis Set: AUG-CC-PVTZ
    Blend: AUG-CC-PVTZ
  Basis Set: (AUG-CC-PVTZ AUX)
    Blend: AUG-CC-PVTZ-JKFIT

    Orbital Energies [Eh]
    ---------------------

    Doubly Occupied:

       1A    -20.670580     2A    -20.608296     3A    -15.795511
       4A    -11.291856     5A    -11.228272     6A     -1.596589
       7A     -1.364367     8A     -1.036109     9A     -0.932916
      10A     -0.851854    11A     -0.740869    12A     -0.712003
      13A     -0.687421    14A     -0.633532    15A     -0.588538
      16A     -0.556365    17A     -0.535306    18A     -0.527938
      19A     -0.462776    20A     -0.437981

  @DF-RHF Final Energy:  -282.80246463739547

   => Energetics <=

    Nuclear Repulsion Energy =            172.8927139926448717
    One-Electron Energy =                -728.8721980234635112
    Two-Electron Energy =                 273.1770193934231656
    Total Energy =                       -282.8024646373954738
  Basis Set: (AUG-CC-PVTZ AUX)
    Blend: AUG-CC-PVTZ-RI
    Molecular point group: c1

    Geometry (in Angstrom), charge = 0, multiplicity = 1:

       Center              X                  Y                   Z               Mass
    ------------   -----------------  -----------------  -----------------  -----------------
         O           -0.002112354043    -0.341687540441     0.000121198271    15.994914619570
         O           -2.152987354043    -0.302081540441    -0.000300801729    15.994914619570
         N           -1.275963254043     0.474884059559     0.000143698271    14.003074004430
         C            1.135650645957     0.557913459559     0.000027198271    12.000000000000
         C            2.367756645957    -0.319274540441     0.000036198271    12.000000000000
         H            1.091788645957     1.193543459559    -0.889448801729     1.007825032230
         H            1.091850645957     1.193645459559     0.889433198271     1.007825032230
         H            3.267693645957     0.302018459559    -0.000033801729     1.007825032230
         H            2.382968645957    -0.955827540441     0.886905198271     1.007825032230
         H            2.382904645957    -0.955935540441    -0.886756801729     1.007825032230

  Basis Set: AUG-CC-PVTZ
    Blend: AUG-CC-PVTZ
  Basis Set: (AUG-CC-PVTZ AUX)
    Blend: AUG-CC-PVTZ-JKFIT
	 Reference Energy          =    -282.8024646373954738 [Eh]
	 Singles Energy            =      -0.0000000000000000 [Eh]
	 Same-Spin Energy          =      -0.2730681759183219 [Eh]
	 Opposite-Spin Energy      =      -0.8628997857329515 [Eh]
	 Correlation Energy        =      -1.1359679616512735 [Eh]
	 Total Energy              =    -283.9384325990467346 [Eh]

	 ================> DF-SCS-MP2 Energies <==================
	-----------------------------------------------------------
	 SCS Same-Spin Scale       =       0.3333333333333333 [-]
	 SCS Opposite-Spin Scale   =       1.2000000000000000 [-]
	 SCS Same-Spin Energy      =      -0.0910227253061073 [Eh]
	 SCS Opposite-Spin Energy  =      -1.0354797428795417 [Eh]
	 SCS Correlation Energy    =      -1.1265024681856490 [Eh]
	 SCS Total Energy          =    -283.9289671055811368 [Eh]
	-----------------------------------------------------------

  Dipole Moment: [D]
     X:     1.4889      Y:     1.1316      Z:    -0.0000     Total:     1.8701

*** Psi4 exiting successfully. Buy a developer a beer!
