                               Psi4 1.3.2 release

  ==> Input File <==

--------------------------------------------------------------------------
#psi4
#
memory 32 gb

molecule  {
0 1
  O       -0.1726338    -0.2992393     0.0872145
  O       -2.2943480    -0.3022200    -0.0003020
  N       -1.3331360     0.4207790     0.0001410
  C        0.9942900     0.5577750     0.0000260
  C        2.2263960    -0.3194130     0.0000350
  H        0.9504280     1.1934050    -0.8894500
  H        0.9504900     1.1935070     0.8894320
  H        3.1263330     0.3018800    -0.0000350
  H        2.2416080    -0.9559660     0.8869040
  H        2.2415440    -0.9560740    -0.8867580
units angstrom
no_reorient  #important for SAPT in psi4, default
symmetry c1  #important for SAPT in psi4, default
}

set PROPERTIES_ORIGIN ["COM"]
properties('MP2/aug-cc-pvtz', properties = ['dipole'])
--------------------------------------------------------------------------

    Molecular point group: c1
  Charge       = 0
  Multiplicity = 1
  Basis Set: AUG-CC-PVTZ
    Blend: AUG-CC-PVTZ
  Basis Set: (AUG-CC-PVTZ AUX)
    Blend: AUG-CC-PVTZ-JKFIT

    Orbital Energies [Eh]
    ---------------------

    Doubly Occupied:

       1A    -20.637703     2A    -20.634213     3A    -15.778951
       4A    -11.306799     5A    -11.239050     6A     -1.575803
       7A     -1.402754     8A     -1.059908     9A     -0.931122
      10A     -0.863907    11A     -0.743267    12A     -0.707597
      13A     -0.704964    14A     -0.625858    15A     -0.588733
      16A     -0.563264    17A     -0.539395    18A     -0.535503
      19A     -0.471298    20A     -0.447485

  @DF-RHF Final Energy:  -282.81285111073629

   => Energetics <=

    Nuclear Repulsion Energy =            174.9531892862708844
    One-Electron Energy =                -732.8169309975897932
    Two-Electron Energy =                 275.0508906005825907
    Total Energy =                       -282.8128511107362897
  Basis Set: (AUG-CC-PVTZ AUX)
    Blend: AUG-CC-PVTZ-RI
    Molecular point group: c1

    Geometry (in Angstrom), charge = 0, multiplicity = 1:

       Center              X                  Y                   Z               Mass
    ------------   -----------------  -----------------  -----------------  -----------------
         O           -0.040768630880    -0.298107562441     0.068649652326    15.994914619570
         O           -2.162482830880    -0.301088262441    -0.018866847674    15.994914619570
         N           -1.201270830880     0.421910737559    -0.018423847674    14.003074004430
         C            1.126155169120     0.558906737559    -0.018538847674    12.000000000000
         C            2.358261169120    -0.318281262441    -0.018529847674    12.000000000000
         H            1.082293169120     1.194536737559    -0.908014847674     1.007825032230
         H            1.082355169120     1.194638737559     0.870867152326     1.007825032230
         H            3.258198169120     0.303011737559    -0.018599847674     1.007825032230
         H            2.373473169120    -0.954834262441     0.868339152326     1.007825032230
         H            2.373409169120    -0.954942262441    -0.905322847674     1.007825032230

  Basis Set: AUG-CC-PVTZ
    Blend: AUG-CC-PVTZ
  Basis Set: (AUG-CC-PVTZ AUX)
    Blend: AUG-CC-PVTZ-JKFIT
	 Reference Energy          =    -282.8128511107362897 [Eh]
	 Singles Energy            =      -0.0000000000000000 [Eh]
	 Same-Spin Energy          =      -0.2715157707266633 [Eh]
	 Opposite-Spin Energy      =      -0.8565493430979843 [Eh]
	 Correlation Energy        =      -1.1280651138246476 [Eh]
	 Total Energy              =    -283.9409162245609650 [Eh]

	 ================> DF-SCS-MP2 Energies <==================
	-----------------------------------------------------------
	 SCS Same-Spin Scale       =       0.3333333333333333 [-]
	 SCS Opposite-Spin Scale   =       1.2000000000000000 [-]
	 SCS Same-Spin Energy      =      -0.0905052569088877 [Eh]
	 SCS Opposite-Spin Energy  =      -1.0278592117175811 [Eh]
	 SCS Correlation Energy    =      -1.1183644686264689 [Eh]
	 SCS Total Energy          =    -283.9312155793627426 [Eh]
	-----------------------------------------------------------

  Dipole Moment: [D]
     X:     2.9127      Y:     0.9537      Z:    -0.0741     Total:     3.0658

*** Psi4 exiting successfully. Buy a developer a beer!
