                               Psi4 1.3.2 release

  ==> Input File <==

--------------------------------------------------------------------------
#psi4
#
memory 32 gb

molecule  {
0 1
  O       -0.1087691    -0.3800299    -0.0869750
  O       -2.2943480    -0.3022200    -0.0003020
  N       -1.3331360     0.4207790     0.0001410
  C        0.9942900     0.5577750     0.0000260
  C        2.2263960    -0.3194130     0.0000350
  H        0.9504280     1.1934050    -0.8894500
  H        0.9504900     1.1935070     0.8894320
  H        3.1263330     0.3018800    -0.0000350
  H        2.2416080    -0.9559660     0.8869040
  H        2.2415440    -0.9560740    -0.8867580
units angstrom
no_reorient  #important for SAPT in psi4, default
symmetry c1  #important for SAPT in psi4, default
}

set PROPERTIES_ORIGIN ["COM"]
properties('MP2/aug-cc-pvtz', properties = ['dipole'])
--------------------------------------------------------------------------

    Molecular point group: c1
  Charge       = 0
  Multiplicity = 1
  Basis Set: AUG-CC-PVTZ
    Blend: AUG-CC-PVTZ
  Basis Set: (AUG-CC-PVTZ AUX)
    Blend: AUG-CC-PVTZ-JKFIT

    Orbital Energies [Eh]
    ---------------------

    Doubly Occupied:

       1A    -20.660467     2A    -20.624967     3A    -15.791519
       4A    -11.298490     5A    -11.231246     6A     -1.567931
       7A     -1.383396     8A     -1.044477     9A     -0.932065
      10A     -0.858343    11A     -0.737840    12A     -0.703283
      13A     -0.691196    14A     -0.623642    15A     -0.593381
      16A     -0.552991    17A     -0.536693    18A     -0.535633
      19A     -0.470827    20A     -0.446154

  @DF-RHF Final Energy:  -282.80162117359765

   => Energetics <=

    Nuclear Repulsion Energy =            173.3921059426539841
    One-Electron Energy =                -729.8183766124448084
    Two-Electron Energy =                 273.6246494961931717
    Total Energy =                       -282.8016211735976526
  Basis Set: (AUG-CC-PVTZ AUX)
    Blend: AUG-CC-PVTZ-RI
    Molecular point group: c1

    Geometry (in Angstrom), charge = 0, multiplicity = 1:

       Center              X                  Y                   Z               Mass
    ------------   -----------------  -----------------  -----------------  -----------------
         O            0.009481744072    -0.361675667240    -0.068407089313    15.994914619570
         O           -2.176097155928    -0.283865767240     0.018265910687    15.994914619570
         N           -1.214885155928     0.439133232760     0.018708910687    14.003074004430
         C            1.112540844072     0.576129232760     0.018593910687    12.000000000000
         C            2.344646844072    -0.301058767240     0.018602910687    12.000000000000
         H            1.068678844072     1.211759232760    -0.870882089313     1.007825032230
         H            1.068740844072     1.211861232760     0.907999910687     1.007825032230
         H            3.244583844072     0.320234232760     0.018532910687     1.007825032230
         H            2.359858844072    -0.937611767240     0.905471910687     1.007825032230
         H            2.359794844072    -0.937719767240    -0.868190089313     1.007825032230

  Basis Set: AUG-CC-PVTZ
    Blend: AUG-CC-PVTZ
  Basis Set: (AUG-CC-PVTZ AUX)
    Blend: AUG-CC-PVTZ-JKFIT
	 Reference Energy          =    -282.8016211735976526 [Eh]
	 Singles Energy            =      -0.0000000000000000 [Eh]
	 Same-Spin Energy          =      -0.2736865339666382 [Eh]
	 Opposite-Spin Energy      =      -0.8636714803834993 [Eh]
	 Correlation Energy        =      -1.1373580143501374 [Eh]
	 Total Energy              =    -283.9389791879477798 [Eh]

	 ================> DF-SCS-MP2 Energies <==================
	-----------------------------------------------------------
	 SCS Same-Spin Scale       =       0.3333333333333333 [-]
	 SCS Opposite-Spin Scale   =       1.2000000000000000 [-]
	 SCS Same-Spin Energy      =      -0.0912288446555461 [Eh]
	 SCS Opposite-Spin Energy  =      -1.0364057764601990 [Eh]
	 SCS Correlation Energy    =      -1.1276346211157451 [Eh]
	 SCS Total Energy          =    -283.9292557947134128 [Eh]
	-----------------------------------------------------------

  Dipole Moment: [D]
     X:     2.0148      Y:     1.0851      Z:     0.0924     Total:     2.2903

*** Psi4 exiting successfully. Buy a developer a beer!
