                               Psi4 1.3.2 release

  ==> Input File <==

--------------------------------------------------------------------------
#psi4
#
memory 32 gb

molecule  {
0 1
  O       -0.1850901    -0.2763665     0.1306290
  O       -2.2943480    -0.3022200    -0.0003020
  N       -1.3331360     0.4207790     0.0001410
  C        0.9942900     0.5577750     0.0000260
  C        2.2263960    -0.3194130     0.0000350
  H        0.9504280     1.1934050    -0.8894500
  H        0.9504900     1.1935070     0.8894320
  H        3.1263330     0.3018800    -0.0000350
  H        2.2416080    -0.9559660     0.8869040
  H        2.2415440    -0.9560740    -0.8867580
units angstrom
no_reorient  #important for SAPT in psi4, default
symmetry c1  #important for SAPT in psi4, default
}

set PROPERTIES_ORIGIN ["COM"]
properties('MP2/aug-cc-pvtz', properties = ['dipole'])
--------------------------------------------------------------------------

    Molecular point group: c1
  Charge       = 0
  Multiplicity = 1
  Basis Set: AUG-CC-PVTZ
    Blend: AUG-CC-PVTZ
  Basis Set: (AUG-CC-PVTZ AUX)
    Blend: AUG-CC-PVTZ-JKFIT

    Orbital Energies [Eh]
    ---------------------

    Doubly Occupied:

       1A    -20.636091     2A    -20.632862     3A    -15.776226
       4A    -11.308691     5A    -11.240813     6A     -1.578900
       7A     -1.406222     8A     -1.063335     9A     -0.932323
      10A     -0.864360    11A     -0.744233    12A     -0.710024
      13A     -0.707124    14A     -0.626898    15A     -0.588006
      16A     -0.565839    17A     -0.539737    18A     -0.535139
      19A     -0.470515    20A     -0.446317

  @DF-RHF Final Energy:  -282.81275988503154

   => Energetics <=

    Nuclear Repulsion Energy =            175.2616154347417421
    One-Electron Energy =                -733.4014411263326565
    Two-Electron Energy =                 275.3270658065593466
    Total Energy =                       -282.8127598850315394
  Basis Set: (AUG-CC-PVTZ AUX)
    Blend: AUG-CC-PVTZ-RI
    Molecular point group: c1

    Geometry (in Angstrom), charge = 0, multiplicity = 1:

       Center              X                  Y                   Z               Mass
    ------------   -----------------  -----------------  -----------------  -----------------
         O           -0.050569565442    -0.280110659986     0.102809288296    15.994914619570
         O           -2.159827465442    -0.305964159986    -0.028121711704    15.994914619570
         N           -1.198615465442     0.417034840014    -0.027678711704    14.003074004430
         C            1.128810534558     0.554030840014    -0.027793711704    12.000000000000
         C            2.360916534558    -0.323157159986    -0.027784711704    12.000000000000
         H            1.084948534558     1.189660840014    -0.917269711704     1.007825032230
         H            1.085010534558     1.189762840014     0.861612288296     1.007825032230
         H            3.260853534558     0.298135840014    -0.027854711704     1.007825032230
         H            2.376128534558    -0.959710159986     0.859084288296     1.007825032230
         H            2.376064534558    -0.959818159986    -0.914577711704     1.007825032230

  Basis Set: AUG-CC-PVTZ
    Blend: AUG-CC-PVTZ
  Basis Set: (AUG-CC-PVTZ AUX)
    Blend: AUG-CC-PVTZ-JKFIT
	 Reference Energy          =    -282.8127598850315394 [Eh]
	 Singles Energy            =      -0.0000000000000000 [Eh]
	 Same-Spin Energy          =      -0.2711639735971651 [Eh]
	 Opposite-Spin Energy      =      -0.8553041322905085 [Eh]
	 Correlation Energy        =      -1.1264681058876735 [Eh]
	 Total Energy              =    -283.9392279909192212 [Eh]

	 ================> DF-SCS-MP2 Energies <==================
	-----------------------------------------------------------
	 SCS Same-Spin Scale       =       0.3333333333333333 [-]
	 SCS Opposite-Spin Scale   =       1.2000000000000000 [-]
	 SCS Same-Spin Energy      =      -0.0903879911990550 [Eh]
	 SCS Opposite-Spin Energy  =      -1.0263649587486101 [Eh]
	 SCS Correlation Energy    =      -1.1167529499476652 [Eh]
	 SCS Total Energy          =    -283.9295128349792208 [Eh]
	-----------------------------------------------------------

  Dipole Moment: [D]
     X:     3.0930      Y:     0.9233      Z:    -0.1050     Total:     3.2296

*** Psi4 exiting successfully. Buy a developer a beer!
