                               Psi4 1.3.2 release

  ==> Input File <==

--------------------------------------------------------------------------
#psi4
#
memory 32 gb

molecule  {
0 1
  O       -0.1434730    -0.3418260     0.0001200
  O       -2.2943480    -0.3022200    -0.0003020
  N       -1.3331360     0.4207790     0.0001410
  C        0.8374052     0.4337301     0.0000390
  C        2.2263960    -0.3194130     0.0000350
  H        0.9504280     1.1934050    -0.8894500
  H        0.9504900     1.1935070     0.8894320
  H        3.1263330     0.3018800    -0.0000350
  H        2.2416080    -0.9559660     0.8869040
  H        2.2415440    -0.9560740    -0.8867580
units angstrom
no_reorient  #important for SAPT in psi4, default
symmetry c1  #important for SAPT in psi4, default
}

set PROPERTIES_ORIGIN ["COM"]
properties('MP2/aug-cc-pvtz', properties = ['dipole'])
--------------------------------------------------------------------------

    Molecular point group: c1
  Charge       = 0
  Multiplicity = 1
  Basis Set: AUG-CC-PVTZ
    Blend: AUG-CC-PVTZ
  Basis Set: (AUG-CC-PVTZ AUX)
    Blend: AUG-CC-PVTZ-JKFIT

    Orbital Energies [Eh]
    ---------------------

    Doubly Occupied:

       1A    -20.671177     2A    -20.645875     3A    -15.804274
       4A    -11.304579     5A    -11.231990     6A     -1.602204
       7A     -1.469154     8A     -1.048098     9A     -0.953312
      10A     -0.859169    11A     -0.770419    12A     -0.725916
      13A     -0.721197    14A     -0.626216    15A     -0.616201
      16A     -0.571714    17A     -0.547887    18A     -0.505701
      19A     -0.451307    20A     -0.432998

  @DF-RHF Final Energy:  -282.76989272851733

   => Energetics <=

    Nuclear Repulsion Energy =            177.1069674319647334
    One-Electron Energy =                -736.6349438648250043
    Two-Electron Energy =                 276.7580837043428801
    Total Energy =                       -282.7698927285173340
  Basis Set: (AUG-CC-PVTZ AUX)
    Blend: AUG-CC-PVTZ-RI
    Molecular point group: c1

    Geometry (in Angstrom), charge = 0, multiplicity = 1:

       Center              X                  Y                   Z               Mass
    ------------   -----------------  -----------------  -----------------  -----------------
         O            0.007266683429    -0.311777152287     0.000119399101    15.994914619570
         O           -2.143608316571    -0.272171152287    -0.000302600899    15.994914619570
         N           -1.182396316571     0.450827847713     0.000140399101    14.003074004430
         C            0.988144883429     0.463778947713     0.000038399101    12.000000000000
         C            2.377135683429    -0.289364152287     0.000034399101    12.000000000000
         H            1.101167683429     1.223453847713    -0.889450600899     1.007825032230
         H            1.101229683429     1.223555847713     0.889431399101     1.007825032230
         H            3.277072683429     0.331928847713    -0.000035600899     1.007825032230
         H            2.392347683429    -0.925917152287     0.886903399101     1.007825032230
         H            2.392283683429    -0.926025152287    -0.886758600899     1.007825032230

  Basis Set: AUG-CC-PVTZ
    Blend: AUG-CC-PVTZ
  Basis Set: (AUG-CC-PVTZ AUX)
    Blend: AUG-CC-PVTZ-JKFIT
	 Reference Energy          =    -282.7698927285173340 [Eh]
	 Singles Energy            =      -0.0000000000000000 [Eh]
	 Same-Spin Energy          =      -0.2729105702410645 [Eh]
	 Opposite-Spin Energy      =      -0.8586770974826765 [Eh]
	 Correlation Energy        =      -1.1315876677237409 [Eh]
	 Total Energy              =    -283.9014803962410838 [Eh]

	 ================> DF-SCS-MP2 Energies <==================
	-----------------------------------------------------------
	 SCS Same-Spin Scale       =       0.3333333333333333 [-]
	 SCS Opposite-Spin Scale   =       1.2000000000000000 [-]
	 SCS Same-Spin Energy      =      -0.0909701900803548 [Eh]
	 SCS Opposite-Spin Energy  =      -1.0304125169792118 [Eh]
	 SCS Correlation Energy    =      -1.1213827070595666 [Eh]
	 SCS Total Energy          =    -283.8912754355769152 [Eh]
	-----------------------------------------------------------

  Dipole Moment: [D]
     X:     1.5362      Y:     0.5817      Z:     0.0001     Total:     1.6427

*** Psi4 exiting successfully. Buy a developer a beer!
