                               Psi4 1.3.2 release

  ==> Input File <==

--------------------------------------------------------------------------
#psi4
#
memory 32 gb

molecule  {
0 1
  O       -0.1434730    -0.3418260     0.0001200
  O       -2.2943480    -0.3022200    -0.0003020
  N       -1.3331360     0.4207790     0.0001410
  C        1.1511748     0.6818199     0.0000130
  C        2.2263960    -0.3194130     0.0000350
  H        0.9504280     1.1934050    -0.8894500
  H        0.9504900     1.1935070     0.8894320
  H        3.1263330     0.3018800    -0.0000350
  H        2.2416080    -0.9559660     0.8869040
  H        2.2415440    -0.9560740    -0.8867580
units angstrom
no_reorient  #important for SAPT in psi4, default
symmetry c1  #important for SAPT in psi4, default
}

set PROPERTIES_ORIGIN ["COM"]
properties('MP2/aug-cc-pvtz', properties = ['dipole'])
--------------------------------------------------------------------------

    Molecular point group: c1
  Charge       = 0
  Multiplicity = 1
  Basis Set: AUG-CC-PVTZ
    Blend: AUG-CC-PVTZ
  Basis Set: (AUG-CC-PVTZ AUX)
    Blend: AUG-CC-PVTZ-JKFIT

    Orbital Energies [Eh]
    ---------------------

    Doubly Occupied:

       1A    -20.627802     2A    -20.606387     3A    -15.766052
       4A    -11.315592     5A    -11.243626     6A     -1.547905
       7A     -1.342561     8A     -1.070847     9A     -0.906168
      10A     -0.874388    11A     -0.711471    12A     -0.697816
      13A     -0.686071    14A     -0.628010    15A     -0.594971
      16A     -0.576864    17A     -0.545317    18A     -0.499188
      19A     -0.470780    20A     -0.429800

  @DF-RHF Final Energy:  -282.78028266445472

   => Energetics <=

    Nuclear Repulsion Energy =            171.8180540408696118
    One-Electron Energy =                -726.9134440072900816
    Two-Electron Energy =                 272.3151073019657815
    Total Energy =                       -282.7802826644547167
  Basis Set: (AUG-CC-PVTZ AUX)
    Blend: AUG-CC-PVTZ-RI
    Molecular point group: c1

    Geometry (in Angstrom), charge = 0, multiplicity = 1:

       Center              X                  Y                   Z               Mass
    ------------   -----------------  -----------------  -----------------  -----------------
         O           -0.042915022704    -0.351454576226     0.000123557325    15.994914619570
         O           -2.193790022704    -0.311848576226    -0.000298442675    15.994914619570
         N           -1.232578022704     0.411150423774     0.000144557325    14.003074004430
         C            1.251732777296     0.672191323774     0.000016557325    12.000000000000
         C            2.326953977296    -0.329041576226     0.000038557325    12.000000000000
         H            1.050985977296     1.183776423774    -0.889446442675     1.007825032230
         H            1.051047977296     1.183878423774     0.889435557325     1.007825032230
         H            3.226890977296     0.292251423774    -0.000031442675     1.007825032230
         H            2.342165977296    -0.965594576226     0.886907557325     1.007825032230
         H            2.342101977296    -0.965702576226    -0.886754442675     1.007825032230

  Basis Set: AUG-CC-PVTZ
    Blend: AUG-CC-PVTZ
  Basis Set: (AUG-CC-PVTZ AUX)
    Blend: AUG-CC-PVTZ-JKFIT
	 Reference Energy          =    -282.7802826644547167 [Eh]
	 Singles Energy            =      -0.0000000000000000 [Eh]
	 Same-Spin Energy          =      -0.2742451996047010 [Eh]
	 Opposite-Spin Energy      =      -0.8642197527680135 [Eh]
	 Correlation Energy        =      -1.1384649523727146 [Eh]
	 Total Energy              =    -283.9187476168274316 [Eh]

	 ================> DF-SCS-MP2 Energies <==================
	-----------------------------------------------------------
	 SCS Same-Spin Scale       =       0.3333333333333333 [-]
	 SCS Opposite-Spin Scale   =       1.2000000000000000 [-]
	 SCS Same-Spin Energy      =      -0.0914150665349003 [Eh]
	 SCS Opposite-Spin Energy  =      -1.0370637033216161 [Eh]
	 SCS Correlation Energy    =      -1.1284787698565164 [Eh]
	 SCS Total Energy          =    -283.9087614343112591 [Eh]
	-----------------------------------------------------------

  Dipole Moment: [D]
     X:     3.3236      Y:     1.2869      Z:     0.0000     Total:     3.5640

*** Psi4 exiting successfully. Buy a developer a beer!
