                               Psi4 1.3.2 release

  ==> Input File <==

--------------------------------------------------------------------------
#psi4
#
memory 32 gb

molecule  {
0 1
  O       -0.1434730    -0.3418260     0.0001200
  O       -2.2943480    -0.3022200    -0.0003020
  N       -1.1647602     0.3128457     0.0001380
  C        0.9942900     0.5577750     0.0000260
  C        2.2263960    -0.3194130     0.0000350
  H        0.9504280     1.1934050    -0.8894500
  H        0.9504900     1.1935070     0.8894320
  H        3.1263330     0.3018800    -0.0000350
  H        2.2416080    -0.9559660     0.8869040
  H        2.2415440    -0.9560740    -0.8867580
units angstrom
no_reorient  #important for SAPT in psi4, default
symmetry c1  #important for SAPT in psi4, default
}

set PROPERTIES_ORIGIN ["COM"]
properties('MP2/aug-cc-pvtz', properties = ['dipole'])
--------------------------------------------------------------------------

    Molecular point group: c1
  Charge       = 0
  Multiplicity = 1
  Basis Set: AUG-CC-PVTZ
    Blend: AUG-CC-PVTZ
  Basis Set: (AUG-CC-PVTZ AUX)
    Blend: AUG-CC-PVTZ-JKFIT

    Orbital Energies [Eh]
    ---------------------

    Doubly Occupied:

       1A    -20.681665     2A    -20.593809     3A    -15.764261
       4A    -11.326961     5A    -11.250546     6A     -1.620767
       7A     -1.382970     8A     -1.093981     9A     -0.945015
      10A     -0.886293    11A     -0.745676    12A     -0.742233
      13A     -0.721301    14A     -0.632009    15A     -0.587133
      16A     -0.559253    17A     -0.540805    18A     -0.538755
      19A     -0.463975    20A     -0.435721

  @DF-RHF Final Energy:  -282.78612117357682

   => Energetics <=

    Nuclear Repulsion Energy =            177.3715214673017044
    One-Electron Energy =                -737.2890292017290221
    Two-Electron Energy =                 277.1313865608505012
    Total Energy =                       -282.7861211735768165
  Basis Set: (AUG-CC-PVTZ AUX)
    Blend: AUG-CC-PVTZ-RI
    Molecular point group: c1

    Geometry (in Angstrom), charge = 0, multiplicity = 1:

       Center              X                  Y                   Z               Mass
    ------------   -----------------  -----------------  -----------------  -----------------
         O           -0.049247800827    -0.311472493224     0.000122038097    15.994914619570
         O           -2.200122800827    -0.271866493224    -0.000299961903    15.994914619570
         N           -1.070535000827     0.343199206776     0.000140038097    14.003074004430
         C            1.088515199173     0.588128506776     0.000028038097    12.000000000000
         C            2.320621199173    -0.289059493224     0.000037038097    12.000000000000
         H            1.044653199173     1.223758506776    -0.889447961903     1.007825032230
         H            1.044715199173     1.223860506776     0.889434038097     1.007825032230
         H            3.220558199173     0.332233506776    -0.000032961903     1.007825032230
         H            2.335833199173    -0.925612493224     0.886906038097     1.007825032230
         H            2.335769199173    -0.925720493224    -0.886755961903     1.007825032230

  Basis Set: AUG-CC-PVTZ
    Blend: AUG-CC-PVTZ
  Basis Set: (AUG-CC-PVTZ AUX)
    Blend: AUG-CC-PVTZ-JKFIT
	 Reference Energy          =    -282.7861211735768165 [Eh]
	 Singles Energy            =      -0.0000000000000000 [Eh]
	 Same-Spin Energy          =      -0.2725494440271862 [Eh]
	 Opposite-Spin Energy      =      -0.8559949365427598 [Eh]
	 Correlation Energy        =      -1.1285443805699460 [Eh]
	 Total Energy              =    -283.9146655541467794 [Eh]

	 ================> DF-SCS-MP2 Energies <==================
	-----------------------------------------------------------
	 SCS Same-Spin Scale       =       0.3333333333333333 [-]
	 SCS Opposite-Spin Scale   =       1.2000000000000000 [-]
	 SCS Same-Spin Energy      =      -0.0908498146757287 [Eh]
	 SCS Opposite-Spin Energy  =      -1.0271939238513117 [Eh]
	 SCS Correlation Energy    =      -1.1180437385270405 [Eh]
	 SCS Total Energy          =    -283.9041649121038517 [Eh]
	-----------------------------------------------------------

  Dipole Moment: [D]
     X:     4.4039      Y:     0.8440      Z:     0.0002     Total:     4.4841

*** Psi4 exiting successfully. Buy a developer a beer!
