                               Psi4 1.4a3.dev225

  ==> Input File <==

--------------------------------------------------------------------------
#psi4
#
memory 32 gb

molecule  {
0 1
  O       -0.1930120     0.3539830    -0.5033360
  O       -2.2078060    -0.3013300    -0.0972570
  N       -1.1670400    -0.0472870     0.4451240
  C        1.0155027     0.5914543     0.1569212
  C        2.0021990    -0.5671560    -0.0255890
  H        1.4499140     1.5239110    -0.2520100
  H        0.8435940     0.7677230     1.2401610
  H        2.9727220    -0.3569890     0.4340390
  H        1.5904030    -1.4715490     0.4285410
  H        2.1535430    -0.7500910    -1.0915870
units angstrom
no_reorient  #important for SAPT in psi4, default
symmetry c1  #important for SAPT in psi4, default
}

set PROPERTIES_ORIGIN ["COM"]
properties('MP2/aug-cc-pvtz', properties = ['dipole'])
--------------------------------------------------------------------------

    Molecular point group: c1
  Charge       = 0
  Multiplicity = 1
  Basis Set: AUG-CC-PVTZ
    Blend: AUG-CC-PVTZ
  Basis Set: (AUG-CC-PVTZ AUX)
    Blend: AUG-CC-PVTZ-JKFIT

    Orbital Energies [Eh]
    ---------------------

    Doubly Occupied:

       1A    -20.654246     2A    -20.633917     3A    -15.791623
       4A    -11.300263     5A    -11.231863     6A     -1.578239
       7A     -1.410792     8A     -1.043164     9A     -0.946985
      10A     -0.856797    11A     -0.746093    12A     -0.721577
      13A     -0.683549    14A     -0.621866    15A     -0.597943
      16A     -0.578471    17A     -0.544641    18A     -0.511893
      19A     -0.465022    20A     -0.453306

  @DF-RHF Final Energy:  -282.80775154838204

   => Energetics <=

    Nuclear Repulsion Energy =            176.0679938208367332
    One-Electron Energy =                -735.0069878869646800
    Two-Electron Energy =                 276.1312425177459318
    Total Energy =                       -282.8077515483820434
  Basis Set: (AUG-CC-PVTZ AUX)
    Blend: AUG-CC-PVTZ-RI
    Molecular point group: c1

    Geometry (in Angstrom), charge = 0, multiplicity = 1:

       Center              X                  Y                   Z               Mass
    ------------   -----------------  -----------------  -----------------  -----------------
         O           -0.067066783050     0.351552628094    -0.489578425553    15.994914619570
         O           -2.081860783050    -0.303760371906    -0.083499425553    15.994914619570
         N           -1.041094783050    -0.049717371906     0.458881574447    14.003074004430
         C            1.141447916950     0.589023928094     0.170678774447    12.000000000000
         C            2.128144216950    -0.569586371906    -0.011831425553    12.000000000000
         H            1.575859216950     1.521480628094    -0.238252425553     1.007825032230
         H            0.969539216950     0.765292628094     1.253918574447     1.007825032230
         H            3.098667216950    -0.359419371906     0.447796574447     1.007825032230
         H            1.716348216950    -1.473979371906     0.442298574447     1.007825032230
         H            2.279488216950    -0.752521371906    -1.077829425553     1.007825032230

  Basis Set: AUG-CC-PVTZ
    Blend: AUG-CC-PVTZ
  Basis Set: (AUG-CC-PVTZ AUX)
    Blend: AUG-CC-PVTZ-JKFIT
	 Reference Energy          =    -282.8077515483820434 [Eh]
	 Singles Energy            =      -0.0000000000000000 [Eh]
	 Same-Spin Energy          =      -0.2731437274107709 [Eh]
	 Opposite-Spin Energy      =      -0.8599409563713487 [Eh]
	 Correlation Energy        =      -1.1330846837821196 [Eh]
	 Total Energy              =    -283.9408362321641448 [Eh]

	 ================> DF-SCS-MP2 Energies <==================
	-----------------------------------------------------------
	 SCS Same-Spin Scale       =       0.3333333333333333 [-]
	 SCS Opposite-Spin Scale   =       1.2000000000000000 [-]
	 SCS Same-Spin Energy      =      -0.0910479091369236 [Eh]
	 SCS Opposite-Spin Energy  =      -1.0319291476456185 [Eh]
	 SCS Correlation Energy    =      -1.1229770567825421 [Eh]
	 SCS Total Energy          =    -283.9307286051645747 [Eh]
	-----------------------------------------------------------

  Dipole Moment: [D]
     X:     2.2770      Y:     0.3764      Z:     0.6965     Total:     2.4107

*** Psi4 exiting successfully. Buy a developer a beer!
