                               Psi4 1.3.2 release

  ==> Input File <==

--------------------------------------------------------------------------
#psi4
#
memory 32 gb

molecule  {
0 1
  O       -0.1708122    -0.3828801     0.0001004
  O       -2.2943480    -0.3022200    -0.0003020
  N       -1.3331360     0.4207790     0.0001410
  C        0.9942900     0.5577750     0.0000260
  C        2.2263960    -0.3194130     0.0000350
  H        0.9504280     1.1934050    -0.8894500
  H        0.9504900     1.1935070     0.8894320
  H        3.1263330     0.3018800    -0.0000350
  H        2.2416080    -0.9559660     0.8869040
  H        2.2415440    -0.9560740    -0.8867580
units angstrom
no_reorient  #important for SAPT in psi4, default
symmetry c1  #important for SAPT in psi4, default
}

set PROPERTIES_ORIGIN ["COM"]
properties('MP2/aug-cc-pvtz', properties = ['dipole'])
--------------------------------------------------------------------------

    Molecular point group: c1
  Charge       = 0
  Multiplicity = 1
  Basis Set: AUG-CC-PVTZ
    Blend: AUG-CC-PVTZ
  Basis Set: (AUG-CC-PVTZ AUX)
    Blend: AUG-CC-PVTZ-JKFIT

    Orbital Energies [Eh]
    ---------------------

    Doubly Occupied:

       1A    -20.644819     2A    -20.629257     3A    -15.782654
       4A    -11.306959     5A    -11.236165     6A     -1.569188
       7A     -1.380603     8A     -1.050628     9A     -0.925748
      10A     -0.862694    11A     -0.734756    12A     -0.702697
      13A     -0.692927    14A     -0.624630    15A     -0.589748
      16A     -0.551782    17A     -0.536010    18A     -0.535905
      19A     -0.474692    20A     -0.449395

  @DF-RHF Final Energy:  -282.80598099932178

   => Energetics <=

    Nuclear Repulsion Energy =            173.6279457546053777
    One-Electron Energy =                -730.3053423938806645
    Two-Electron Energy =                 273.8714156399534545
    Total Energy =                       -282.8059809993217755
  Basis Set: (AUG-CC-PVTZ AUX)
    Blend: AUG-CC-PVTZ-RI
    Molecular point group: c1

    Geometry (in Angstrom), charge = 0, multiplicity = 1:

       Center              X                  Y                   Z               Mass
    ------------   -----------------  -----------------  -----------------  -----------------
         O           -0.039335349537    -0.363918277300     0.000106056433    15.994914619570
         O           -2.162871149537    -0.283258177300    -0.000296343567    15.994914619570
         N           -1.201659149537     0.439740822700     0.000146656433    14.003074004430
         C            1.125766850463     0.576736822700     0.000031656433    12.000000000000
         C            2.357872850463    -0.300451177300     0.000040656433    12.000000000000
         H            1.081904850463     1.212366822700    -0.889444343567     1.007825032230
         H            1.081966850463     1.212468822700     0.889437656433     1.007825032230
         H            3.257809850463     0.320841822700    -0.000029343567     1.007825032230
         H            2.373084850463    -0.937004177300     0.886909656433     1.007825032230
         H            2.373020850463    -0.937112177300    -0.886752343567     1.007825032230

  Basis Set: AUG-CC-PVTZ
    Blend: AUG-CC-PVTZ
  Basis Set: (AUG-CC-PVTZ AUX)
    Blend: AUG-CC-PVTZ-JKFIT
	 Reference Energy          =    -282.8059809993217755 [Eh]
	 Singles Energy            =      -0.0000000000000000 [Eh]
	 Same-Spin Energy          =      -0.2726411910828961 [Eh]
	 Opposite-Spin Energy      =      -0.8609995354272453 [Eh]
	 Correlation Energy        =      -1.1336407265101414 [Eh]
	 Total Energy              =    -283.9396217258318984 [Eh]

	 ================> DF-SCS-MP2 Energies <==================
	-----------------------------------------------------------
	 SCS Same-Spin Scale       =       0.3333333333333333 [-]
	 SCS Opposite-Spin Scale   =       1.2000000000000000 [-]
	 SCS Same-Spin Energy      =      -0.0908803970276320 [Eh]
	 SCS Opposite-Spin Energy  =      -1.0331994425126942 [Eh]
	 SCS Correlation Energy    =      -1.1240798395403262 [Eh]
	 SCS Total Energy          =    -283.9300608388621185 [Eh]
	-----------------------------------------------------------

  Dipole Moment: [D]
     X:     2.5967      Y:     1.1076      Z:     0.0001     Total:     2.8230

*** Psi4 exiting successfully. Buy a developer a beer!
