                               Psi4 1.3.2 release

  ==> Input File <==

--------------------------------------------------------------------------
#psi4
#
memory 32 gb

molecule  {
0 1
  O       -0.1353105    -0.3517955    -0.0216703
  O       -2.2943480    -0.3022200    -0.0003020
  N       -1.3331360     0.4207790     0.0001410
  C        0.9942900     0.5577750     0.0000260
  C        2.2263960    -0.3194130     0.0000350
  H        0.9504280     1.1934050    -0.8894500
  H        0.9504900     1.1935070     0.8894320
  H        3.1263330     0.3018800    -0.0000350
  H        2.2416080    -0.9559660     0.8869040
  H        2.2415440    -0.9560740    -0.8867580
units angstrom
no_reorient  #important for SAPT in psi4, default
symmetry c1  #important for SAPT in psi4, default
}

set PROPERTIES_ORIGIN ["COM"]
properties('MP2/aug-cc-pvtz', properties = ['dipole'])
--------------------------------------------------------------------------

    Molecular point group: c1
  Charge       = 0
  Multiplicity = 1
  Basis Set: AUG-CC-PVTZ
    Blend: AUG-CC-PVTZ
  Basis Set: (AUG-CC-PVTZ AUX)
    Blend: AUG-CC-PVTZ-JKFIT

    Orbital Energies [Eh]
    ---------------------

    Doubly Occupied:

       1A    -20.651494     2A    -20.628699     3A    -15.786538
       4A    -11.301666     5A    -11.234261     6A     -1.569768
       7A     -1.391605     8A     -1.050477     9A     -0.930554
      10A     -0.861082    11A     -0.740125    12A     -0.704286
      13A     -0.696627    14A     -0.623919    15A     -0.591431
      16A     -0.556695    17A     -0.537814    18A     -0.536092
      19A     -0.471753    20A     -0.447968

  @DF-RHF Final Energy:  -282.80806941197289

   => Energetics <=

    Nuclear Repulsion Energy =            174.0264528771241146
    One-Electron Energy =                -731.0433358260786463
    Two-Electron Energy =                 274.2088135369816086
    Total Energy =                       -282.8080694119728946
  Basis Set: (AUG-CC-PVTZ AUX)
    Blend: AUG-CC-PVTZ-RI
    Molecular point group: c1

    Geometry (in Angstrom), charge = 0, multiplicity = 1:

       Center              X                  Y                   Z               Mass
    ------------   -----------------  -----------------  -----------------  -----------------
         O           -0.011401706437    -0.339460121148    -0.017023685631    15.994914619570
         O           -2.170439206437    -0.289884621148     0.004344614369    15.994914619570
         N           -1.209227206437     0.433114378852     0.004787614369    14.003074004430
         C            1.118198793563     0.570110378852     0.004672614369    12.000000000000
         C            2.350304793563    -0.307077621148     0.004681614369    12.000000000000
         H            1.074336793563     1.205740378852    -0.884803385631     1.007825032230
         H            1.074398793563     1.205842378852     0.894078614369     1.007825032230
         H            3.250241793563     0.314215378852     0.004611614369     1.007825032230
         H            2.365516793563    -0.943630621148     0.891550614369     1.007825032230
         H            2.365452793563    -0.943738621148    -0.882111385631     1.007825032230

  Basis Set: AUG-CC-PVTZ
    Blend: AUG-CC-PVTZ
  Basis Set: (AUG-CC-PVTZ AUX)
    Blend: AUG-CC-PVTZ-JKFIT
	 Reference Energy          =    -282.8080694119728946 [Eh]
	 Singles Energy            =      -0.0000000000000000 [Eh]
	 Same-Spin Energy          =      -0.2727217359794867 [Eh]
	 Opposite-Spin Energy      =      -0.8605897119977043 [Eh]
	 Correlation Energy        =      -1.1333114479771909 [Eh]
	 Total Energy              =    -283.9413808599500726 [Eh]

	 ================> DF-SCS-MP2 Energies <==================
	-----------------------------------------------------------
	 SCS Same-Spin Scale       =       0.3333333333333333 [-]
	 SCS Opposite-Spin Scale   =       1.2000000000000000 [-]
	 SCS Same-Spin Energy      =      -0.0909072453264956 [Eh]
	 SCS Opposite-Spin Energy  =      -1.0327076543972451 [Eh]
	 SCS Correlation Energy    =      -1.1236148997237407 [Eh]
	 SCS Total Energy          =    -283.9316843116966425 [Eh]
	-----------------------------------------------------------

  Dipole Moment: [D]
     X:     2.3808      Y:     1.0343      Z:     0.0214     Total:     2.5958

*** Psi4 exiting successfully. Buy a developer a beer!
