                               Psi4 1.3.2 release

  ==> Input File <==

--------------------------------------------------------------------------
#psi4
#
memory 32 gb

molecule  {
0 1
  O       -0.1303449    -0.3209474     0.0001298
  O       -2.2943480    -0.3022200    -0.0003020
  N       -1.3331360     0.4207790     0.0001410
  C        0.9942900     0.5577750     0.0000260
  C        2.2263960    -0.3194130     0.0000350
  H        0.9504280     1.1934050    -0.8894500
  H        0.9504900     1.1935070     0.8894320
  H        3.1263330     0.3018800    -0.0000350
  H        2.2416080    -0.9559660     0.8869040
  H        2.2415440    -0.9560740    -0.8867580
units angstrom
no_reorient  #important for SAPT in psi4, default
symmetry c1  #important for SAPT in psi4, default
}

set PROPERTIES_ORIGIN ["COM"]
properties('MP2/aug-cc-pvtz', properties = ['dipole'])
--------------------------------------------------------------------------

    Molecular point group: c1
  Charge       = 0
  Multiplicity = 1
  Basis Set: AUG-CC-PVTZ
    Blend: AUG-CC-PVTZ
  Basis Set: (AUG-CC-PVTZ AUX)
    Blend: AUG-CC-PVTZ-JKFIT

    Orbital Energies [Eh]
    ---------------------

    Doubly Occupied:

       1A    -20.650498     2A    -20.629979     3A    -15.786151
       4A    -11.300650     5A    -11.234812     6A     -1.571588
       7A     -1.401177     8A     -1.053663     9A     -0.932848
      10A     -0.861356    11A     -0.743899    12A     -0.705759
      13A     -0.701451    14A     -0.624079    15A     -0.591914
      16A     -0.561033    17A     -0.539503    18A     -0.535427
      19A     -0.470027    20A     -0.447316

  @DF-RHF Final Energy:  -282.81009585600464

   => Energetics <=

    Nuclear Repulsion Energy =            174.5373162228703734
    One-Electron Energy =                -732.0085609718921660
    Two-Electron Energy =                 274.6611488930171845
    Total Energy =                       -282.8100958560046365
  Basis Set: (AUG-CC-PVTZ AUX)
    Blend: AUG-CC-PVTZ-RI
    Molecular point group: c1

    Geometry (in Angstrom), charge = 0, multiplicity = 1:

       Center              X                  Y                   Z               Mass
    ------------   -----------------  -----------------  -----------------  -----------------
         O           -0.007494645700    -0.315188049228     0.000129189103    15.994914619570
         O           -2.171497745700    -0.296460649228    -0.000302610897    15.994914619570
         N           -1.210285745700     0.426538350772     0.000140389103    14.003074004430
         C            1.117140254300     0.563534350772     0.000025389103    12.000000000000
         C            2.349246254300    -0.313653649228     0.000034389103    12.000000000000
         H            1.073278254300     1.199164350772    -0.889450610897     1.007825032230
         H            1.073340254300     1.199266350772     0.889431389103     1.007825032230
         H            3.249183254300     0.307639350772    -0.000035610897     1.007825032230
         H            2.364458254300    -0.950206649228     0.886903389103     1.007825032230
         H            2.364394254300    -0.950314649228    -0.886758610897     1.007825032230

  Basis Set: AUG-CC-PVTZ
    Blend: AUG-CC-PVTZ
  Basis Set: (AUG-CC-PVTZ AUX)
    Blend: AUG-CC-PVTZ-JKFIT
	 Reference Energy          =    -282.8100958560046365 [Eh]
	 Singles Energy            =      -0.0000000000000000 [Eh]
	 Same-Spin Energy          =      -0.2723940067998973 [Eh]
	 Opposite-Spin Energy      =      -0.8591096189252929 [Eh]
	 Correlation Energy        =      -1.1315036257251903 [Eh]
	 Total Energy              =    -283.9415994817298383 [Eh]

	 ================> DF-SCS-MP2 Energies <==================
	-----------------------------------------------------------
	 SCS Same-Spin Scale       =       0.3333333333333333 [-]
	 SCS Opposite-Spin Scale   =       1.2000000000000000 [-]
	 SCS Same-Spin Energy      =      -0.0907980022666324 [Eh]
	 SCS Opposite-Spin Energy  =      -1.0309315427103514 [Eh]
	 SCS Correlation Energy    =      -1.1217295449769837 [Eh]
	 SCS Total Energy          =    -283.9318254009816087 [Eh]
	-----------------------------------------------------------

  Dipole Moment: [D]
     X:     2.4431      Y:     0.9704      Z:     0.0000     Total:     2.6288

*** Psi4 exiting successfully. Buy a developer a beer!
