                               Psi4 1.3.2 release

  ==> Input File <==

--------------------------------------------------------------------------
#psi4
#
memory 32 gb

molecule  {
0 1
  O       -0.1113843    -0.3809853     0.0001212
  O       -2.2943480    -0.3022200    -0.0003020
  N       -1.3331360     0.4207790     0.0001410
  C        0.9942900     0.5577750     0.0000260
  C        2.2263960    -0.3194130     0.0000350
  H        0.9504280     1.1934050    -0.8894500
  H        0.9504900     1.1935070     0.8894320
  H        3.1263330     0.3018800    -0.0000350
  H        2.2416080    -0.9559660     0.8869040
  H        2.2415440    -0.9560740    -0.8867580
units angstrom
no_reorient  #important for SAPT in psi4, default
symmetry c1  #important for SAPT in psi4, default
}

set PROPERTIES_ORIGIN ["COM"]
properties('MP2/aug-cc-pvtz', properties = ['dipole'])
--------------------------------------------------------------------------

    Molecular point group: c1
  Charge       = 0
  Multiplicity = 1
  Basis Set: AUG-CC-PVTZ
    Blend: AUG-CC-PVTZ
  Basis Set: (AUG-CC-PVTZ AUX)
    Blend: AUG-CC-PVTZ-JKFIT

    Orbital Energies [Eh]
    ---------------------

    Doubly Occupied:

       1A    -20.659491     2A    -20.625402     3A    -15.791004
       4A    -11.298826     5A    -11.231497     6A     -1.568095
       7A     -1.384184     8A     -1.045076     9A     -0.931789
      10A     -0.858661    11A     -0.738025    12A     -0.703318
      13A     -0.691921    14A     -0.623541    15A     -0.593158
      16A     -0.552967    17A     -0.536484    18A     -0.536155
      19A     -0.471431    20A     -0.446468

  @DF-RHF Final Energy:  -282.80294634244297

   => Energetics <=

    Nuclear Repulsion Energy =            173.4721618248016739
    One-Electron Energy =                -729.9752212762081172
    Two-Electron Energy =                 273.7001131089634782
    Total Energy =                       -282.8029463424429650
  Basis Set: (AUG-CC-PVTZ AUX)
    Blend: AUG-CC-PVTZ-RI
    Molecular point group: c1

    Geometry (in Angstrom), charge = 0, multiplicity = 1:

       Center              X                  Y                   Z               Mass
    ------------   -----------------  -----------------  -----------------  -----------------
         O            0.007424038006    -0.362427400330     0.000122422403    15.994914619570
         O           -2.175539661994    -0.283662100330    -0.000300777597    15.994914619570
         N           -1.214327661994     0.439336899670     0.000142222403    14.003074004430
         C            1.113098338006     0.576332899670     0.000027222403    12.000000000000
         C            2.345204338006    -0.300855100330     0.000036222403    12.000000000000
         H            1.069236338006     1.211962899670    -0.889448777597     1.007825032230
         H            1.069298338006     1.212064899670     0.889433222403     1.007825032230
         H            3.245141338006     0.320437899670    -0.000033777597     1.007825032230
         H            2.360416338006    -0.937408100330     0.886905222403     1.007825032230
         H            2.360352338006    -0.937516100330    -0.886756777597     1.007825032230

  Basis Set: AUG-CC-PVTZ
    Blend: AUG-CC-PVTZ
  Basis Set: (AUG-CC-PVTZ AUX)
    Blend: AUG-CC-PVTZ-JKFIT
	 Reference Energy          =    -282.8029463424429650 [Eh]
	 Singles Energy            =      -0.0000000000000000 [Eh]
	 Same-Spin Energy          =      -0.2735645510259428 [Eh]
	 Opposite-Spin Energy      =      -0.8633099193690544 [Eh]
	 Correlation Energy        =      -1.1368744703949973 [Eh]
	 Total Energy              =    -283.9398208128379792 [Eh]

	 ================> DF-SCS-MP2 Energies <==================
	-----------------------------------------------------------
	 SCS Same-Spin Scale       =       0.3333333333333333 [-]
	 SCS Opposite-Spin Scale   =       1.2000000000000000 [-]
	 SCS Same-Spin Energy      =      -0.0911881836753143 [Eh]
	 SCS Opposite-Spin Energy  =      -1.0359719032428654 [Eh]
	 SCS Correlation Energy    =      -1.1271600869181797 [Eh]
	 SCS Total Energy          =    -283.9301064293611603 [Eh]
	-----------------------------------------------------------

  Dipole Moment: [D]
     X:     2.0527      Y:     1.0847      Z:     0.0000     Total:     2.3217

*** Psi4 exiting successfully. Buy a developer a beer!
