                               Psi4 1.3.2 release

  ==> Input File <==

--------------------------------------------------------------------------
#psi4
#
memory 32 gb

molecule  {
0 1
  O       -0.1434730    -0.3418260     0.0001200
  O       -2.2943480    -0.3022200    -0.0003020
  N       -1.4063328     0.2922477     0.0001503
  C        0.9942900     0.5577750     0.0000260
  C        2.2263960    -0.3194130     0.0000350
  H        0.9504280     1.1934050    -0.8894500
  H        0.9504900     1.1935070     0.8894320
  H        3.1263330     0.3018800    -0.0000350
  H        2.2416080    -0.9559660     0.8869040
  H        2.2415440    -0.9560740    -0.8867580
units angstrom
no_reorient  #important for SAPT in psi4, default
symmetry c1  #important for SAPT in psi4, default
}

set PROPERTIES_ORIGIN ["COM"]
properties('MP2/aug-cc-pvtz', properties = ['dipole'])
--------------------------------------------------------------------------

    Molecular point group: c1
  Charge       = 0
  Multiplicity = 1
  Basis Set: AUG-CC-PVTZ
    Blend: AUG-CC-PVTZ
  Basis Set: (AUG-CC-PVTZ AUX)
    Blend: AUG-CC-PVTZ-JKFIT

    Orbital Energies [Eh]
    ---------------------

    Doubly Occupied:

       1A    -20.658245     2A    -20.600370     3A    -15.763383
       4A    -11.295716     5A    -11.229503     6A     -1.688188
       7A     -1.394835     8A     -1.046726     9A     -0.915642
      10A     -0.855182    11A     -0.773780    12A     -0.746255
      13A     -0.727439    14A     -0.650762    15A     -0.591085
      16A     -0.557757    17A     -0.538395    18A     -0.528094
      19A     -0.466535    20A     -0.402146

  @DF-RHF Final Energy:  -282.80018389549372

   => Energetics <=

    Nuclear Repulsion Energy =            176.7701143328527849
    One-Electron Energy =                -736.2805185169456763
    Two-Electron Energy =                 276.7102202885991460
    Total Energy =                       -282.8001838954937170
  Basis Set: (AUG-CC-PVTZ AUX)
    Blend: AUG-CC-PVTZ-RI
    Molecular point group: c1

    Geometry (in Angstrom), charge = 0, multiplicity = 1:

       Center              X                  Y                   Z               Mass
    ------------   -----------------  -----------------  -----------------  -----------------
         O           -0.004163600557    -0.307628330612     0.000119742573    15.994914619570
         O           -2.155038600557    -0.268022330612    -0.000302257427    15.994914619570
         N           -1.267023400557     0.326445369388     0.000150042573    14.003074004430
         C            1.133599399443     0.591972669388     0.000025742573    12.000000000000
         C            2.365705399443    -0.285215330612     0.000034742573    12.000000000000
         H            1.089737399443     1.227602669388    -0.889450257427     1.007825032230
         H            1.089799399443     1.227704669388     0.889431742573     1.007825032230
         H            3.265642399443     0.336077669388    -0.000035257427     1.007825032230
         H            2.380917399443    -0.921768330612     0.886903742573     1.007825032230
         H            2.380853399443    -0.921876330612    -0.886758257427     1.007825032230

  Basis Set: AUG-CC-PVTZ
    Blend: AUG-CC-PVTZ
  Basis Set: (AUG-CC-PVTZ AUX)
    Blend: AUG-CC-PVTZ-JKFIT
	 Reference Energy          =    -282.8001838954937170 [Eh]
	 Singles Energy            =      -0.0000000000000000 [Eh]
	 Same-Spin Energy          =      -0.2680206543108327 [Eh]
	 Opposite-Spin Energy      =      -0.8462881175645433 [Eh]
	 Correlation Energy        =      -1.1143087718753759 [Eh]
	 Total Energy              =    -283.9144926673690748 [Eh]

	 ================> DF-SCS-MP2 Energies <==================
	-----------------------------------------------------------
	 SCS Same-Spin Scale       =       0.3333333333333333 [-]
	 SCS Opposite-Spin Scale   =       1.2000000000000000 [-]
	 SCS Same-Spin Energy      =      -0.0893402181036109 [Eh]
	 SCS Opposite-Spin Energy  =      -1.0155457410774518 [Eh]
	 SCS Correlation Energy    =      -1.1048859591810627 [Eh]
	 SCS Total Energy          =    -283.9050698546747640 [Eh]
	-----------------------------------------------------------

  Dipole Moment: [D]
     X:     1.6381      Y:     0.8910      Z:    -0.0002     Total:     1.8647

*** Psi4 exiting successfully. Buy a developer a beer!
