                               Psi4 1.3.2 release

  ==> Input File <==

--------------------------------------------------------------------------
#psi4
#
memory 32 gb

molecule  {
0 1
  O       -0.0893903    -0.3974293    -0.1303900
  O       -2.2943480    -0.3022200    -0.0003020
  N       -1.3331360     0.4207790     0.0001410
  C        0.9942900     0.5577750     0.0000260
  C        2.2263960    -0.3194130     0.0000350
  H        0.9504280     1.1934050    -0.8894500
  H        0.9504900     1.1935070     0.8894320
  H        3.1263330     0.3018800    -0.0000350
  H        2.2416080    -0.9559660     0.8869040
  H        2.2415440    -0.9560740    -0.8867580
units angstrom
no_reorient  #important for SAPT in psi4, default
symmetry c1  #important for SAPT in psi4, default
}

set PROPERTIES_ORIGIN ["COM"]
properties('MP2/aug-cc-pvtz', properties = ['dipole'])
--------------------------------------------------------------------------

    Molecular point group: c1
  Charge       = 0
  Multiplicity = 1
  Basis Set: AUG-CC-PVTZ
    Blend: AUG-CC-PVTZ
  Basis Set: (AUG-CC-PVTZ AUX)
    Blend: AUG-CC-PVTZ-JKFIT

    Orbital Energies [Eh]
    ---------------------

    Doubly Occupied:

       1A    -20.666585     2A    -20.622352     3A    -15.794987
       4A    -11.296391     5A    -11.229219     6A     -1.567543
       7A     -1.377480     8A     -1.040424     9A     -0.933786
      10A     -0.856224    11A     -0.736225    12A     -0.703000
      13A     -0.687649    14A     -0.623943    15A     -0.594720
      16A     -0.550760    17A     -0.536548    18A     -0.534174
      19A     -0.469696    20A     -0.443963

  @DF-RHF Final Energy:  -282.79584919573460

   => Energetics <=

    Nuclear Repulsion Energy =            172.9480007164588358
    One-Electron Energy =                -728.9563614763534360
    Two-Electron Energy =                 273.2125115641599677
    Total Energy =                       -282.7958491957346041
  Basis Set: (AUG-CC-PVTZ AUX)
    Blend: AUG-CC-PVTZ-RI
    Molecular point group: c1

    Geometry (in Angstrom), charge = 0, multiplicity = 1:

       Center              X                  Y                   Z               Mass
    ------------   -----------------  -----------------  -----------------  -----------------
         O            0.024729478206    -0.375365958966    -0.102567118696    15.994914619570
         O           -2.180228221794    -0.280156658966     0.027520881304    15.994914619570
         N           -1.219016221794     0.442842341034     0.027963881304    14.003074004430
         C            1.108409778206     0.579838341034     0.027848881304    12.000000000000
         C            2.340515778206    -0.297349658966     0.027857881304    12.000000000000
         H            1.064547778206     1.215468341034    -0.861627118696     1.007825032230
         H            1.064609778206     1.215570341034     0.917254881304     1.007825032230
         H            3.240452778206     0.323943341034     0.027787881304     1.007825032230
         H            2.355727778206    -0.933902658966     0.914726881304     1.007825032230
         H            2.355663778206    -0.934010658966    -0.858935118696     1.007825032230

  Basis Set: AUG-CC-PVTZ
    Blend: AUG-CC-PVTZ
  Basis Set: (AUG-CC-PVTZ AUX)
    Blend: AUG-CC-PVTZ-JKFIT
	 Reference Energy          =    -282.7958491957346041 [Eh]
	 Singles Energy            =      -0.0000000000000000 [Eh]
	 Same-Spin Energy          =      -0.2744369280314100 [Eh]
	 Opposite-Spin Energy      =      -0.8660078550963204 [Eh]
	 Correlation Energy        =      -1.1404447831277302 [Eh]
	 Total Energy              =    -283.9362939788623521 [Eh]

	 ================> DF-SCS-MP2 Energies <==================
	-----------------------------------------------------------
	 SCS Same-Spin Scale       =       0.3333333333333333 [-]
	 SCS Opposite-Spin Scale   =       1.2000000000000000 [-]
	 SCS Same-Spin Energy      =      -0.0914789760104700 [Eh]
	 SCS Opposite-Spin Energy  =      -1.0392094261155844 [Eh]
	 SCS Correlation Energy    =      -1.1306884021260544 [Eh]
	 SCS Total Energy          =    -283.9265375978606585 [Eh]
	-----------------------------------------------------------

  Dipole Moment: [D]
     X:     1.7552      Y:     1.1194      Z:     0.1458     Total:     2.0868

*** Psi4 exiting successfully. Buy a developer a beer!
