                               Psi4 1.4a3.dev225

  ==> Input File <==

--------------------------------------------------------------------------
#psi4
#
memory 32 gb

molecule  {
0 1
  O       -0.1930120     0.3539830    -0.5033360
  O       -2.2078060    -0.3013300    -0.0972570
  N       -1.1670400    -0.0472870     0.4451240
  C        1.1019833     0.6084477     0.2041688
  C        2.0021990    -0.5671560    -0.0255890
  H        1.4499140     1.5239110    -0.2520100
  H        0.8435940     0.7677230     1.2401610
  H        2.9727220    -0.3569890     0.4340390
  H        1.5904030    -1.4715490     0.4285410
  H        2.1535430    -0.7500910    -1.0915870
units angstrom
no_reorient  #important for SAPT in psi4, default
symmetry c1  #important for SAPT in psi4, default
}

set PROPERTIES_ORIGIN ["COM"]
properties('MP2/aug-cc-pvtz', properties = ['dipole'])
--------------------------------------------------------------------------

    Molecular point group: c1
  Charge       = 0
  Multiplicity = 1
  Basis Set: AUG-CC-PVTZ
    Blend: AUG-CC-PVTZ
  Basis Set: (AUG-CC-PVTZ AUX)
    Blend: AUG-CC-PVTZ-JKFIT

    Orbital Energies [Eh]
    ---------------------

    Doubly Occupied:

       1A    -20.644407     2A    -20.624147     3A    -15.782475
       4A    -11.303387     5A    -11.235929     6A     -1.566202
       7A     -1.379723     8A     -1.052977     9A     -0.933608
      10A     -0.860649    11A     -0.733372    12A     -0.711367
      13A     -0.671233    14A     -0.630562    15A     -0.596881
      16A     -0.574268    17A     -0.536069    18A     -0.523443
      19A     -0.472256    20A     -0.445933

  @DF-RHF Final Energy:  -282.80611888972118

   => Energetics <=

    Nuclear Repulsion Energy =            174.8191611964524554
    One-Electron Energy =                -732.6927823797949486
    Two-Electron Energy =                 275.0675022936213168
    Total Energy =                       -282.8061188897211764
  Basis Set: (AUG-CC-PVTZ AUX)
    Blend: AUG-CC-PVTZ-RI
    Molecular point group: c1

    Geometry (in Angstrom), charge = 0, multiplicity = 1:

       Center              X                  Y                   Z               Mass
    ------------   -----------------  -----------------  -----------------  -----------------
         O           -0.080897772589     0.348834844711    -0.497134814632    15.994914619570
         O           -2.095691772589    -0.306478155289    -0.091055814632    15.994914619570
         N           -1.054925772589    -0.052435155289     0.451325185368    14.003074004430
         C            1.214097527411     0.603299544711     0.210369985368    12.000000000000
         C            2.114313227411    -0.572304155289    -0.019387814632    12.000000000000
         H            1.562028227411     1.518762844711    -0.245808814632     1.007825032230
         H            0.955708227411     0.762574844711     1.246362185368     1.007825032230
         H            3.084836227411    -0.362137155289     0.440240185368     1.007825032230
         H            1.702517227411    -1.476697155289     0.434742185368     1.007825032230
         H            2.265657227411    -0.755239155289    -1.085385814632     1.007825032230

  Basis Set: AUG-CC-PVTZ
    Blend: AUG-CC-PVTZ
  Basis Set: (AUG-CC-PVTZ AUX)
    Blend: AUG-CC-PVTZ-JKFIT
	 Reference Energy          =    -282.8061188897211764 [Eh]
	 Singles Energy            =      -0.0000000000000000 [Eh]
	 Same-Spin Energy          =      -0.2734300975469279 [Eh]
	 Opposite-Spin Energy      =      -0.8613939016871334 [Eh]
	 Correlation Energy        =      -1.1348239992340612 [Eh]
	 Total Energy              =    -283.9409428889552487 [Eh]

	 ================> DF-SCS-MP2 Energies <==================
	-----------------------------------------------------------
	 SCS Same-Spin Scale       =       0.3333333333333333 [-]
	 SCS Opposite-Spin Scale   =       1.2000000000000000 [-]
	 SCS Same-Spin Energy      =      -0.0911433658489760 [Eh]
	 SCS Opposite-Spin Energy  =      -1.0336726820245601 [Eh]
	 SCS Correlation Energy    =      -1.1248160478735361 [Eh]
	 SCS Total Energy          =    -283.9309349375947136 [Eh]
	-----------------------------------------------------------

  Dipole Moment: [D]
     X:     2.7283      Y:     0.4203      Z:     0.7834     Total:     2.8695

*** Psi4 exiting successfully. Buy a developer a beer!
