                               Psi4 1.4a3.dev225

  ==> Input File <==

--------------------------------------------------------------------------
#psi4
#
memory 32 gb

molecule  {
0 1
  O       -0.1930120     0.3539830    -0.5033360
  O       -2.2078060    -0.3013300    -0.0972570
  N       -1.1807828    -0.0529486     0.4585061
  C        1.0587430     0.5999510     0.1805450
  C        2.0021990    -0.5671560    -0.0255890
  H        1.4499140     1.5239110    -0.2520100
  H        0.8435940     0.7677230     1.2401610
  H        2.9727220    -0.3569890     0.4340390
  H        1.5904030    -1.4715490     0.4285410
  H        2.1535430    -0.7500910    -1.0915870
units angstrom
no_reorient  #important for SAPT in psi4, default
symmetry c1  #important for SAPT in psi4, default
}

set PROPERTIES_ORIGIN ["COM"]
properties('MP2/aug-cc-pvtz', properties = ['dipole'])
--------------------------------------------------------------------------

    Molecular point group: c1
  Charge       = 0
  Multiplicity = 1
  Basis Set: AUG-CC-PVTZ
    Blend: AUG-CC-PVTZ
  Basis Set: (AUG-CC-PVTZ AUX)
    Blend: AUG-CC-PVTZ-JKFIT

    Orbital Energies [Eh]
    ---------------------

    Doubly Occupied:

       1A    -20.654068     2A    -20.624684     3A    -15.789207
       4A    -11.299127     5A    -11.232355     6A     -1.576545
       7A     -1.388954     8A     -1.044358     9A     -0.939711
      10A     -0.857085    11A     -0.739622    12A     -0.716150
      13A     -0.675976    14A     -0.625689    15A     -0.598249
      16A     -0.574455    17A     -0.540631    18A     -0.517070
      19A     -0.468591    20A     -0.448839

  @DF-RHF Final Energy:  -282.80826881044464

   => Energetics <=

    Nuclear Repulsion Energy =            175.1605195969248143
    One-Electron Energy =                -733.3148450466420627
    Two-Electron Energy =                 275.3460566392726037
    Total Energy =                       -282.8082688104446447
  Basis Set: (AUG-CC-PVTZ AUX)
    Blend: AUG-CC-PVTZ-RI
    Molecular point group: c1

    Geometry (in Angstrom), charge = 0, multiplicity = 1:

       Center              X                  Y                   Z               Mass
    ------------   -----------------  -----------------  -----------------  -----------------
         O           -0.071417487162     0.351250349231    -0.495854094046    15.994914619570
         O           -2.086211487162    -0.304062650769    -0.089775094046    15.994914619570
         N           -1.059188287162    -0.055681250769     0.465988005954    14.003074004430
         C            1.180337512838     0.597218349231     0.188026905954    12.000000000000
         C            2.123793512838    -0.569888650769    -0.018107094046    12.000000000000
         H            1.571508512838     1.521178349231    -0.244528094046     1.007825032230
         H            0.965188512838     0.764990349231     1.247642905954     1.007825032230
         H            3.094316512838    -0.359721650769     0.441520905954     1.007825032230
         H            1.711997512838    -1.474281650769     0.436022905954     1.007825032230
         H            2.275137512838    -0.752823650769    -1.084105094046     1.007825032230

  Basis Set: AUG-CC-PVTZ
    Blend: AUG-CC-PVTZ
  Basis Set: (AUG-CC-PVTZ AUX)
    Blend: AUG-CC-PVTZ-JKFIT
	 Reference Energy          =    -282.8082688104446447 [Eh]
	 Singles Energy            =      -0.0000000000000000 [Eh]
	 Same-Spin Energy          =      -0.2732744385296552 [Eh]
	 Opposite-Spin Energy      =      -0.8610696829552613 [Eh]
	 Correlation Energy        =      -1.1343441214849164 [Eh]
	 Total Energy              =    -283.9426129319295455 [Eh]

	 ================> DF-SCS-MP2 Energies <==================
	-----------------------------------------------------------
	 SCS Same-Spin Scale       =       0.3333333333333333 [-]
	 SCS Opposite-Spin Scale   =       1.2000000000000000 [-]
	 SCS Same-Spin Energy      =      -0.0910914795098851 [Eh]
	 SCS Opposite-Spin Energy  =      -1.0332836195463135 [Eh]
	 SCS Correlation Energy    =      -1.1243750990561985 [Eh]
	 SCS Total Energy          =    -283.9326439095008254 [Eh]
	-----------------------------------------------------------

  Dipole Moment: [D]
     X:     2.3146      Y:     0.3504      Z:     0.7912     Total:     2.4711

*** Psi4 exiting successfully. Buy a developer a beer!
