                               Psi4 1.3.2 release

  ==> Input File <==

--------------------------------------------------------------------------
#psi4
#
memory 32 gb

molecule  {
0 1
  O       -0.1175832    -0.2998428     0.0001397
  O       -2.2943480    -0.3022200    -0.0003020
  N       -1.3331360     0.4207790     0.0001410
  C        0.9942900     0.5577750     0.0000260
  C        2.2263960    -0.3194130     0.0000350
  H        0.9504280     1.1934050    -0.8894500
  H        0.9504900     1.1935070     0.8894320
  H        3.1263330     0.3018800    -0.0000350
  H        2.2416080    -0.9559660     0.8869040
  H        2.2415440    -0.9560740    -0.8867580
units angstrom
no_reorient  #important for SAPT in psi4, default
symmetry c1  #important for SAPT in psi4, default
}

set PROPERTIES_ORIGIN ["COM"]
properties('MP2/aug-cc-pvtz', properties = ['dipole'])
--------------------------------------------------------------------------

    Molecular point group: c1
  Charge       = 0
  Multiplicity = 1
  Basis Set: AUG-CC-PVTZ
    Blend: AUG-CC-PVTZ
  Basis Set: (AUG-CC-PVTZ AUX)
    Blend: AUG-CC-PVTZ-JKFIT

    Orbital Energies [Eh]
    ---------------------

    Doubly Occupied:

       1A    -20.652422     2A    -20.629938     3A    -15.787409
       4A    -11.298621     5A    -11.234383     6A     -1.572563
       7A     -1.408463     8A     -1.055123     9A     -0.935440
      10A     -0.860842    11A     -0.746976    12A     -0.706734
      13A     -0.704670    14A     -0.624064    15A     -0.593505
      16A     -0.563677    17A     -0.540820    18A     -0.534667
      19A     -0.467936    20A     -0.446241

  @DF-RHF Final Energy:  -282.80957826580362

   => Energetics <=

    Nuclear Repulsion Energy =            174.8551090249550271
    One-Electron Energy =                -732.6003867071242439
    Two-Electron Energy =                 274.9356994163655941
    Total Energy =                       -282.8095782658036228
  Basis Set: (AUG-CC-PVTZ AUX)
    Blend: AUG-CC-PVTZ-RI
    Molecular point group: c1

    Geometry (in Angstrom), charge = 0, multiplicity = 1:

       Center              X                  Y                   Z               Mass
    ------------   -----------------  -----------------  -----------------  -----------------
         O            0.002546585372    -0.298582411634     0.000136978675    15.994914619570
         O           -2.174218214628    -0.300959611634    -0.000304721325    15.994914619570
         N           -1.213006214628     0.422039388366     0.000138278675    14.003074004430
         C            1.114419785372     0.559035388366     0.000023278675    12.000000000000
         C            2.346525785372    -0.318152611634     0.000032278675    12.000000000000
         H            1.070557785372     1.194665388366    -0.889452721325     1.007825032230
         H            1.070619785372     1.194767388366     0.889429278675     1.007825032230
         H            3.246462785372     0.303140388366    -0.000037721325     1.007825032230
         H            2.361737785372    -0.954705611634     0.886901278675     1.007825032230
         H            2.361673785372    -0.954813611634    -0.886760721325     1.007825032230

  Basis Set: AUG-CC-PVTZ
    Blend: AUG-CC-PVTZ
  Basis Set: (AUG-CC-PVTZ AUX)
    Blend: AUG-CC-PVTZ-JKFIT
	 Reference Energy          =    -282.8095782658036228 [Eh]
	 Singles Energy            =      -0.0000000000000000 [Eh]
	 Same-Spin Energy          =      -0.2723842811331801 [Eh]
	 Opposite-Spin Energy      =      -0.8586168557294137 [Eh]
	 Correlation Energy        =      -1.1310011368625938 [Eh]
	 Total Energy              =    -283.9405794026662306 [Eh]

	 ================> DF-SCS-MP2 Energies <==================
	-----------------------------------------------------------
	 SCS Same-Spin Scale       =       0.3333333333333333 [-]
	 SCS Opposite-Spin Scale   =       1.2000000000000000 [-]
	 SCS Same-Spin Energy      =      -0.0907947603777267 [Eh]
	 SCS Opposite-Spin Energy  =      -1.0303402268752964 [Eh]
	 SCS Correlation Energy    =      -1.1211349872530230 [Eh]
	 SCS Total Energy          =    -283.9307132530566378 [Eh]
	-----------------------------------------------------------

  Dipole Moment: [D]
     X:     2.3894      Y:     0.9215      Z:     0.0000     Total:     2.5610

*** Psi4 exiting successfully. Buy a developer a beer!
