                               Psi4 1.3.2 release

  ==> Input File <==

--------------------------------------------------------------------------
#psi4
#
memory 32 gb

molecule  {
0 1
  O       -0.1434730    -0.3418260     0.0001200
  O       -2.2943480    -0.3022200    -0.0003020
  N       -1.1733030     0.5410013     0.0002147
  C        0.9942900     0.5577750     0.0000260
  C        2.2263960    -0.3194130     0.0000350
  H        0.9504280     1.1934050    -0.8894500
  H        0.9504900     1.1935070     0.8894320
  H        3.1263330     0.3018800    -0.0000350
  H        2.2416080    -0.9559660     0.8869040
  H        2.2415440    -0.9560740    -0.8867580
units angstrom
no_reorient  #important for SAPT in psi4, default
symmetry c1  #important for SAPT in psi4, default
}

set PROPERTIES_ORIGIN ["COM"]
properties('MP2/aug-cc-pvtz', properties = ['dipole'])
--------------------------------------------------------------------------

    Molecular point group: c1
  Charge       = 0
  Multiplicity = 1
  Basis Set: AUG-CC-PVTZ
    Blend: AUG-CC-PVTZ
  Basis Set: (AUG-CC-PVTZ AUX)
    Blend: AUG-CC-PVTZ-JKFIT

    Orbital Energies [Eh]
    ---------------------

    Doubly Occupied:

       1A    -20.671813     2A    -20.623093     3A    -15.806365
       4A    -11.316106     5A    -11.243657     6A     -1.532557
       7A     -1.332690     8A     -1.067677     9A     -0.955953
      10A     -0.881652    11A     -0.716374    12A     -0.713732
      13A     -0.683642    14A     -0.604712    15A     -0.581283
      16A     -0.549031    17A     -0.537138    18A     -0.527245
      19A     -0.478809    20A     -0.454826

  @DF-RHF Final Energy:  -282.73474190406148

   => Energetics <=

    Nuclear Repulsion Energy =            172.8261187942037509
    One-Electron Energy =                -728.5650091719329566
    Two-Electron Energy =                 273.0041484736676694
    Total Energy =                       -282.7347419040614795
  Basis Set: (AUG-CC-PVTZ AUX)
    Blend: AUG-CC-PVTZ-RI
    Molecular point group: c1

    Geometry (in Angstrom), charge = 0, multiplicity = 1:

       Center              X                  Y                   Z               Mass
    ------------   -----------------  -----------------  -----------------  -----------------
         O           -0.047653475535    -0.354052706225     0.000107723732    15.994914619570
         O           -2.198528475535    -0.314446706225    -0.000314276268    15.994914619570
         N           -1.077483475535     0.528774593775     0.000202423732    14.003074004430
         C            1.090109524465     0.545548293775     0.000013723732    12.000000000000
         C            2.322215524465    -0.331639706225     0.000022723732    12.000000000000
         H            1.046247524465     1.181178293775    -0.889462276268     1.007825032230
         H            1.046309524465     1.181280293775     0.889419723732     1.007825032230
         H            3.222152524465     0.289653293775    -0.000047276268     1.007825032230
         H            2.337427524465    -0.968192706225     0.886891723732     1.007825032230
         H            2.337363524465    -0.968300706225    -0.886770276268     1.007825032230

  Basis Set: AUG-CC-PVTZ
    Blend: AUG-CC-PVTZ
  Basis Set: (AUG-CC-PVTZ AUX)
    Blend: AUG-CC-PVTZ-JKFIT
	 Reference Energy          =    -282.7347419040614795 [Eh]
	 Singles Energy            =      -0.0000000000000000 [Eh]
	 Same-Spin Energy          =      -0.2819336498184137 [Eh]
	 Opposite-Spin Energy      =      -0.8822435570964823 [Eh]
	 Correlation Energy        =      -1.1641772069148959 [Eh]
	 Total Energy              =    -283.8989191109763510 [Eh]

	 ================> DF-SCS-MP2 Energies <==================
	-----------------------------------------------------------
	 SCS Same-Spin Scale       =       0.3333333333333333 [-]
	 SCS Opposite-Spin Scale   =       1.2000000000000000 [-]
	 SCS Same-Spin Energy      =      -0.0939778832728046 [Eh]
	 SCS Opposite-Spin Energy  =      -1.0586922685157787 [Eh]
	 SCS Correlation Energy    =      -1.1526701517885833 [Eh]
	 SCS Total Energy          =    -283.8874120558500636 [Eh]
	-----------------------------------------------------------

  Dipole Moment: [D]
     X:     3.3332      Y:     0.8319      Z:     0.0001     Total:     3.4354

*** Psi4 exiting successfully. Buy a developer a beer!
