                               Psi4 1.4a3.dev225

  ==> Input File <==

--------------------------------------------------------------------------
#psi4
#
memory 32 gb

molecule  {
0 1
  O       -0.1930120     0.3539830    -0.5033360
  O       -2.2078060    -0.3013300    -0.0972570
  N       -1.1497054    -0.0430558     0.4541577
  C        1.0587430     0.5999510     0.1805450
  C        2.0021990    -0.5671560    -0.0255890
  H        1.4499140     1.5239110    -0.2520100
  H        0.8435940     0.7677230     1.2401610
  H        2.9727220    -0.3569890     0.4340390
  H        1.5904030    -1.4715490     0.4285410
  H        2.1535430    -0.7500910    -1.0915870
units angstrom
no_reorient  #important for SAPT in psi4, default
symmetry c1  #important for SAPT in psi4, default
}

set PROPERTIES_ORIGIN ["COM"]
properties('MP2/aug-cc-pvtz', properties = ['dipole'])
--------------------------------------------------------------------------

    Molecular point group: c1
  Charge       = 0
  Multiplicity = 1
  Basis Set: AUG-CC-PVTZ
    Blend: AUG-CC-PVTZ
  Basis Set: (AUG-CC-PVTZ AUX)
    Blend: AUG-CC-PVTZ-JKFIT

    Orbital Energies [Eh]
    ---------------------

    Doubly Occupied:

       1A    -20.646580     2A    -20.634215     3A    -15.788990
       4A    -11.302867     5A    -11.235019     6A     -1.559690
       7A     -1.393968     8A     -1.049494     9A     -0.942843
      10A     -0.860201    11A     -0.735800    12A     -0.714161
      13A     -0.674926    14A     -0.623306    15A     -0.596281
      16A     -0.571254    17A     -0.543053    18A     -0.519215
      19A     -0.470094    20A     -0.455036

  @DF-RHF Final Energy:  -282.80473995419487

   => Energetics <=

    Nuclear Repulsion Energy =            175.2583656695623517
    One-Electron Energy =                -733.4922270455949729
    Two-Electron Energy =                 275.4291214218376922
    Total Energy =                       -282.8047399541948721
  Basis Set: (AUG-CC-PVTZ AUX)
    Blend: AUG-CC-PVTZ-RI
    Molecular point group: c1

    Geometry (in Angstrom), charge = 0, multiplicity = 1:

       Center              X                  Y                   Z               Mass
    ------------   -----------------  -----------------  -----------------  -----------------
         O           -0.077217398764     0.349404076200    -0.495042561047    15.994914619570
         O           -2.092011398764    -0.305908923800    -0.088963561047    15.994914619570
         N           -1.033910798764    -0.047634723800     0.462451138953    14.003074004430
         C            1.174537601236     0.595372076200     0.188838438953    12.000000000000
         C            2.117993601236    -0.571734923800    -0.017295561047    12.000000000000
         H            1.565708601236     1.519332076200    -0.243716561047     1.007825032230
         H            0.959388601236     0.763144076200     1.248454438953     1.007825032230
         H            3.088516601236    -0.361567923800     0.442332438953     1.007825032230
         H            1.706197601236    -1.476127923800     0.436834438953     1.007825032230
         H            2.269337601236    -0.754669923800    -1.083293561047     1.007825032230

  Basis Set: AUG-CC-PVTZ
    Blend: AUG-CC-PVTZ
  Basis Set: (AUG-CC-PVTZ AUX)
    Blend: AUG-CC-PVTZ-JKFIT
	 Reference Energy          =    -282.8047399541948721 [Eh]
	 Singles Energy            =      -0.0000000000000000 [Eh]
	 Same-Spin Energy          =      -0.2739764456909666 [Eh]
	 Opposite-Spin Energy      =      -0.8625302508122545 [Eh]
	 Correlation Energy        =      -1.1365066965032211 [Eh]
	 Total Energy              =    -283.9412466506980763 [Eh]

	 ================> DF-SCS-MP2 Energies <==================
	-----------------------------------------------------------
	 SCS Same-Spin Scale       =       0.3333333333333333 [-]
	 SCS Opposite-Spin Scale   =       1.2000000000000000 [-]
	 SCS Same-Spin Energy      =      -0.0913254818969889 [Eh]
	 SCS Opposite-Spin Energy  =      -1.0350363009747054 [Eh]
	 SCS Correlation Energy    =      -1.1263617828716943 [Eh]
	 SCS Total Energy          =    -283.9311017370665695 [Eh]
	-----------------------------------------------------------

  Dipole Moment: [D]
     X:     2.6568      Y:     0.4401      Z:     0.7184     Total:     2.7871

*** Psi4 exiting successfully. Buy a developer a beer!
