                               Psi4 1.3.2 release

  ==> Input File <==

--------------------------------------------------------------------------
#psi4
#
memory 32 gb

molecule  {
0 1
  O       -0.2034545    -0.2602683     0.0001172
  O       -2.2943480    -0.3022200    -0.0003020
  N       -1.3331360     0.4207790     0.0001410
  C        0.9942900     0.5577750     0.0000260
  C        2.2263960    -0.3194130     0.0000350
  H        0.9504280     1.1934050    -0.8894500
  H        0.9504900     1.1935070     0.8894320
  H        3.1263330     0.3018800    -0.0000350
  H        2.2416080    -0.9559660     0.8869040
  H        2.2415440    -0.9560740    -0.8867580
units angstrom
no_reorient  #important for SAPT in psi4, default
symmetry c1  #important for SAPT in psi4, default
}

set PROPERTIES_ORIGIN ["COM"]
properties('MP2/aug-cc-pvtz', properties = ['dipole'])
--------------------------------------------------------------------------

    Molecular point group: c1
  Charge       = 0
  Multiplicity = 1
  Basis Set: AUG-CC-PVTZ
    Blend: AUG-CC-PVTZ
  Basis Set: (AUG-CC-PVTZ AUX)
    Blend: AUG-CC-PVTZ-JKFIT

    Orbital Energies [Eh]
    ---------------------

    Doubly Occupied:

       1A    -20.639432     2A    -20.624390     3A    -15.771916
       4A    -11.311945     5A    -11.243417     6A     -1.585935
       7A     -1.410345     8A     -1.068959     9A     -0.934428
      10A     -0.865073    11A     -0.745391    12A     -0.714797
      13A     -0.711293    14A     -0.628790    15A     -0.586915
      16A     -0.568149    17A     -0.540833    18A     -0.533868
      19A     -0.471049    20A     -0.444448

  @DF-RHF Final Energy:  -282.81486393653557

   => Energetics <=

    Nuclear Repulsion Energy =            175.8507404214942085
    One-Electron Energy =                -734.5284667278456254
    Two-Electron Energy =                 275.8628623698157867
    Total Energy =                       -282.8148639365355734
  Basis Set: (AUG-CC-PVTZ AUX)
    Blend: AUG-CC-PVTZ-RI
    Molecular point group: c1

    Geometry (in Angstrom), charge = 0, multiplicity = 1:

       Center              X                  Y                   Z               Mass
    ------------   -----------------  -----------------  -----------------  -----------------
         O           -0.065019143781    -0.267444185610     0.000119275101    15.994914619570
         O           -2.155912643781    -0.309395885610    -0.000299924899    15.994914619570
         N           -1.194700643781     0.413603114390     0.000143075101    14.003074004430
         C            1.132725356219     0.550599114390     0.000028075101    12.000000000000
         C            2.364831356219    -0.326588885610     0.000037075101    12.000000000000
         H            1.088863356219     1.186229114390    -0.889447924899     1.007825032230
         H            1.088925356219     1.186331114390     0.889434075101     1.007825032230
         H            3.264768356219     0.294704114390    -0.000032924899     1.007825032230
         H            2.380043356219    -0.963141885610     0.886906075101     1.007825032230
         H            2.379979356219    -0.963249885610    -0.886755924899     1.007825032230

  Basis Set: AUG-CC-PVTZ
    Blend: AUG-CC-PVTZ
  Basis Set: (AUG-CC-PVTZ AUX)
    Blend: AUG-CC-PVTZ-JKFIT
	 Reference Energy          =    -282.8148639365355734 [Eh]
	 Singles Energy            =      -0.0000000000000000 [Eh]
	 Same-Spin Energy          =      -0.2705501670452346 [Eh]
	 Opposite-Spin Energy      =      -0.8532360109134070 [Eh]
	 Correlation Energy        =      -1.1237861779586416 [Eh]
	 Total Energy              =    -283.9386501144942372 [Eh]

	 ================> DF-SCS-MP2 Energies <==================
	-----------------------------------------------------------
	 SCS Same-Spin Scale       =       0.3333333333333333 [-]
	 SCS Opposite-Spin Scale   =       1.2000000000000000 [-]
	 SCS Same-Spin Energy      =      -0.0901833890150782 [Eh]
	 SCS Opposite-Spin Energy  =      -1.0238832130960882 [Eh]
	 SCS Correlation Energy    =      -1.1140666021111665 [Eh]
	 SCS Total Energy          =    -283.9289305386467390 [Eh]
	-----------------------------------------------------------

  Dipole Moment: [D]
     X:     3.3802      Y:     0.9005      Z:     0.0001     Total:     3.4981

*** Psi4 exiting successfully. Buy a developer a beer!
