                               Psi4 1.3.2 release

  ==> Input File <==

--------------------------------------------------------------------------
#psi4
#
memory 32 gb

molecule  {
0 1
  O       -0.1434730    -0.3418260     0.0001200
  O       -2.2943480    -0.3022200    -0.0003020
  N       -1.3331360     0.4207790     0.0001410
  C        0.9942900     0.5577750     0.0000260
  C        2.2263960    -0.3194130     0.0000350
  H        0.9504280     1.1934050    -0.8894500
  H        0.9504900     1.1935070     0.8894320
  H        3.1263330     0.3018800    -0.0000350
  H        2.2416080    -0.9559660     0.8869040
  H        2.2415440    -0.9560740    -0.8867580
units angstrom
no_reorient  #important for SAPT in psi4, default
symmetry c1  #important for SAPT in psi4, default
}

set PROPERTIES_ORIGIN ["COM"]
properties('MP2/aug-cc-pvtz', properties = ['dipole'])
--------------------------------------------------------------------------

    Molecular point group: c1
  Charge       = 0
  Multiplicity = 1
  Basis Set: AUG-CC-PVTZ
    Blend: AUG-CC-PVTZ
  Basis Set: (AUG-CC-PVTZ AUX)
    Blend: AUG-CC-PVTZ-JKFIT

    Orbital Energies [Eh]
    ---------------------

    Doubly Occupied:

       1A    -20.648591     2A    -20.629881     3A    -15.784944
       4A    -11.302720     5A    -11.235249     6A     -1.570706
       7A     -1.394110     8A     -1.052436     9A     -0.930359
      10A     -0.861838    11A     -0.740830    12A     -0.704765
      13A     -0.698426    14A     -0.624184    15A     -0.590818
      16A     -0.557992    17A     -0.538232    18A     -0.536016
      19A     -0.471855    20A     -0.448199

  @DF-RHF Final Energy:  -282.80961921384272

   => Energetics <=

    Nuclear Repulsion Energy =            174.2267307407011003
    One-Electron Energy =                -731.4283988311080975
    Two-Electron Energy =                 274.3920488765642745
    Total Energy =                       -282.8096192138427227
  Basis Set: (AUG-CC-PVTZ AUX)
    Blend: AUG-CC-PVTZ-RI
    Molecular point group: c1

    Geometry (in Angstrom), charge = 0, multiplicity = 1:

       Center              X                  Y                   Z               Mass
    ------------   -----------------  -----------------  -----------------  -----------------
         O           -0.017824169638    -0.331615864256     0.000121478213    15.994914619570
         O           -2.168699169638    -0.292009864256    -0.000300521787    15.994914619570
         N           -1.207487169638     0.430989135744     0.000142478213    14.003074004430
         C            1.119938830362     0.567985135744     0.000027478213    12.000000000000
         C            2.352044830362    -0.309202864256     0.000036478213    12.000000000000
         H            1.076076830362     1.203615135744    -0.889448521787     1.007825032230
         H            1.076138830362     1.203717135744     0.889433478213     1.007825032230
         H            3.251981830362     0.312090135744    -0.000033521787     1.007825032230
         H            2.367256830362    -0.945755864256     0.886905478213     1.007825032230
         H            2.367192830362    -0.945863864256    -0.886756521787     1.007825032230

  Basis Set: AUG-CC-PVTZ
    Blend: AUG-CC-PVTZ
  Basis Set: (AUG-CC-PVTZ AUX)
    Blend: AUG-CC-PVTZ-JKFIT
	 Reference Energy          =    -282.8096192138427227 [Eh]
	 Singles Energy            =      -0.0000000000000000 [Eh]
	 Same-Spin Energy          =      -0.2724415260262409 [Eh]
	 Opposite-Spin Energy      =      -0.8596735271535771 [Eh]
	 Correlation Energy        =      -1.1321150531798181 [Eh]
	 Total Energy              =    -283.9417342670225253 [Eh]

	 ================> DF-SCS-MP2 Energies <==================
	-----------------------------------------------------------
	 SCS Same-Spin Scale       =       0.3333333333333333 [-]
	 SCS Opposite-Spin Scale   =       1.2000000000000000 [-]
	 SCS Same-Spin Energy      =      -0.0908138420087470 [Eh]
	 SCS Opposite-Spin Energy  =      -1.0316082325842926 [Eh]
	 SCS Correlation Energy    =      -1.1224220745930396 [Eh]
	 SCS Total Energy          =    -283.9320412884357552 [Eh]
	-----------------------------------------------------------

  Dipole Moment: [D]
     X:     2.4956      Y:     1.0178      Z:     0.0000     Total:     2.6951

*** Psi4 exiting successfully. Buy a developer a beer!
