                               Psi4 1.3.2 release

  ==> Input File <==

--------------------------------------------------------------------------
#psi4
#
memory 32 gb

molecule  {
0 1
  O       -0.1434730    -0.3418260     0.0001200
  O       -2.2943480    -0.3022200    -0.0003020
  N       -1.2532195     0.4808901     0.0001778
  C        0.9942900     0.5577750     0.0000260
  C        2.2263960    -0.3194130     0.0000350
  H        0.9504280     1.1934050    -0.8894500
  H        0.9504900     1.1935070     0.8894320
  H        3.1263330     0.3018800    -0.0000350
  H        2.2416080    -0.9559660     0.8869040
  H        2.2415440    -0.9560740    -0.8867580
units angstrom
no_reorient  #important for SAPT in psi4, default
symmetry c1  #important for SAPT in psi4, default
}

set PROPERTIES_ORIGIN ["COM"]
properties('MP2/aug-cc-pvtz', properties = ['dipole'])
--------------------------------------------------------------------------

    Molecular point group: c1
  Charge       = 0
  Multiplicity = 1
  Basis Set: AUG-CC-PVTZ
    Blend: AUG-CC-PVTZ
  Basis Set: (AUG-CC-PVTZ AUX)
    Blend: AUG-CC-PVTZ-JKFIT

    Orbital Energies [Eh]
    ---------------------

    Doubly Occupied:

       1A    -20.651991     2A    -20.636633     3A    -15.795692
       4A    -11.309795     5A    -11.239934     6A     -1.532052
       7A     -1.375885     8A     -1.060872     9A     -0.942682
      10A     -0.871702    11A     -0.724123    12A     -0.704741
      13A     -0.690681    14A     -0.608244    15A     -0.585008
      16A     -0.552476    17A     -0.542106    18A     -0.531699
      19A     -0.469860    20A     -0.468383

  @DF-RHF Final Energy:  -282.77968832268760

   => Energetics <=

    Nuclear Repulsion Energy =            173.4204043938939037
    One-Electron Energy =                -729.8110663533374236
    Two-Electron Energy =                 273.6109736367558867
    Total Energy =                       -282.7796883226876048
  Basis Set: (AUG-CC-PVTZ AUX)
    Blend: AUG-CC-PVTZ-RI
    Molecular point group: c1

    Geometry (in Angstrom), charge = 0, multiplicity = 1:

       Center              X                  Y                   Z               Mass
    ------------   -----------------  -----------------  -----------------  -----------------
         O           -0.032738822586    -0.342834275909     0.000114610304    15.994914619570
         O           -2.183613822586    -0.303228275909    -0.000307389696    15.994914619570
         N           -1.142485322586     0.479881824091     0.000172410304    14.003074004430
         C            1.105024177414     0.556766724091     0.000020610304    12.000000000000
         C            2.337130177414    -0.320421275909     0.000029610304    12.000000000000
         H            1.061162177414     1.192396724091    -0.889455389696     1.007825032230
         H            1.061224177414     1.192498724091     0.889426610304     1.007825032230
         H            3.237067177414     0.300871724091    -0.000040389696     1.007825032230
         H            2.352342177414    -0.956974275909     0.886898610304     1.007825032230
         H            2.352278177414    -0.957082275909    -0.886763389696     1.007825032230

  Basis Set: AUG-CC-PVTZ
    Blend: AUG-CC-PVTZ
  Basis Set: (AUG-CC-PVTZ AUX)
    Blend: AUG-CC-PVTZ-JKFIT
	 Reference Energy          =    -282.7796883226876048 [Eh]
	 Singles Energy            =      -0.0000000000000000 [Eh]
	 Same-Spin Energy          =      -0.2768584640380316 [Eh]
	 Opposite-Spin Energy      =      -0.8705402242066933 [Eh]
	 Correlation Energy        =      -1.1473986882447249 [Eh]
	 Total Energy              =    -283.9270870109323255 [Eh]

	 ================> DF-SCS-MP2 Energies <==================
	-----------------------------------------------------------
	 SCS Same-Spin Scale       =       0.3333333333333333 [-]
	 SCS Opposite-Spin Scale   =       1.2000000000000000 [-]
	 SCS Same-Spin Energy      =      -0.0922861546793439 [Eh]
	 SCS Opposite-Spin Energy  =      -1.0446482690480319 [Eh]
	 SCS Correlation Energy    =      -1.1369344237273757 [Eh]
	 SCS Total Energy          =    -283.9166227464149870 [Eh]
	-----------------------------------------------------------

  Dipole Moment: [D]
     X:     3.1023      Y:     0.9793      Z:     0.0001     Total:     3.2532

*** Psi4 exiting successfully. Buy a developer a beer!
