                               Psi4 1.3.2 release

  ==> Input File <==

--------------------------------------------------------------------------
#psi4
#
memory 32 gb

molecule  {
0 1
  O       -0.1434730    -0.3418260     0.0001200
  O       -2.2943480    -0.3022200    -0.0003020
  N       -1.3196455     0.4414253     0.0001394
  C        0.9942900     0.5577750     0.0000260
  C        2.2263960    -0.3194130     0.0000350
  H        0.9504280     1.1934050    -0.8894500
  H        0.9504900     1.1935070     0.8894320
  H        3.1263330     0.3018800    -0.0000350
  H        2.2416080    -0.9559660     0.8869040
  H        2.2415440    -0.9560740    -0.8867580
units angstrom
no_reorient  #important for SAPT in psi4, default
symmetry c1  #important for SAPT in psi4, default
}

set PROPERTIES_ORIGIN ["COM"]
properties('MP2/aug-cc-pvtz', properties = ['dipole'])
--------------------------------------------------------------------------

    Molecular point group: c1
  Charge       = 0
  Multiplicity = 1
  Basis Set: AUG-CC-PVTZ
    Blend: AUG-CC-PVTZ
  Basis Set: (AUG-CC-PVTZ AUX)
    Blend: AUG-CC-PVTZ-JKFIT

    Orbital Energies [Eh]
    ---------------------

    Doubly Occupied:

       1A    -20.647424     2A    -20.634130     3A    -15.788517
       4A    -11.303749     5A    -11.236009     6A     -1.556282
       7A     -1.391071     8A     -1.053282     9A     -0.933437
      10A     -0.863417    11A     -0.735559    12A     -0.699915
      13A     -0.697980    14A     -0.618730    15A     -0.589739
      16A     -0.557355    17A     -0.537013    18A     -0.537007
      19A     -0.471686    20A     -0.454377

  @DF-RHF Final Energy:  -282.80361389341431

   => Energetics <=

    Nuclear Repulsion Energy =            173.8604767401038487
    One-Electron Energy =                -730.7148202595731163
    Two-Electron Energy =                 274.0507296260549310
    Total Energy =                       -282.8036138934143082
  Basis Set: (AUG-CC-PVTZ AUX)
    Blend: AUG-CC-PVTZ-RI
    Molecular point group: c1

    Geometry (in Angstrom), charge = 0, multiplicity = 1:

       Center              X                  Y                   Z               Mass
    ------------   -----------------  -----------------  -----------------  -----------------
         O           -0.020341874062    -0.335469040999     0.000121776817    15.994914619570
         O           -2.171216874062    -0.295863040999    -0.000300223183    15.994914619570
         N           -1.196514374062     0.447782259001     0.000141176817    14.003074004430
         C            1.117421125938     0.564131959001     0.000027776817    12.000000000000
         C            2.349527125938    -0.313056040999     0.000036776817    12.000000000000
         H            1.073559125938     1.199761959001    -0.889448223183     1.007825032230
         H            1.073621125938     1.199863959001     0.889433776817     1.007825032230
         H            3.249464125938     0.308236959001    -0.000033223183     1.007825032230
         H            2.364739125938    -0.949609040999     0.886905776817     1.007825032230
         H            2.364675125938    -0.949717040999    -0.886756223183     1.007825032230

  Basis Set: AUG-CC-PVTZ
    Blend: AUG-CC-PVTZ
  Basis Set: (AUG-CC-PVTZ AUX)
    Blend: AUG-CC-PVTZ-JKFIT
	 Reference Energy          =    -282.8036138934143082 [Eh]
	 Singles Energy            =      -0.0000000000000000 [Eh]
	 Same-Spin Energy          =      -0.2734780099125713 [Eh]
	 Opposite-Spin Energy      =      -0.8625112639129491 [Eh]
	 Correlation Energy        =      -1.1359892738255204 [Eh]
	 Total Energy              =    -283.9396031672398522 [Eh]

	 ================> DF-SCS-MP2 Energies <==================
	-----------------------------------------------------------
	 SCS Same-Spin Scale       =       0.3333333333333333 [-]
	 SCS Opposite-Spin Scale   =       1.2000000000000000 [-]
	 SCS Same-Spin Energy      =      -0.0911593366375238 [Eh]
	 SCS Opposite-Spin Energy  =      -1.0350135166955388 [Eh]
	 SCS Correlation Energy    =      -1.1261728533330626 [Eh]
	 SCS Total Energy          =    -283.9297867467473679 [Eh]
	-----------------------------------------------------------

  Dipole Moment: [D]
     X:     2.6029      Y:     1.0263      Z:     0.0001     Total:     2.7979

*** Psi4 exiting successfully. Buy a developer a beer!
