                               Psi4 1.3.2 release

  ==> Input File <==

--------------------------------------------------------------------------
#psi4
#
memory 32 gb

molecule  {
0 1
  O       -0.1434730    -0.3418260     0.0001200
  O       -2.2943480    -0.3022200    -0.0003020
  N       -1.3331360     0.4207790     0.0001410
  C        1.0727324     0.6197975     0.0000195
  C        2.2263960    -0.3194130     0.0000350
  H        0.9504280     1.1934050    -0.8894500
  H        0.9504900     1.1935070     0.8894320
  H        3.1263330     0.3018800    -0.0000350
  H        2.2416080    -0.9559660     0.8869040
  H        2.2415440    -0.9560740    -0.8867580
units angstrom
no_reorient  #important for SAPT in psi4, default
symmetry c1  #important for SAPT in psi4, default
}

set PROPERTIES_ORIGIN ["COM"]
properties('MP2/aug-cc-pvtz', properties = ['dipole'])
--------------------------------------------------------------------------

    Molecular point group: c1
  Charge       = 0
  Multiplicity = 1
  Basis Set: AUG-CC-PVTZ
    Blend: AUG-CC-PVTZ
  Basis Set: (AUG-CC-PVTZ AUX)
    Blend: AUG-CC-PVTZ-JKFIT

    Orbital Energies [Eh]
    ---------------------

    Doubly Occupied:

       1A    -20.638297     2A    -20.619303     3A    -15.775685
       4A    -11.307330     5A    -11.238681     6A     -1.559044
       7A     -1.366223     8A     -1.060954     9A     -0.917826
      10A     -0.867791    11A     -0.725934    12A     -0.695482
      13A     -0.694779    14A     -0.628571    15A     -0.587635
      16A     -0.565563    17A     -0.539658    18A     -0.525360
      19A     -0.475812    20A     -0.439543

  @DF-RHF Final Energy:  -282.80030114918281

   => Energetics <=

    Nuclear Repulsion Energy =            172.9895916627496888
    One-Electron Energy =                -729.1208419731121921
    Two-Electron Energy =                 273.3309491611796602
    Total Energy =                       -282.8003011491828147
  Basis Set: (AUG-CC-PVTZ AUX)
    Blend: AUG-CC-PVTZ-RI
    Molecular point group: c1

    Geometry (in Angstrom), charge = 0, multiplicity = 1:

       Center              X                  Y                   Z               Mass
    ------------   -----------------  -----------------  -----------------  -----------------
         O           -0.030369596171    -0.341535228238     0.000122517769    15.994914619570
         O           -2.181244596171    -0.301929228238    -0.000299482231    15.994914619570
         N           -1.220032596171     0.421069771762     0.000143517769    14.003074004430
         C            1.185835803829     0.620088271762     0.000022017769    12.000000000000
         C            2.339499403829    -0.319122228238     0.000037517769    12.000000000000
         H            1.063531403829     1.193695771762    -0.889447482231     1.007825032230
         H            1.063593403829     1.193797771762     0.889434517769     1.007825032230
         H            3.239436403829     0.302170771762    -0.000032482231     1.007825032230
         H            2.354711403829    -0.955675228238     0.886906517769     1.007825032230
         H            2.354647403829    -0.955783228238    -0.886755482231     1.007825032230

  Basis Set: AUG-CC-PVTZ
    Blend: AUG-CC-PVTZ
  Basis Set: (AUG-CC-PVTZ AUX)
    Blend: AUG-CC-PVTZ-JKFIT
	 Reference Energy          =    -282.8003011491828147 [Eh]
	 Singles Energy            =      -0.0000000000000000 [Eh]
	 Same-Spin Energy          =      -0.2731555708238071 [Eh]
	 Opposite-Spin Energy      =      -0.8617023235882773 [Eh]
	 Correlation Energy        =      -1.1348578944120844 [Eh]
	 Total Energy              =    -283.9351590435949220 [Eh]

	 ================> DF-SCS-MP2 Energies <==================
	-----------------------------------------------------------
	 SCS Same-Spin Scale       =       0.3333333333333333 [-]
	 SCS Opposite-Spin Scale   =       1.2000000000000000 [-]
	 SCS Same-Spin Energy      =      -0.0910518569412690 [Eh]
	 SCS Opposite-Spin Energy  =      -1.0340427883059327 [Eh]
	 SCS Correlation Energy    =      -1.1250946452472017 [Eh]
	 SCS Total Energy          =    -283.9253957944300168 [Eh]
	-----------------------------------------------------------

  Dipole Moment: [D]
     X:     2.9211      Y:     1.1670      Z:     0.0000     Total:     3.1456

*** Psi4 exiting successfully. Buy a developer a beer!
