                               Psi4 1.3.2 release

  ==> Input File <==

--------------------------------------------------------------------------
#psi4
#
memory 32 gb

molecule  {
0 1
  O       -0.1275995    -0.3615457     0.0001206
  O       -2.2943480    -0.3022200    -0.0003020
  N       -1.3331360     0.4207790     0.0001410
  C        0.9942900     0.5577750     0.0000260
  C        2.2263960    -0.3194130     0.0000350
  H        0.9504280     1.1934050    -0.8894500
  H        0.9504900     1.1935070     0.8894320
  H        3.1263330     0.3018800    -0.0000350
  H        2.2416080    -0.9559660     0.8869040
  H        2.2415440    -0.9560740    -0.8867580
units angstrom
no_reorient  #important for SAPT in psi4, default
symmetry c1  #important for SAPT in psi4, default
}

set PROPERTIES_ORIGIN ["COM"]
properties('MP2/aug-cc-pvtz', properties = ['dipole'])
--------------------------------------------------------------------------

    Molecular point group: c1
  Charge       = 0
  Multiplicity = 1
  Basis Set: AUG-CC-PVTZ
    Blend: AUG-CC-PVTZ
  Basis Set: (AUG-CC-PVTZ AUX)
    Blend: AUG-CC-PVTZ-JKFIT

    Orbital Energies [Eh]
    ---------------------

    Doubly Occupied:

       1A    -20.654139     2A    -20.627617     3A    -15.788007
       4A    -11.300716     5A    -11.233346     6A     -1.569075
       7A     -1.389216     8A     -1.048687     9A     -0.930844
      10A     -0.860334    11A     -0.739449    12A     -0.703901
      13A     -0.695045    14A     -0.623727    15A     -0.591997
      16A     -0.555449    17A     -0.537411    18A     -0.536137
      19A     -0.471696    20A     -0.447622

  @DF-RHF Final Energy:  -282.80656589908244

   => Energetics <=

    Nuclear Repulsion Energy =            173.8444493715264514
    One-Electron Energy =                -730.6931979501795240
    Two-Electron Energy =                 274.0421826795706011
    Total Energy =                       -282.8065658990824431
  Basis Set: (AUG-CC-PVTZ AUX)
    Blend: AUG-CC-PVTZ-RI
    Molecular point group: c1

    Geometry (in Angstrom), charge = 0, multiplicity = 1:

       Center              X                  Y                   Z               Mass
    ------------   -----------------  -----------------  -----------------  -----------------
         O           -0.005334494953    -0.347131827205     0.000121950308    15.994914619570
         O           -2.172082994953    -0.287806127205    -0.000300649692    15.994914619570
         N           -1.210870994953     0.435192872795     0.000142350308    14.003074004430
         C            1.116555005047     0.572188872795     0.000027350308    12.000000000000
         C            2.348661005047    -0.304999127205     0.000036350308    12.000000000000
         H            1.072693005047     1.207818872795    -0.889448649692     1.007825032230
         H            1.072755005047     1.207920872795     0.889433350308     1.007825032230
         H            3.248598005047     0.316293872795    -0.000033649692     1.007825032230
         H            2.363873005047    -0.941552127205     0.886905350308     1.007825032230
         H            2.363809005047    -0.941660127205    -0.886756649692     1.007825032230

  Basis Set: AUG-CC-PVTZ
    Blend: AUG-CC-PVTZ
  Basis Set: (AUG-CC-PVTZ AUX)
    Blend: AUG-CC-PVTZ-JKFIT
	 Reference Energy          =    -282.8065658990824431 [Eh]
	 Singles Energy            =      -0.0000000000000000 [Eh]
	 Same-Spin Energy          =      -0.2729875868762635 [Eh]
	 Opposite-Spin Energy      =      -0.8614556302497116 [Eh]
	 Correlation Energy        =      -1.1344432171259751 [Eh]
	 Total Energy              =    -283.9410091162084200 [Eh]

	 ================> DF-SCS-MP2 Energies <==================
	-----------------------------------------------------------
	 SCS Same-Spin Scale       =       0.3333333333333333 [-]
	 SCS Opposite-Spin Scale   =       1.2000000000000000 [-]
	 SCS Same-Spin Energy      =      -0.0909958622920878 [Eh]
	 SCS Opposite-Spin Energy  =      -1.0337467562996538 [Eh]
	 SCS Correlation Energy    =      -1.1247426185917417 [Eh]
	 SCS Total Energy          =    -283.9313085176742106 [Eh]
	-----------------------------------------------------------

  Dipole Moment: [D]
     X:     2.2739      Y:     1.0507      Z:     0.0000     Total:     2.5050

*** Psi4 exiting successfully. Buy a developer a beer!
