                               Psi4 1.3.2 release

  ==> Input File <==

--------------------------------------------------------------------------
#psi4
#
memory 32 gb

molecule  {
0 1
  O       -0.2312741    -0.2179693     0.0001157
  O       -2.2943480    -0.3022200    -0.0003020
  N       -1.3331360     0.4207790     0.0001410
  C        0.9942900     0.5577750     0.0000260
  C        2.2263960    -0.3194130     0.0000350
  H        0.9504280     1.1934050    -0.8894500
  H        0.9504900     1.1935070     0.8894320
  H        3.1263330     0.3018800    -0.0000350
  H        2.2416080    -0.9559660     0.8869040
  H        2.2415440    -0.9560740    -0.8867580
units angstrom
no_reorient  #important for SAPT in psi4, default
symmetry c1  #important for SAPT in psi4, default
}

set PROPERTIES_ORIGIN ["COM"]
properties('MP2/aug-cc-pvtz', properties = ['dipole'])
--------------------------------------------------------------------------

    Molecular point group: c1
  Charge       = 0
  Multiplicity = 1
  Basis Set: AUG-CC-PVTZ
    Blend: AUG-CC-PVTZ
  Basis Set: (AUG-CC-PVTZ AUX)
    Blend: AUG-CC-PVTZ-JKFIT

    Orbital Energies [Eh]
    ---------------------

    Doubly Occupied:

       1A    -20.644472     2A    -20.611168     3A    -15.764900
       4A    -11.317301     5A    -11.247817     6A     -1.600056
       7A     -1.415234     8A     -1.078211     9A     -0.940358
      10A     -0.864934    11A     -0.746770    12A     -0.724877
      13A     -0.716415    14A     -0.632663    15A     -0.586979
      16A     -0.572121    17A     -0.542119    18A     -0.531121
      19A     -0.469514    20A     -0.438998

  @DF-RHF Final Energy:  -282.81220153292065

   => Energetics <=

    Nuclear Repulsion Energy =            176.7148315534488745
    One-Electron Energy =                -736.1620118065137603
    Two-Electron Energy =                 276.6349787201442041
    Total Energy =                       -282.8122015329206533
  Basis Set: (AUG-CC-PVTZ AUX)
    Blend: AUG-CC-PVTZ-RI
    Molecular point group: c1

    Geometry (in Angstrom), charge = 0, multiplicity = 1:

       Center              X                  Y                   Z               Mass
    ------------   -----------------  -----------------  -----------------  -----------------
         O           -0.086908314654    -0.234162253493     0.000118094863    15.994914619570
         O           -2.149982214654    -0.318412953493    -0.000299605137    15.994914619570
         N           -1.188770214654     0.404586046507     0.000143394863    14.003074004430
         C            1.138655785346     0.541582046507     0.000028394863    12.000000000000
         C            2.370761785346    -0.335605953493     0.000037394863    12.000000000000
         H            1.094793785346     1.177212046507    -0.889447605137     1.007825032230
         H            1.094855785346     1.177314046507     0.889434394863     1.007825032230
         H            3.270698785346     0.285687046507    -0.000032605137     1.007825032230
         H            2.385973785346    -0.972158953493     0.886906394863     1.007825032230
         H            2.385909785346    -0.972266953493    -0.886755605137     1.007825032230

  Basis Set: AUG-CC-PVTZ
    Blend: AUG-CC-PVTZ
  Basis Set: (AUG-CC-PVTZ AUX)
    Blend: AUG-CC-PVTZ-JKFIT
	 Reference Energy          =    -282.8122015329206533 [Eh]
	 Singles Energy            =      -0.0000000000000000 [Eh]
	 Same-Spin Energy          =      -0.2697633317817592 [Eh]
	 Opposite-Spin Energy      =      -0.8503943476186276 [Eh]
	 Correlation Energy        =      -1.1201576794003869 [Eh]
	 Total Energy              =    -283.9323592123210460 [Eh]

	 ================> DF-SCS-MP2 Energies <==================
	-----------------------------------------------------------
	 SCS Same-Spin Scale       =       0.3333333333333333 [-]
	 SCS Opposite-Spin Scale   =       1.2000000000000000 [-]
	 SCS Same-Spin Energy      =      -0.0899211105939197 [Eh]
	 SCS Opposite-Spin Energy  =      -1.0204732171423532 [Eh]
	 SCS Correlation Energy    =      -1.1103943277362729 [Eh]
	 SCS Total Energy          =    -283.9225958606569407 [Eh]
	-----------------------------------------------------------

  Dipole Moment: [D]
     X:     3.8186      Y:     0.8536      Z:     0.0001     Total:     3.9128

*** Psi4 exiting successfully. Buy a developer a beer!
