                               Psi4 1.4a3.dev225

  ==> Input File <==

--------------------------------------------------------------------------
#psi4
#
memory 32 gb

molecule  {
0 1
  O       -0.1930120     0.3539830    -0.5033360
  O       -2.2078060    -0.3013300    -0.0972570
  N       -1.2013971    -0.0614411     0.4785792
  C        1.0587430     0.5999510     0.1805450
  C        2.0021990    -0.5671560    -0.0255890
  H        1.4499140     1.5239110    -0.2520100
  H        0.8435940     0.7677230     1.2401610
  H        2.9727220    -0.3569890     0.4340390
  H        1.5904030    -1.4715490     0.4285410
  H        2.1535430    -0.7500910    -1.0915870
units angstrom
no_reorient  #important for SAPT in psi4, default
symmetry c1  #important for SAPT in psi4, default
}

set PROPERTIES_ORIGIN ["COM"]
properties('MP2/aug-cc-pvtz', properties = ['dipole'])
--------------------------------------------------------------------------

    Molecular point group: c1
  Charge       = 0
  Multiplicity = 1
  Basis Set: AUG-CC-PVTZ
    Blend: AUG-CC-PVTZ
  Basis Set: (AUG-CC-PVTZ AUX)
    Blend: AUG-CC-PVTZ-JKFIT

    Orbital Energies [Eh]
    ---------------------

    Doubly Occupied:

       1A    -20.661051     2A    -20.617912     3A    -15.792523
       4A    -11.295841     5A    -11.230193     6A     -1.584627
       7A     -1.379917     8A     -1.039564     9A     -0.939384
      10A     -0.854948    11A     -0.739702    12A     -0.716780
      13A     -0.674997    14A     -0.626588    15A     -0.598629
      16A     -0.574655    17A     -0.538249    18A     -0.515601
      19A     -0.466022    20A     -0.446269

  @DF-RHF Final Energy:  -282.80647644111201

   => Energetics <=

    Nuclear Repulsion Energy =            174.7661588029039876
    One-Electron Energy =                -732.5583649895791041
    Two-Electron Energy =                 274.9857297455631056
    Total Energy =                       -282.8064764411120109
  Basis Set: (AUG-CC-PVTZ AUX)
    Blend: AUG-CC-PVTZ-RI
    Molecular point group: c1

    Geometry (in Angstrom), charge = 0, multiplicity = 1:

       Center              X                  Y                   Z               Mass
    ------------   -----------------  -----------------  -----------------  -----------------
         O           -0.067570282514     0.352835287137    -0.499600295645    15.994914619570
         O           -2.082364282514    -0.302477712863    -0.093521295645    15.994914619570
         N           -1.075955382514    -0.062588812863     0.482314904355    14.003074004430
         C            1.184184717486     0.598803287137     0.184280704355    12.000000000000
         C            2.127640717486    -0.568303712863    -0.021853295645    12.000000000000
         H            1.575355717486     1.522763287137    -0.248274295645     1.007825032230
         H            0.969035717486     0.766575287137     1.243896704355     1.007825032230
         H            3.098163717486    -0.358136712863     0.437774704355     1.007825032230
         H            1.715844717486    -1.472696712863     0.432276704355     1.007825032230
         H            2.278984717486    -0.751238712863    -1.087851295645     1.007825032230

  Basis Set: AUG-CC-PVTZ
    Blend: AUG-CC-PVTZ
  Basis Set: (AUG-CC-PVTZ AUX)
    Blend: AUG-CC-PVTZ-JKFIT
	 Reference Energy          =    -282.8064764411120109 [Eh]
	 Singles Energy            =      -0.0000000000000000 [Eh]
	 Same-Spin Energy          =      -0.2734307319554165 [Eh]
	 Opposite-Spin Energy      =      -0.8619538773884586 [Eh]
	 Correlation Energy        =      -1.1353846093438751 [Eh]
	 Total Energy              =    -283.9418610504558842 [Eh]

	 ================> DF-SCS-MP2 Energies <==================
	-----------------------------------------------------------
	 SCS Same-Spin Scale       =       0.3333333333333333 [-]
	 SCS Opposite-Spin Scale   =       1.2000000000000000 [-]
	 SCS Same-Spin Energy      =      -0.0911435773184721 [Eh]
	 SCS Opposite-Spin Energy  =      -1.0343446528661504 [Eh]
	 SCS Correlation Energy    =      -1.1254882301846225 [Eh]
	 SCS Total Energy          =    -283.9319646712966119 [Eh]
	-----------------------------------------------------------

  Dipole Moment: [D]
     X:     2.0262      Y:     0.2750      Z:     0.8664     Total:     2.2208

*** Psi4 exiting successfully. Buy a developer a beer!
