                               Psi4 1.3.2 release

  ==> Input File <==

--------------------------------------------------------------------------
#psi4
#
memory 32 gb

molecule  {
0 1
  O       -0.1268040    -0.3614879    -0.0434540
  O       -2.2943480    -0.3022200    -0.0003020
  N       -1.3331360     0.4207790     0.0001410
  C        0.9942900     0.5577750     0.0000260
  C        2.2263960    -0.3194130     0.0000350
  H        0.9504280     1.1934050    -0.8894500
  H        0.9504900     1.1935070     0.8894320
  H        3.1263330     0.3018800    -0.0000350
  H        2.2416080    -0.9559660     0.8869040
  H        2.2415440    -0.9560740    -0.8867580
units angstrom
no_reorient  #important for SAPT in psi4, default
symmetry c1  #important for SAPT in psi4, default
}

set PROPERTIES_ORIGIN ["COM"]
properties('MP2/aug-cc-pvtz', properties = ['dipole'])
--------------------------------------------------------------------------

    Molecular point group: c1
  Charge       = 0
  Multiplicity = 1
  Basis Set: AUG-CC-PVTZ
    Blend: AUG-CC-PVTZ
  Basis Set: (AUG-CC-PVTZ AUX)
    Blend: AUG-CC-PVTZ-JKFIT

    Orbital Energies [Eh]
    ---------------------

    Doubly Occupied:

       1A    -20.654447     2A    -20.627484     3A    -15.788167
       4A    -11.300608     5A    -11.233262     6A     -1.568990
       7A     -1.388976     8A     -1.048494     9A     -0.930906
      10A     -0.860242    11A     -0.739389    12A     -0.703878
      13A     -0.694814    14A     -0.623735    15A     -0.592067
      16A     -0.555423    17A     -0.537359    18A     -0.536118
      19A     -0.471548    20A     -0.447555

  @DF-RHF Final Energy:  -282.80621901215784

   => Energetics <=

    Nuclear Repulsion Energy =            173.8201309050943735
    One-Electron Energy =                -730.6457759913972723
    Two-Electron Energy =                 274.0194260741450307
    Total Energy =                       -282.8062190121578396
  Basis Set: (AUG-CC-PVTZ AUX)
    Blend: AUG-CC-PVTZ-RI
    Molecular point group: c1

    Geometry (in Angstrom), charge = 0, multiplicity = 1:

       Center              X                  Y                   Z               Mass
    ------------   -----------------  -----------------  -----------------  -----------------
         O           -0.004708575263    -0.347086348691    -0.034163656426    15.994914619570
         O           -2.172252575263    -0.287818448691     0.008988343574    15.994914619570
         N           -1.211040575263     0.435180551309     0.009431343574    14.003074004430
         C            1.116385424737     0.572176551309     0.009316343574    12.000000000000
         C            2.348491424737    -0.305011448691     0.009325343574    12.000000000000
         H            1.072523424737     1.207806551309    -0.880159656426     1.007825032230
         H            1.072585424737     1.207908551309     0.898722343574     1.007825032230
         H            3.248428424737     0.316281551309     0.009255343574     1.007825032230
         H            2.363703424737    -0.941564448691     0.896194343574     1.007825032230
         H            2.363639424737    -0.941672448691    -0.877467656426     1.007825032230

  Basis Set: AUG-CC-PVTZ
    Blend: AUG-CC-PVTZ
  Basis Set: (AUG-CC-PVTZ AUX)
    Blend: AUG-CC-PVTZ-JKFIT
	 Reference Energy          =    -282.8062190121578396 [Eh]
	 Singles Energy            =      -0.0000000000000000 [Eh]
	 Same-Spin Energy          =      -0.2730223584823902 [Eh]
	 Opposite-Spin Energy      =      -0.8615610890568912 [Eh]
	 Correlation Energy        =      -1.1345834475392813 [Eh]
	 Total Energy              =    -283.9408024596971245 [Eh]

	 ================> DF-SCS-MP2 Energies <==================
	-----------------------------------------------------------
	 SCS Same-Spin Scale       =       0.3333333333333333 [-]
	 SCS Opposite-Spin Scale   =       1.2000000000000000 [-]
	 SCS Same-Spin Energy      =      -0.0910074528274634 [Eh]
	 SCS Opposite-Spin Energy  =      -1.0338733068682695 [Eh]
	 SCS Correlation Energy    =      -1.1248807596957329 [Eh]
	 SCS Total Energy          =    -283.9310997718535532 [Eh]
	-----------------------------------------------------------

  Dipole Moment: [D]
     X:     2.2622      Y:     1.0511      Z:     0.0439     Total:     2.4949

*** Psi4 exiting successfully. Buy a developer a beer!
