                               Psi4 1.3.2 release

  ==> Input File <==

--------------------------------------------------------------------------
#psi4
#
memory 32 gb

molecule  {
0 1
  O       -0.1434730    -0.3418260     0.0001200
  O       -2.2943480    -0.3022200    -0.0003020
  N       -1.3590258     0.3787958     0.0001441
  C        0.9942900     0.5577750     0.0000260
  C        2.2263960    -0.3194130     0.0000350
  H        0.9504280     1.1934050    -0.8894500
  H        0.9504900     1.1935070     0.8894320
  H        3.1263330     0.3018800    -0.0000350
  H        2.2416080    -0.9559660     0.8869040
  H        2.2415440    -0.9560740    -0.8867580
units angstrom
no_reorient  #important for SAPT in psi4, default
symmetry c1  #important for SAPT in psi4, default
}

set PROPERTIES_ORIGIN ["COM"]
properties('MP2/aug-cc-pvtz', properties = ['dipole'])
--------------------------------------------------------------------------

    Molecular point group: c1
  Charge       = 0
  Multiplicity = 1
  Basis Set: AUG-CC-PVTZ
    Blend: AUG-CC-PVTZ
  Basis Set: (AUG-CC-PVTZ AUX)
    Blend: AUG-CC-PVTZ-JKFIT

    Orbital Energies [Eh]
    ---------------------

    Doubly Occupied:

       1A    -20.651165     2A    -20.620838     3A    -15.777683
       4A    -11.300554     5A    -11.233569     6A     -1.604628
       7A     -1.397211     8A     -1.050660     9A     -0.924664
      10A     -0.858813    11A     -0.751882    12A     -0.716088
      13A     -0.701763    14A     -0.635664    15A     -0.592242
      16A     -0.558604    17A     -0.539623    18A     -0.533791
      19A     -0.471192    20A     -0.434472

  @DF-RHF Final Energy:  -282.81617987476886

   => Energetics <=

    Nuclear Repulsion Energy =            175.0087421855132277
    One-Electron Energy =                -732.9396297356475998
    Two-Electron Energy =                 275.1147076753654801
    Total Energy =                       -282.8161798747688636
  Basis Set: (AUG-CC-PVTZ AUX)
    Blend: AUG-CC-PVTZ-RI
    Molecular point group: c1

    Geometry (in Angstrom), charge = 0, multiplicity = 1:

       Center              X                  Y                   Z               Mass
    ------------   -----------------  -----------------  -----------------  -----------------
         O           -0.012992409214    -0.323780625505     0.000120899666    15.994914619570
         O           -2.163867409214    -0.284174625505    -0.000301100334    15.994914619570
         N           -1.228545209214     0.396841174495     0.000144999666    14.003074004430
         C            1.124770590786     0.575820374495     0.000026899666    12.000000000000
         C            2.356876590786    -0.301367625505     0.000035899666    12.000000000000
         H            1.080908590786     1.211450374495    -0.889449100334     1.007825032230
         H            1.080970590786     1.211552374495     0.889432899666     1.007825032230
         H            3.256813590786     0.319925374495    -0.000034100334     1.007825032230
         H            2.372088590786    -0.937920625505     0.886904899666     1.007825032230
         H            2.372024590786    -0.938028625505    -0.886757100334     1.007825032230

  Basis Set: AUG-CC-PVTZ
    Blend: AUG-CC-PVTZ
  Basis Set: (AUG-CC-PVTZ AUX)
    Blend: AUG-CC-PVTZ-JKFIT
	 Reference Energy          =    -282.8161798747688636 [Eh]
	 Singles Energy            =      -0.0000000000000000 [Eh]
	 Same-Spin Energy          =      -0.2706266527542712 [Eh]
	 Opposite-Spin Energy      =      -0.8545185571961751 [Eh]
	 Correlation Energy        =      -1.1251452099504462 [Eh]
	 Total Energy              =    -283.9413250847193240 [Eh]

	 ================> DF-SCS-MP2 Energies <==================
	-----------------------------------------------------------
	 SCS Same-Spin Scale       =       0.3333333333333333 [-]
	 SCS Opposite-Spin Scale   =       1.2000000000000000 [-]
	 SCS Same-Spin Energy      =      -0.0902088842514237 [Eh]
	 SCS Opposite-Spin Energy  =      -1.0254222686354100 [Eh]
	 SCS Correlation Energy    =      -1.1156311528868337 [Eh]
	 SCS Total Energy          =    -283.9318110276556695 [Eh]
	-----------------------------------------------------------

  Dipole Moment: [D]
     X:     2.2471      Y:     0.9884      Z:    -0.0000     Total:     2.4549

*** Psi4 exiting successfully. Buy a developer a beer!
