                               Psi4 1.3.2 release

  ==> Input File <==

--------------------------------------------------------------------------
#psi4
#
memory 32 gb

molecule  {
0 1
  O       -0.1434730    -0.3418260     0.0001200
  O       -2.2943480    -0.3022200    -0.0003020
  N       -1.4929690     0.3005567     0.0000673
  C        0.9942900     0.5577750     0.0000260
  C        2.2263960    -0.3194130     0.0000350
  H        0.9504280     1.1934050    -0.8894500
  H        0.9504900     1.1935070     0.8894320
  H        3.1263330     0.3018800    -0.0000350
  H        2.2416080    -0.9559660     0.8869040
  H        2.2415440    -0.9560740    -0.8867580
units angstrom
no_reorient  #important for SAPT in psi4, default
symmetry c1  #important for SAPT in psi4, default
}

set PROPERTIES_ORIGIN ["COM"]
properties('MP2/aug-cc-pvtz', properties = ['dipole'])
--------------------------------------------------------------------------

    Molecular point group: c1
  Charge       = 0
  Multiplicity = 1
  Basis Set: AUG-CC-PVTZ
    Blend: AUG-CC-PVTZ
  Basis Set: (AUG-CC-PVTZ AUX)
    Blend: AUG-CC-PVTZ-JKFIT

    Orbital Energies [Eh]
    ---------------------

    Doubly Occupied:

       1A    -20.688251     2A    -20.563862     3A    -15.770857
       4A    -11.280077     5A    -11.218573     6A     -1.779259
       7A     -1.351743     8A     -1.028031     9A     -0.919110
      10A     -0.855996    11A     -0.791565    12A     -0.775264
      13A     -0.772385    14A     -0.643624    15A     -0.578472
      16A     -0.548514    17A     -0.525772    18A     -0.514465
      19A     -0.446210    20A     -0.385733

  @DF-RHF Final Energy:  -282.76230608087388

   => Energetics <=

    Nuclear Repulsion Energy =            176.8672623141685563
    One-Electron Energy =                -736.3836167889098760
    Two-Electron Energy =                 276.7540483938674356
    Total Energy =                       -282.7623060808738842
  Basis Set: (AUG-CC-PVTZ AUX)
    Blend: AUG-CC-PVTZ-RI
    Molecular point group: c1

    Geometry (in Angstrom), charge = 0, multiplicity = 1:

       Center              X                  Y                   Z               Mass
    ------------   -----------------  -----------------  -----------------  -----------------
         O            0.012005136259    -0.309179022288     0.000135232693    15.994914619570
         O           -2.138869863741    -0.269573022288    -0.000286767307    15.994914619570
         N           -1.337490863741     0.333203677712     0.000082532693    14.003074004430
         C            1.149768136259     0.590421977712     0.000041232693    12.000000000000
         C            2.381874136259    -0.286766022288     0.000050232693    12.000000000000
         H            1.105906136259     1.226051977712    -0.889434767307     1.007825032230
         H            1.105968136259     1.226153977712     0.889447232693     1.007825032230
         H            3.281811136259     0.334526977712    -0.000019767307     1.007825032230
         H            2.397086136259    -0.923319022288     0.886919232693     1.007825032230
         H            2.397022136259    -0.923427022288    -0.886742767307     1.007825032230

  Basis Set: AUG-CC-PVTZ
    Blend: AUG-CC-PVTZ
  Basis Set: (AUG-CC-PVTZ AUX)
    Blend: AUG-CC-PVTZ-JKFIT
	 Reference Energy          =    -282.7623060808738842 [Eh]
	 Singles Energy            =      -0.0000000000000000 [Eh]
	 Same-Spin Energy          =      -0.2680268621284326 [Eh]
	 Opposite-Spin Energy      =      -0.8455349133666692 [Eh]
	 Correlation Energy        =      -1.1135617754951017 [Eh]
	 Total Energy              =    -283.8758678563689841 [Eh]

	 ================> DF-SCS-MP2 Energies <==================
	-----------------------------------------------------------
	 SCS Same-Spin Scale       =       0.3333333333333333 [-]
	 SCS Opposite-Spin Scale   =       1.2000000000000000 [-]
	 SCS Same-Spin Energy      =      -0.0893422873761442 [Eh]
	 SCS Opposite-Spin Energy  =      -1.0146418960400030 [Eh]
	 SCS Correlation Energy    =      -1.1039841834161472 [Eh]
	 SCS Total Energy          =    -283.8662902642900576 [Eh]
	-----------------------------------------------------------

  Dipole Moment: [D]
     X:     0.2859      Y:     0.9124      Z:    -0.0003     Total:     0.9561

*** Psi4 exiting successfully. Buy a developer a beer!
