                               Psi4 1.3.2 release

  ==> Input File <==

--------------------------------------------------------------------------
#psi4
#
memory 32 gb

molecule  {
0 1
  O       -0.1434730    -0.3418260     0.0001200
  O       -2.2943480    -0.3022200    -0.0003020
  N       -1.3462641     0.3999004     0.0001426
  C        0.9942900     0.5577750     0.0000260
  C        2.2263960    -0.3194130     0.0000350
  H        0.9504280     1.1934050    -0.8894500
  H        0.9504900     1.1935070     0.8894320
  H        3.1263330     0.3018800    -0.0000350
  H        2.2416080    -0.9559660     0.8869040
  H        2.2415440    -0.9560740    -0.8867580
units angstrom
no_reorient  #important for SAPT in psi4, default
symmetry c1  #important for SAPT in psi4, default
}

set PROPERTIES_ORIGIN ["COM"]
properties('MP2/aug-cc-pvtz', properties = ['dipole'])
--------------------------------------------------------------------------

    Molecular point group: c1
  Charge       = 0
  Multiplicity = 1
  Basis Set: AUG-CC-PVTZ
    Blend: AUG-CC-PVTZ
  Basis Set: (AUG-CC-PVTZ AUX)
    Blend: AUG-CC-PVTZ-JKFIT

    Orbital Energies [Eh]
    ---------------------

    Doubly Occupied:

       1A    -20.649826     2A    -20.625454     3A    -15.781327
       4A    -11.301656     5A    -11.234437     6A     -1.586873
       7A     -1.396116     8A     -1.051563     9A     -0.927428
      10A     -0.860289    11A     -0.746296    12A     -0.710135
      13A     -0.699585    14A     -0.629937    15A     -0.591670
      16A     -0.558400    17A     -0.539107    18A     -0.534948
      19A     -0.471681    20A     -0.441556

  @DF-RHF Final Energy:  -282.81388766032421

   => Energetics <=

    Nuclear Repulsion Energy =            174.6094612046169630
    One-Electron Energy =                -732.1701298547197894
    Two-Electron Energy =                 274.7467809897785855
    Total Energy =                       -282.8138876603242124
  Basis Set: (AUG-CC-PVTZ AUX)
    Blend: AUG-CC-PVTZ-RI
    Molecular point group: c1

    Geometry (in Angstrom), charge = 0, multiplicity = 1:

       Center              X                  Y                   Z               Mass
    ------------   -----------------  -----------------  -----------------  -----------------
         O           -0.015374099184    -0.327719333840     0.000121179608    15.994914619570
         O           -2.166249099184    -0.288113333840    -0.000300820392    15.994914619570
         N           -1.218165199184     0.414007066160     0.000143779608    14.003074004430
         C            1.122388900816     0.571881666160     0.000027179608    12.000000000000
         C            2.354494900816    -0.305306333840     0.000036179608    12.000000000000
         H            1.078526900816     1.207511666160    -0.889448820392     1.007825032230
         H            1.078588900816     1.207613666160     0.889433179608     1.007825032230
         H            3.254431900816     0.315986666160    -0.000033820392     1.007825032230
         H            2.369706900816    -0.941859333840     0.886905179608     1.007825032230
         H            2.369642900816    -0.941967333840    -0.886756820392     1.007825032230

  Basis Set: AUG-CC-PVTZ
    Blend: AUG-CC-PVTZ
  Basis Set: (AUG-CC-PVTZ AUX)
    Blend: AUG-CC-PVTZ-JKFIT
	 Reference Energy          =    -282.8138876603242124 [Eh]
	 Singles Energy            =      -0.0000000000000000 [Eh]
	 Same-Spin Energy          =      -0.2714908393679136 [Eh]
	 Opposite-Spin Energy      =      -0.8570083194824677 [Eh]
	 Correlation Energy        =      -1.1284991588503812 [Eh]
	 Total Energy              =    -283.9423868191746010 [Eh]

	 ================> DF-SCS-MP2 Energies <==================
	-----------------------------------------------------------
	 SCS Same-Spin Scale       =       0.3333333333333333 [-]
	 SCS Opposite-Spin Scale   =       1.2000000000000000 [-]
	 SCS Same-Spin Energy      =      -0.0904969464559712 [Eh]
	 SCS Opposite-Spin Energy  =      -1.0284099833789613 [Eh]
	 SCS Correlation Energy    =      -1.1189069298349326 [Eh]
	 SCS Total Energy          =    -283.9327945901591193 [Eh]
	-----------------------------------------------------------

  Dipole Moment: [D]
     X:     2.3767      Y:     1.0050      Z:     0.0000     Total:     2.5804

*** Psi4 exiting successfully. Buy a developer a beer!
