                               Psi4 1.3.2 release

  ==> Input File <==

--------------------------------------------------------------------------
#psi4
#
memory 32 gb

molecule  {
0 1
  O       -0.1434730    -0.3418260     0.0001200
  O       -2.2943480    -0.3022200    -0.0003020
  N       -1.4130525     0.3606679     0.0001042
  C        0.9942900     0.5577750     0.0000260
  C        2.2263960    -0.3194130     0.0000350
  H        0.9504280     1.1934050    -0.8894500
  H        0.9504900     1.1935070     0.8894320
  H        3.1263330     0.3018800    -0.0000350
  H        2.2416080    -0.9559660     0.8869040
  H        2.2415440    -0.9560740    -0.8867580
units angstrom
no_reorient  #important for SAPT in psi4, default
symmetry c1  #important for SAPT in psi4, default
}

set PROPERTIES_ORIGIN ["COM"]
properties('MP2/aug-cc-pvtz', properties = ['dipole'])
--------------------------------------------------------------------------

    Molecular point group: c1
  Charge       = 0
  Multiplicity = 1
  Basis Set: AUG-CC-PVTZ
    Blend: AUG-CC-PVTZ
  Basis Set: (AUG-CC-PVTZ AUX)
    Blend: AUG-CC-PVTZ-JKFIT

    Orbital Energies [Eh]
    ---------------------

    Doubly Occupied:

       1A    -20.663674     2A    -20.601884     3A    -15.776004
       4A    -11.293440     5A    -11.228598     6A     -1.657400
       7A     -1.381536     8A     -1.041761     9A     -0.920535
      10A     -0.853665    11A     -0.763384    12A     -0.733978
      13A     -0.710949    14A     -0.646650    15A     -0.589840
      16A     -0.556391    17A     -0.536865    18A     -0.527665
      19A     -0.464230    20A     -0.418678

  @DF-RHF Final Energy:  -282.81154912743449

   => Energetics <=

    Nuclear Repulsion Energy =            175.3357833588867152
    One-Electron Energy =                -733.5604078344205163
    Two-Electron Energy =                 275.4130753480993121
    Total Energy =                       -282.8115491274344890
  Basis Set: (AUG-CC-PVTZ AUX)
    Blend: AUG-CC-PVTZ-RI
    Molecular point group: c1

    Geometry (in Angstrom), charge = 0, multiplicity = 1:

       Center              X                  Y                   Z               Mass
    ------------   -----------------  -----------------  -----------------  -----------------
         O           -0.002909516689    -0.320397452604     0.000128346121    15.994914619570
         O           -2.153784516689    -0.280791452604    -0.000293653879    15.994914619570
         N           -1.272489016689     0.382096447396     0.000112546121    14.003074004430
         C            1.134853483311     0.579203547396     0.000034346121    12.000000000000
         C            2.366959483311    -0.297984452604     0.000043346121    12.000000000000
         H            1.090991483311     1.214833547396    -0.889441653879     1.007825032230
         H            1.091053483311     1.214935547396     0.889440346121     1.007825032230
         H            3.266896483311     0.323308547396    -0.000026653879     1.007825032230
         H            2.382171483311    -0.934537452604     0.886912346121     1.007825032230
         H            2.382107483311    -0.934645452604    -0.886749653879     1.007825032230

  Basis Set: AUG-CC-PVTZ
    Blend: AUG-CC-PVTZ
  Basis Set: (AUG-CC-PVTZ AUX)
    Blend: AUG-CC-PVTZ-JKFIT
	 Reference Energy          =    -282.8115491274344890 [Eh]
	 Singles Energy            =      -0.0000000000000000 [Eh]
	 Same-Spin Energy          =      -0.2695980923990752 [Eh]
	 Opposite-Spin Energy      =      -0.8515539850292553 [Eh]
	 Correlation Energy        =      -1.1211520774283303 [Eh]
	 Total Energy              =    -283.9327012048628376 [Eh]

	 ================> DF-SCS-MP2 Energies <==================
	-----------------------------------------------------------
	 SCS Same-Spin Scale       =       0.3333333333333333 [-]
	 SCS Opposite-Spin Scale   =       1.2000000000000000 [-]
	 SCS Same-Spin Energy      =      -0.0898660307996917 [Eh]
	 SCS Opposite-Spin Energy  =      -1.0218647820351063 [Eh]
	 SCS Correlation Energy    =      -1.1117308128347980 [Eh]
	 SCS Total Energy          =    -283.9232799402693104 [Eh]
	-----------------------------------------------------------

  Dipole Moment: [D]
     X:     1.5445      Y:     0.9862      Z:    -0.0001     Total:     1.8325

*** Psi4 exiting successfully. Buy a developer a beer!
