                               Psi4 1.4a3.dev225

  ==> Input File <==

--------------------------------------------------------------------------
#psi4
#
memory 32 gb

molecule  {
0 1
  O       -0.1930120     0.3539830    -0.5033360
  O       -2.2078060    -0.3013300    -0.0972570
  N       -1.1670400    -0.0472870     0.4451240
  C        1.0414469     0.5965523     0.1710955
  C        2.0021990    -0.5671560    -0.0255890
  H        1.4499140     1.5239110    -0.2520100
  H        0.8435940     0.7677230     1.2401610
  H        2.9727220    -0.3569890     0.4340390
  H        1.5904030    -1.4715490     0.4285410
  H        2.1535430    -0.7500910    -1.0915870
units angstrom
no_reorient  #important for SAPT in psi4, default
symmetry c1  #important for SAPT in psi4, default
}

set PROPERTIES_ORIGIN ["COM"]
properties('MP2/aug-cc-pvtz', properties = ['dipole'])
--------------------------------------------------------------------------

    Molecular point group: c1
  Charge       = 0
  Multiplicity = 1
  Basis Set: AUG-CC-PVTZ
    Blend: AUG-CC-PVTZ
  Basis Set: (AUG-CC-PVTZ AUX)
    Blend: AUG-CC-PVTZ-JKFIT

    Orbital Energies [Eh]
    ---------------------

    Doubly Occupied:

       1A    -20.651266     2A    -20.631208     3A    -15.788870
       4A    -11.300802     5A    -11.233032     6A     -1.574442
       7A     -1.400817     8A     -1.045775     9A     -0.942960
      10A     -0.857742    11A     -0.742136    12A     -0.718438
      13A     -0.679663    14A     -0.623520    15A     -0.598108
      16A     -0.575197    17A     -0.543522    18A     -0.515686
      19A     -0.468341    20A     -0.451487

  @DF-RHF Final Energy:  -282.80905352317507

   => Energetics <=

    Nuclear Repulsion Energy =            175.6804131459486484
    One-Electron Energy =                -734.2929098884295627
    Two-Electron Energy =                 275.8034432193059047
    Total Energy =                       -282.8090535231750664
  Basis Set: (AUG-CC-PVTZ AUX)
    Blend: AUG-CC-PVTZ-RI
    Molecular point group: c1

    Geometry (in Angstrom), charge = 0, multiplicity = 1:

       Center              X                  Y                   Z               Mass
    ------------   -----------------  -----------------  -----------------  -----------------
         O           -0.071216083110     0.350737296278    -0.491845345475    15.994914619570
         O           -2.086010083110    -0.304575703722    -0.085766345475    15.994914619570
         N           -1.045244083110    -0.050532703722     0.456614654525    14.003074004430
         C            1.163242816890     0.593306596278     0.182586154525    12.000000000000
         C            2.123994916890    -0.570401703722    -0.014098345475    12.000000000000
         H            1.571709916890     1.520665296278    -0.240519345475     1.007825032230
         H            0.965389916890     0.764477296278     1.251651654525     1.007825032230
         H            3.094517916890    -0.360234703722     0.445529654525     1.007825032230
         H            1.712198916890    -1.474794703722     0.440031654525     1.007825032230
         H            2.275338916890    -0.753336703722    -1.080096345475     1.007825032230

  Basis Set: AUG-CC-PVTZ
    Blend: AUG-CC-PVTZ
  Basis Set: (AUG-CC-PVTZ AUX)
    Blend: AUG-CC-PVTZ-JKFIT
	 Reference Energy          =    -282.8090535231750664 [Eh]
	 Singles Energy            =      -0.0000000000000000 [Eh]
	 Same-Spin Energy          =      -0.2731575146678838 [Eh]
	 Opposite-Spin Energy      =      -0.8602750833745676 [Eh]
	 Correlation Energy        =      -1.1334325980424516 [Eh]
	 Total Energy              =    -283.9424861212175415 [Eh]

	 ================> DF-SCS-MP2 Energies <==================
	-----------------------------------------------------------
	 SCS Same-Spin Scale       =       0.3333333333333333 [-]
	 SCS Opposite-Spin Scale   =       1.2000000000000000 [-]
	 SCS Same-Spin Energy      =      -0.0910525048892946 [Eh]
	 SCS Opposite-Spin Energy  =      -1.0323301000494811 [Eh]
	 SCS Correlation Energy    =      -1.1233826049387756 [Eh]
	 SCS Total Energy          =    -283.9324361281138636 [Eh]
	-----------------------------------------------------------

  Dipole Moment: [D]
     X:     2.4159      Y:     0.3914      Z:     0.7238     Total:     2.5522

*** Psi4 exiting successfully. Buy a developer a beer!
