                               Psi4 1.3.2 release

  ==> Input File <==

--------------------------------------------------------------------------
#psi4
#
memory 32 gb

molecule  {
0 1
  O       -0.0702762    -0.2132947     0.0001790
  O       -2.2943480    -0.3022200    -0.0003020
  N       -1.3331360     0.4207790     0.0001410
  C        0.9942900     0.5577750     0.0000260
  C        2.2263960    -0.3194130     0.0000350
  H        0.9504280     1.1934050    -0.8894500
  H        0.9504900     1.1935070     0.8894320
  H        3.1263330     0.3018800    -0.0000350
  H        2.2416080    -0.9559660     0.8869040
  H        2.2415440    -0.9560740    -0.8867580
units angstrom
no_reorient  #important for SAPT in psi4, default
symmetry c1  #important for SAPT in psi4, default
}

set PROPERTIES_ORIGIN ["COM"]
properties('MP2/aug-cc-pvtz', properties = ['dipole'])
--------------------------------------------------------------------------

    Molecular point group: c1
  Charge       = 0
  Multiplicity = 1
  Basis Set: AUG-CC-PVTZ
    Blend: AUG-CC-PVTZ
  Basis Set: (AUG-CC-PVTZ AUX)
    Blend: AUG-CC-PVTZ-JKFIT

    Orbital Energies [Eh]
    ---------------------

    Doubly Occupied:

       1A    -20.660369     2A    -20.628480     3A    -15.793133
       4A    -11.291069     5A    -11.232614     6A     -1.577643
       7A     -1.439807     8A     -1.063506     9A     -0.946408
      10A     -0.858555    11A     -0.759247    12A     -0.719638
      13A     -0.710522    14A     -0.625064    15A     -0.605056
      16A     -0.568929    17A     -0.546154    18A     -0.530931
      19A     -0.457105    20A     -0.439973

  @DF-RHF Final Energy:  -282.79592114049706

   => Energetics <=

    Nuclear Repulsion Energy =            176.1932900353780553
    One-Electron Energy =                -735.0700121722464928
    Two-Electron Energy =                 276.0808009963714085
    Total Energy =                       -282.7959211404970574
  Basis Set: (AUG-CC-PVTZ AUX)
    Blend: AUG-CC-PVTZ-RI
    Molecular point group: c1

    Geometry (in Angstrom), charge = 0, multiplicity = 1:

       Center              X                  Y                   Z               Mass
    ------------   -----------------  -----------------  -----------------  -----------------
         O            0.039768939628    -0.230484158978     0.000167900918    15.994914619570
         O           -2.184302860372    -0.319409458978    -0.000313099082    15.994914619570
         N           -1.223090860372     0.403589541022     0.000129900918    14.003074004430
         C            1.104335139628     0.540585541022     0.000014900918    12.000000000000
         C            2.336441139628    -0.336602458978     0.000023900918    12.000000000000
         H            1.060473139628     1.176215541022    -0.889461099082     1.007825032230
         H            1.060535139628     1.176317541022     0.889420900918     1.007825032230
         H            3.236378139628     0.284690541022    -0.000046099082     1.007825032230
         H            2.351653139628    -0.973155458978     0.886892900918     1.007825032230
         H            2.351589139628    -0.973263458978    -0.886769099082     1.007825032230

  Basis Set: AUG-CC-PVTZ
    Blend: AUG-CC-PVTZ
  Basis Set: (AUG-CC-PVTZ AUX)
    Blend: AUG-CC-PVTZ-JKFIT
	 Reference Energy          =    -282.7959211404970574 [Eh]
	 Singles Energy            =      -0.0000000000000000 [Eh]
	 Same-Spin Energy          =      -0.2727687864967644 [Eh]
	 Opposite-Spin Energy      =      -0.8574350759474960 [Eh]
	 Correlation Energy        =      -1.1302038624442603 [Eh]
	 Total Energy              =    -283.9261250029413191 [Eh]

	 ================> DF-SCS-MP2 Energies <==================
	-----------------------------------------------------------
	 SCS Same-Spin Scale       =       0.3333333333333333 [-]
	 SCS Opposite-Spin Scale   =       1.2000000000000000 [-]
	 SCS Same-Spin Energy      =      -0.0909229288322548 [Eh]
	 SCS Opposite-Spin Energy  =      -1.0289220911369952 [Eh]
	 SCS Correlation Energy    =      -1.1198450199692500 [Eh]
	 SCS Total Energy          =    -283.9157661604663190 [Eh]
	-----------------------------------------------------------

  Dipole Moment: [D]
     X:     2.1606      Y:     0.7108      Z:    -0.0001     Total:     2.2745

*** Psi4 exiting successfully. Buy a developer a beer!
