                               Psi4 1.3.2 release

  ==> Input File <==

--------------------------------------------------------------------------
#psi4
#
memory 32 gb

molecule  {
0 1
  O       -0.1434730    -0.3418260     0.0001200
  O       -2.2943480    -0.3022200    -0.0003020
  N       -1.3331360     0.4207790     0.0001410
  C        0.9158476     0.4957525     0.0000325
  C        2.2263960    -0.3194130     0.0000350
  H        0.9504280     1.1934050    -0.8894500
  H        0.9504900     1.1935070     0.8894320
  H        3.1263330     0.3018800    -0.0000350
  H        2.2416080    -0.9559660     0.8869040
  H        2.2415440    -0.9560740    -0.8867580
units angstrom
no_reorient  #important for SAPT in psi4, default
symmetry c1  #important for SAPT in psi4, default
}

set PROPERTIES_ORIGIN ["COM"]
properties('MP2/aug-cc-pvtz', properties = ['dipole'])
--------------------------------------------------------------------------

    Molecular point group: c1
  Charge       = 0
  Multiplicity = 1
  Basis Set: AUG-CC-PVTZ
    Blend: AUG-CC-PVTZ
  Basis Set: (AUG-CC-PVTZ AUX)
    Blend: AUG-CC-PVTZ-JKFIT

    Orbital Energies [Eh]
    ---------------------

    Doubly Occupied:

       1A    -20.659220     2A    -20.638378     3A    -15.794215
       4A    -11.301873     5A    -11.233158     6A     -1.584154
       7A     -1.427994     8A     -1.047045     9A     -0.942917
      10A     -0.858287    11A     -0.755690    12A     -0.713655
      13A     -0.708824    14A     -0.618532    15A     -0.604203
      16A     -0.568392    17A     -0.541935    18A     -0.518345
      19A     -0.456973    20A     -0.454190

  @DF-RHF Final Energy:  -282.80218296623195

   => Energetics <=

    Nuclear Repulsion Energy =            175.5791103233933086
    One-Electron Energy =                -733.9066247735170236
    Two-Electron Energy =                 275.5253314838918186
    Total Energy =                       -282.8021829662319533
  Basis Set: (AUG-CC-PVTZ AUX)
    Blend: AUG-CC-PVTZ-RI
    Molecular point group: c1

    Geometry (in Angstrom), charge = 0, multiplicity = 1:

       Center              X                  Y                   Z               Mass
    ------------   -----------------  -----------------  -----------------  -----------------
         O           -0.005278743104    -0.321696500275     0.000120438657    15.994914619570
         O           -2.156153743104    -0.282090500275    -0.000301561343    15.994914619570
         N           -1.194941743104     0.440908499725     0.000141438657    14.003074004430
         C            1.054041856896     0.515881999725     0.000032938657    12.000000000000
         C            2.364590256896    -0.299283500275     0.000035438657    12.000000000000
         H            1.088622256896     1.213534499725    -0.889449561343     1.007825032230
         H            1.088684256896     1.213636499725     0.889432438657     1.007825032230
         H            3.264527256896     0.322009499725    -0.000034561343     1.007825032230
         H            2.379802256896    -0.935836500275     0.886904438657     1.007825032230
         H            2.379738256896    -0.935944500275    -0.886757561343     1.007825032230

  Basis Set: AUG-CC-PVTZ
    Blend: AUG-CC-PVTZ
  Basis Set: (AUG-CC-PVTZ AUX)
    Blend: AUG-CC-PVTZ-JKFIT
	 Reference Energy          =    -282.8021829662319533 [Eh]
	 Singles Energy            =      -0.0000000000000000 [Eh]
	 Same-Spin Energy          =      -0.2723027664554895 [Eh]
	 Opposite-Spin Energy      =      -0.8585482891788021 [Eh]
	 Correlation Energy        =      -1.1308510556342917 [Eh]
	 Total Energy              =    -283.9330340218662627 [Eh]

	 ================> DF-SCS-MP2 Energies <==================
	-----------------------------------------------------------
	 SCS Same-Spin Scale       =       0.3333333333333333 [-]
	 SCS Opposite-Spin Scale   =       1.2000000000000000 [-]
	 SCS Same-Spin Energy      =      -0.0907675888184965 [Eh]
	 SCS Opposite-Spin Energy  =      -1.0302579470145625 [Eh]
	 SCS Correlation Energy    =      -1.1210255358330590 [Eh]
	 SCS Total Energy          =    -283.9232085020649947 [Eh]
	-----------------------------------------------------------

  Dipole Moment: [D]
     X:     2.0424      Y:     0.8295      Z:     0.0001     Total:     2.2045

*** Psi4 exiting successfully. Buy a developer a beer!
