                               Psi4 1.3.2 release

  ==> Input File <==

--------------------------------------------------------------------------
#psi4
#
memory 32 gb

molecule  {
0 1
  O       -0.1434730    -0.3418260     0.0001200
  O       -2.2943480    -0.3022200    -0.0003020
  N       -1.3057968     0.4618331     0.0001379
  C        0.9942900     0.5577750     0.0000260
  C        2.2263960    -0.3194130     0.0000350
  H        0.9504280     1.1934050    -0.8894500
  H        0.9504900     1.1935070     0.8894320
  H        3.1263330     0.3018800    -0.0000350
  H        2.2416080    -0.9559660     0.8869040
  H        2.2415440    -0.9560740    -0.8867580
units angstrom
no_reorient  #important for SAPT in psi4, default
symmetry c1  #important for SAPT in psi4, default
}

set PROPERTIES_ORIGIN ["COM"]
properties('MP2/aug-cc-pvtz', properties = ['dipole'])
--------------------------------------------------------------------------

    Molecular point group: c1
  Charge       = 0
  Multiplicity = 1
  Basis Set: AUG-CC-PVTZ
    Blend: AUG-CC-PVTZ
  Basis Set: (AUG-CC-PVTZ AUX)
    Blend: AUG-CC-PVTZ-JKFIT

    Orbital Energies [Eh]
    ---------------------

    Doubly Occupied:

       1A    -20.646291     2A    -20.638215     3A    -15.792032
       4A    -11.304747     5A    -11.236721     6A     -1.543723
       7A     -1.386900     8A     -1.054106     9A     -0.936644
      10A     -0.864999    11A     -0.730555    12A     -0.698022
      13A     -0.695506    14A     -0.613791    15A     -0.588493
      16A     -0.556463    17A     -0.537947    18A     -0.535482
      19A     -0.471147    20A     -0.460067

  @DF-RHF Final Energy:  -282.79609210093986

   => Energetics <=

    Nuclear Repulsion Energy =            173.5105690475472784
    One-Electron Energy =                -730.0296157394072907
    Two-Electron Energy =                 273.7229545909201534
    Total Energy =                       -282.7960921009398589
  Basis Set: (AUG-CC-PVTZ AUX)
    Blend: AUG-CC-PVTZ-RI
    Molecular point group: c1

    Geometry (in Angstrom), charge = 0, multiplicity = 1:

       Center              X                  Y                   Z               Mass
    ------------   -----------------  -----------------  -----------------  -----------------
         O           -0.022926428619    -0.339277706975     0.000122056759    15.994914619570
         O           -2.173801428619    -0.299671706975    -0.000299943241    15.994914619570
         N           -1.185250228619     0.464381393025     0.000139956759    14.003074004430
         C            1.114836571381     0.560323293025     0.000028056759    12.000000000000
         C            2.346942571381    -0.316864706975     0.000037056759    12.000000000000
         H            1.070974571381     1.195953293025    -0.889447943241     1.007825032230
         H            1.071036571381     1.196055293025     0.889434056759     1.007825032230
         H            3.246879571381     0.304428293025    -0.000032943241     1.007825032230
         H            2.362154571381    -0.953417706975     0.886906056759     1.007825032230
         H            2.362090571381    -0.953525706975    -0.886755943241     1.007825032230

  Basis Set: AUG-CC-PVTZ
    Blend: AUG-CC-PVTZ
  Basis Set: (AUG-CC-PVTZ AUX)
    Blend: AUG-CC-PVTZ-JKFIT
	 Reference Energy          =    -282.7960921009398589 [Eh]
	 Singles Energy            =      -0.0000000000000000 [Eh]
	 Same-Spin Energy          =      -0.2745983698174401 [Eh]
	 Opposite-Spin Energy      =      -0.8655154106202902 [Eh]
	 Correlation Energy        =      -1.1401137804377304 [Eh]
	 Total Energy              =    -283.9362058813775889 [Eh]

	 ================> DF-SCS-MP2 Energies <==================
	-----------------------------------------------------------
	 SCS Same-Spin Scale       =       0.3333333333333333 [-]
	 SCS Opposite-Spin Scale   =       1.2000000000000000 [-]
	 SCS Same-Spin Energy      =      -0.0915327899391467 [Eh]
	 SCS Opposite-Spin Energy  =      -1.0386184927443483 [Eh]
	 SCS Correlation Energy    =      -1.1301512826834950 [Eh]
	 SCS Total Energy          =    -283.9262433836233299 [Eh]
	-----------------------------------------------------------

  Dipole Moment: [D]
     X:     2.6975      Y:     1.0301      Z:     0.0001     Total:     2.8876

*** Psi4 exiting successfully. Buy a developer a beer!
