                               Psi4 1.3.2 release

  ==> Input File <==

--------------------------------------------------------------------------
#psi4
#
memory 32 gb

molecule  {
0 1
  O       -0.0931743    -0.2569816     0.0001593
  O       -2.2943480    -0.3022200    -0.0003020
  N       -1.3331360     0.4207790     0.0001410
  C        0.9942900     0.5577750     0.0000260
  C        2.2263960    -0.3194130     0.0000350
  H        0.9504280     1.1934050    -0.8894500
  H        0.9504900     1.1935070     0.8894320
  H        3.1263330     0.3018800    -0.0000350
  H        2.2416080    -0.9559660     0.8869040
  H        2.2415440    -0.9560740    -0.8867580
units angstrom
no_reorient  #important for SAPT in psi4, default
symmetry c1  #important for SAPT in psi4, default
}

set PROPERTIES_ORIGIN ["COM"]
properties('MP2/aug-cc-pvtz', properties = ['dipole'])
--------------------------------------------------------------------------

    Molecular point group: c1
  Charge       = 0
  Multiplicity = 1
  Basis Set: AUG-CC-PVTZ
    Blend: AUG-CC-PVTZ
  Basis Set: (AUG-CC-PVTZ AUX)
    Blend: AUG-CC-PVTZ-JKFIT

    Orbital Energies [Eh]
    ---------------------

    Doubly Occupied:

       1A    -20.656338     2A    -20.629454     3A    -15.790113
       4A    -11.294716     5A    -11.233524     6A     -1.574838
       7A     -1.423701     8A     -1.058787     9A     -0.940851
      10A     -0.859730    11A     -0.753126    12A     -0.711720
      13A     -0.708644    14A     -0.624337    15A     -0.598334
      16A     -0.567336    17A     -0.543511    18A     -0.532884
      19A     -0.462999    20A     -0.443506

  @DF-RHF Final Energy:  -282.80523786349113

   => Energetics <=

    Nuclear Repulsion Energy =            175.5113735689935766
    One-Electron Energy =                -733.8163247014194894
    Two-Electron Energy =                 275.4997132689347836
    Total Energy =                       -282.8052378634911292
  Basis Set: (AUG-CC-PVTZ AUX)
    Blend: AUG-CC-PVTZ-RI
    Molecular point group: c1

    Geometry (in Angstrom), charge = 0, multiplicity = 1:

       Center              X                  Y                   Z               Mass
    ------------   -----------------  -----------------  -----------------  -----------------
         O            0.021752130488    -0.264858126217     0.000152400455    15.994914619570
         O           -2.179421569512    -0.310096526217    -0.000308899545    15.994914619570
         N           -1.218209569512     0.412902473783     0.000134100455    14.003074004430
         C            1.109216430488     0.549898473783     0.000019100455    12.000000000000
         C            2.341322430488    -0.327289526217     0.000028100455    12.000000000000
         H            1.065354430488     1.185528473783    -0.889456899545     1.007825032230
         H            1.065416430488     1.185630473783     0.889425100455     1.007825032230
         H            3.241259430488     0.294003473783    -0.000041899545     1.007825032230
         H            2.356534430488    -0.963842526217     0.886897100455     1.007825032230
         H            2.356470430488    -0.963950526217    -0.886764899545     1.007825032230

  Basis Set: AUG-CC-PVTZ
    Blend: AUG-CC-PVTZ
  Basis Set: (AUG-CC-PVTZ AUX)
    Blend: AUG-CC-PVTZ-JKFIT
	 Reference Energy          =    -282.8052378634911292 [Eh]
	 Singles Energy            =      -0.0000000000000000 [Eh]
	 Same-Spin Energy          =      -0.2724872945923273 [Eh]
	 Opposite-Spin Energy      =      -0.8578603970500431 [Eh]
	 Correlation Energy        =      -1.1303476916423705 [Eh]
	 Total Energy              =    -283.9355855551335139 [Eh]

	 ================> DF-SCS-MP2 Energies <==================
	-----------------------------------------------------------
	 SCS Same-Spin Scale       =       0.3333333333333333 [-]
	 SCS Opposite-Spin Scale   =       1.2000000000000000 [-]
	 SCS Same-Spin Energy      =      -0.0908290981974424 [Eh]
	 SCS Opposite-Spin Energy  =      -1.0294324764600518 [Eh]
	 SCS Correlation Energy    =      -1.1202615746574942 [Eh]
	 SCS Total Energy          =    -283.9254994381486199 [Eh]
	-----------------------------------------------------------

  Dipole Moment: [D]
     X:     2.2780      Y:     0.8191      Z:    -0.0000     Total:     2.4208

*** Psi4 exiting successfully. Buy a developer a beer!
