                               Psi4 1.3.2 release

  ==> Input File <==

--------------------------------------------------------------------------
#psi4
#
memory 32 gb

molecule  {
0 1
  O       -0.0779485    -0.4190010     0.0001223
  O       -2.2943480    -0.3022200    -0.0003020
  N       -1.3331360     0.4207790     0.0001410
  C        0.9942900     0.5577750     0.0000260
  C        2.2263960    -0.3194130     0.0000350
  H        0.9504280     1.1934050    -0.8894500
  H        0.9504900     1.1935070     0.8894320
  H        3.1263330     0.3018800    -0.0000350
  H        2.2416080    -0.9559660     0.8869040
  H        2.2415440    -0.9560740    -0.8867580
units angstrom
no_reorient  #important for SAPT in psi4, default
symmetry c1  #important for SAPT in psi4, default
}

set PROPERTIES_ORIGIN ["COM"]
properties('MP2/aug-cc-pvtz', properties = ['dipole'])
--------------------------------------------------------------------------

    Molecular point group: c1
  Charge       = 0
  Multiplicity = 1
  Basis Set: AUG-CC-PVTZ
    Blend: AUG-CC-PVTZ
  Basis Set: (AUG-CC-PVTZ AUX)
    Blend: AUG-CC-PVTZ-JKFIT

    Orbital Energies [Eh]
    ---------------------

    Doubly Occupied:

       1A    -20.669638     2A    -20.621110     3A    -15.796825
       4A    -11.295365     5A    -11.227959     6A     -1.567698
       7A     -1.374045     8A     -1.038241     9A     -0.934729
      10A     -0.855067    11A     -0.735148    12A     -0.702919
      13A     -0.686390    14A     -0.623922    15A     -0.595360
      16A     -0.548212    17A     -0.535953    18A     -0.534286
      19A     -0.470656    20A     -0.442552

  @DF-RHF Final Energy:  -282.79422095730945

   => Energetics <=

    Nuclear Repulsion Energy =            172.7582812534764400
    One-Electron Energy =                -728.5928532276012675
    Two-Electron Energy =                 273.0403510168154071
    Total Energy =                       -282.7942209573094487
  Basis Set: (AUG-CC-PVTZ AUX)
    Blend: AUG-CC-PVTZ-RI
    Molecular point group: c1

    Geometry (in Angstrom), charge = 0, multiplicity = 1:

       Center              X                  Y                   Z               Mass
    ------------   -----------------  -----------------  -----------------  -----------------
         O            0.033732178291    -0.392339122753     0.000123287911    15.994914619570
         O           -2.182667321709    -0.275558122753    -0.000301012089    15.994914619570
         N           -1.221455321709     0.447440877247     0.000141987911    14.003074004430
         C            1.105970678291     0.584436877247     0.000026987911    12.000000000000
         C            2.338076678291    -0.292751122753     0.000035987911    12.000000000000
         H            1.062108678291     1.220066877247    -0.889449012089     1.007825032230
         H            1.062170678291     1.220168877247     0.889432987911     1.007825032230
         H            3.238013678291     0.328541877247    -0.000034012089     1.007825032230
         H            2.353288678291    -0.929304122753     0.886904987911     1.007825032230
         H            2.353224678291    -0.929412122753    -0.886757012089     1.007825032230

  Basis Set: AUG-CC-PVTZ
    Blend: AUG-CC-PVTZ
  Basis Set: (AUG-CC-PVTZ AUX)
    Blend: AUG-CC-PVTZ-JKFIT
	 Reference Energy          =    -282.7942209573094487 [Eh]
	 Singles Energy            =      -0.0000000000000000 [Eh]
	 Same-Spin Energy          =      -0.2748117028361591 [Eh]
	 Opposite-Spin Energy      =      -0.8672348158354430 [Eh]
	 Correlation Energy        =      -1.1420465186716022 [Eh]
	 Total Energy              =    -283.9362674759810261 [Eh]

	 ================> DF-SCS-MP2 Energies <==================
	-----------------------------------------------------------
	 SCS Same-Spin Scale       =       0.3333333333333333 [-]
	 SCS Opposite-Spin Scale   =       1.2000000000000000 [-]
	 SCS Same-Spin Energy      =      -0.0916039009453864 [Eh]
	 SCS Opposite-Spin Energy  =      -1.0406817790025316 [Eh]
	 SCS Correlation Energy    =      -1.1322856799479180 [Eh]
	 SCS Total Energy          =    -283.9265066372573756 [Eh]
	-----------------------------------------------------------

  Dipole Moment: [D]
     X:     1.6135      Y:     1.1549      Z:    -0.0000     Total:     1.9842

*** Psi4 exiting successfully. Buy a developer a beer!
