                               Psi4 1.4a3.dev225

  ==> Input File <==

--------------------------------------------------------------------------
#psi4
#
memory 32 gb

molecule  {
0 1
  O       -0.1930120     0.3539830    -0.5033360
  O       -2.2078060    -0.3013300    -0.0972570
  N       -1.1532972    -0.0416254     0.4317419
  C        1.0587430     0.5999510     0.1805450
  C        2.0021990    -0.5671560    -0.0255890
  H        1.4499140     1.5239110    -0.2520100
  H        0.8435940     0.7677230     1.2401610
  H        2.9727220    -0.3569890     0.4340390
  H        1.5904030    -1.4715490     0.4285410
  H        2.1535430    -0.7500910    -1.0915870
units angstrom
no_reorient  #important for SAPT in psi4, default
symmetry c1  #important for SAPT in psi4, default
}

set PROPERTIES_ORIGIN ["COM"]
properties('MP2/aug-cc-pvtz', properties = ['dipole'])
--------------------------------------------------------------------------

    Molecular point group: c1
  Charge       = 0
  Multiplicity = 1
  Basis Set: AUG-CC-PVTZ
    Blend: AUG-CC-PVTZ
  Basis Set: (AUG-CC-PVTZ AUX)
    Blend: AUG-CC-PVTZ-JKFIT

    Orbital Energies [Eh]
    ---------------------

    Doubly Occupied:

       1A    -20.644420     2A    -20.634013     3A    -15.784908
       4A    -11.303601     5A    -11.235335     6A     -1.568465
       7A     -1.399400     8A     -1.051160     9A     -0.941098
      10A     -0.859885    11A     -0.739465    12A     -0.717187
      13A     -0.678772    14A     -0.624959    15A     -0.597430
      16A     -0.572849    17A     -0.543561    18A     -0.519324
      19A     -0.471158    20A     -0.450789

  @DF-RHF Final Energy:  -282.80934782791331

   => Energetics <=

    Nuclear Repulsion Energy =            175.7016852023916726
    One-Electron Energy =                -734.3465089425801580
    Two-Electron Energy =                 275.8354759122751716
    Total Energy =                       -282.8093478279133137
  Basis Set: (AUG-CC-PVTZ AUX)
    Blend: AUG-CC-PVTZ-RI
    Molecular point group: c1

    Geometry (in Angstrom), charge = 0, multiplicity = 1:

       Center              X                  Y                   Z               Mass
    ------------   -----------------  -----------------  -----------------  -----------------
         O           -0.076547068476     0.349137123574    -0.490859146139    15.994914619570
         O           -2.091341068476    -0.306175876426    -0.084780146139    15.994914619570
         N           -1.036832268476    -0.046471276426     0.444218753861    14.003074004430
         C            1.175207931524     0.595105123574     0.193021853861    12.000000000000
         C            2.118663931524    -0.572001876426    -0.013112146139    12.000000000000
         H            1.566378931524     1.519065123574    -0.239533146139     1.007825032230
         H            0.960058931524     0.762877123574     1.252637853861     1.007825032230
         H            3.089186931524    -0.361834876426     0.446515853861     1.007825032230
         H            1.706867931524    -1.476394876426     0.441017853861     1.007825032230
         H            2.270007931524    -0.754936876426    -1.079110146139     1.007825032230

  Basis Set: AUG-CC-PVTZ
    Blend: AUG-CC-PVTZ
  Basis Set: (AUG-CC-PVTZ AUX)
    Blend: AUG-CC-PVTZ-JKFIT
	 Reference Energy          =    -282.8093478279133137 [Eh]
	 Singles Energy            =      -0.0000000000000000 [Eh]
	 Same-Spin Energy          =      -0.2731561922621619 [Eh]
	 Opposite-Spin Energy      =      -0.8600807139181508 [Eh]
	 Correlation Energy        =      -1.1332369061803127 [Eh]
	 Total Energy              =    -283.9425847340936002 [Eh]

	 ================> DF-SCS-MP2 Energies <==================
	-----------------------------------------------------------
	 SCS Same-Spin Scale       =       0.3333333333333333 [-]
	 SCS Opposite-Spin Scale   =       1.2000000000000000 [-]
	 SCS Same-Spin Energy      =      -0.0910520640873873 [Eh]
	 SCS Opposite-Spin Energy  =      -1.0320968567017810 [Eh]
	 SCS Correlation Energy    =      -1.1231489207891683 [Eh]
	 SCS Total Energy          =    -283.9324967487024765 [Eh]
	-----------------------------------------------------------

  Dipole Moment: [D]
     X:     2.6979      Y:     0.4502      Z:     0.6919     Total:     2.8214

*** Psi4 exiting successfully. Buy a developer a beer!
