                               Psi4 1.4a3.dev225

  ==> Input File <==

--------------------------------------------------------------------------
#psi4
#
memory 32 gb

molecule  {
0 1
  O       -0.1930120     0.3539830    -0.5033360
  O       -2.2078060    -0.3013300    -0.0972570
  N       -1.2103765    -0.0578651     0.4225398
  C        1.0587430     0.5999510     0.1805450
  C        2.0021990    -0.5671560    -0.0255890
  H        1.4499140     1.5239110    -0.2520100
  H        0.8435940     0.7677230     1.2401610
  H        2.9727220    -0.3569890     0.4340390
  H        1.5904030    -1.4715490     0.4285410
  H        2.1535430    -0.7500910    -1.0915870
units angstrom
no_reorient  #important for SAPT in psi4, default
symmetry c1  #important for SAPT in psi4, default
}

set PROPERTIES_ORIGIN ["COM"]
properties('MP2/aug-cc-pvtz', properties = ['dipole'])
--------------------------------------------------------------------------

    Molecular point group: c1
  Charge       = 0
  Multiplicity = 1
  Basis Set: AUG-CC-PVTZ
    Blend: AUG-CC-PVTZ
  Basis Set: (AUG-CC-PVTZ AUX)
    Blend: AUG-CC-PVTZ-JKFIT

    Orbital Energies [Eh]
    ---------------------

    Doubly Occupied:

       1A    -20.656738     2A    -20.615934     3A    -15.782513
       4A    -11.297130     5A    -11.230589     6A     -1.611266
       7A     -1.390470     8A     -1.042834     9A     -0.934192
      10A     -0.854874    11A     -0.749424    12A     -0.725841
      13A     -0.687267    14A     -0.630570    15A     -0.600555
      16A     -0.577315    17A     -0.539087    18A     -0.515092
      19A     -0.467830    20A     -0.436150

  @DF-RHF Final Energy:  -282.81456810312329

   => Energetics <=

    Nuclear Repulsion Energy =            175.9101350278416476
    One-Electron Energy =                -734.7580645695726389
    Two-Electron Energy =                 276.0333614386076988
    Total Energy =                       -282.8145681031232925
  Basis Set: (AUG-CC-PVTZ AUX)
    Blend: AUG-CC-PVTZ-RI
    Molecular point group: c1

    Geometry (in Angstrom), charge = 0, multiplicity = 1:

       Center              X                  Y                   Z               Mass
    ------------   -----------------  -----------------  -----------------  -----------------
         O           -0.065894475457     0.352167905571    -0.489141777036    15.994914619570
         O           -2.080688475457    -0.303145094429    -0.083062777036    15.994914619570
         N           -1.083258975457    -0.059680194429     0.436734022964    14.003074004430
         C            1.185860524543     0.598135905571     0.194739222964    12.000000000000
         C            2.129316524543    -0.568971094429    -0.011394777036    12.000000000000
         H            1.577031524543     1.522095905571    -0.237815777036     1.007825032230
         H            0.970711524543     0.765907905571     1.254355222964     1.007825032230
         H            3.099839524543    -0.358804094429     0.448233222964     1.007825032230
         H            1.717520524543    -1.473364094429     0.442735222964     1.007825032230
         H            2.280660524543    -0.751906094429    -1.077392777036     1.007825032230

  Basis Set: AUG-CC-PVTZ
    Blend: AUG-CC-PVTZ
  Basis Set: (AUG-CC-PVTZ AUX)
    Blend: AUG-CC-PVTZ-JKFIT
	 Reference Energy          =    -282.8145681031232925 [Eh]
	 Singles Energy            =      -0.0000000000000000 [Eh]
	 Same-Spin Energy          =      -0.2715623275620612 [Eh]
	 Opposite-Spin Energy      =      -0.8561077066402281 [Eh]
	 Correlation Energy        =      -1.1276700342022892 [Eh]
	 Total Energy              =    -283.9422381373256030 [Eh]

	 ================> DF-SCS-MP2 Energies <==================
	-----------------------------------------------------------
	 SCS Same-Spin Scale       =       0.3333333333333333 [-]
	 SCS Opposite-Spin Scale   =       1.2000000000000000 [-]
	 SCS Same-Spin Energy      =      -0.0905207758540204 [Eh]
	 SCS Opposite-Spin Energy  =      -1.0273292479682736 [Eh]
	 SCS Correlation Energy    =      -1.1178500238222939 [Eh]
	 SCS Total Energy          =    -283.9324181269456062 [Eh]
	-----------------------------------------------------------

  Dipole Moment: [D]
     X:     2.0749      Y:     0.2872      Z:     0.7953     Total:     2.2406

*** Psi4 exiting successfully. Buy a developer a beer!
