                               Psi4 1.3.2 release

  ==> Input File <==

--------------------------------------------------------------------------
#psi4
#
memory 32 gb

molecule  {
0 1
  O       -0.1587558    -0.3210680     0.0436939
  O       -2.2943480    -0.3022200    -0.0003020
  N       -1.3331360     0.4207790     0.0001410
  C        0.9942900     0.5577750     0.0000260
  C        2.2263960    -0.3194130     0.0000350
  H        0.9504280     1.1934050    -0.8894500
  H        0.9504900     1.1935070     0.8894320
  H        3.1263330     0.3018800    -0.0000350
  H        2.2416080    -0.9559660     0.8869040
  H        2.2415440    -0.9560740    -0.8867580
units angstrom
no_reorient  #important for SAPT in psi4, default
symmetry c1  #important for SAPT in psi4, default
}

set PROPERTIES_ORIGIN ["COM"]
properties('MP2/aug-cc-pvtz', properties = ['dipole'])
--------------------------------------------------------------------------

    Molecular point group: c1
  Charge       = 0
  Multiplicity = 1
  Basis Set: AUG-CC-PVTZ
    Blend: AUG-CC-PVTZ
  Basis Set: (AUG-CC-PVTZ AUX)
    Blend: AUG-CC-PVTZ-JKFIT

    Orbital Energies [Eh]
    ---------------------

    Doubly Occupied:

       1A    -20.642979     2A    -20.632133     3A    -15.781865
       4A    -11.304796     5A    -11.237186     6A     -1.573015
       7A     -1.398717     8A     -1.056257     9A     -0.930441
      10A     -0.863069    11A     -0.742130    12A     -0.705952
      13A     -0.701908    14A     -0.624921    15A     -0.589687
      16A     -0.560628    17A     -0.538910    18A     -0.535793
      19A     -0.471761    20A     -0.448147

  @DF-RHF Final Energy:  -282.81182146404592

   => Energetics <=

    Nuclear Repulsion Energy =            174.6063232449329803
    One-Electron Energy =                -732.1556969968373778
    Two-Electron Energy =                 274.7375522878584206
    Total Energy =                       -282.8118214640459200
  Basis Set: (AUG-CC-PVTZ AUX)
    Blend: AUG-CC-PVTZ-RI
    Molecular point group: c1

    Geometry (in Angstrom), charge = 0, multiplicity = 1:

       Center              X                  Y                   Z               Mass
    ------------   -----------------  -----------------  -----------------  -----------------
         O           -0.029849066495    -0.315282940384     0.034406534169    15.994914619570
         O           -2.165441266495    -0.296434940384    -0.009589365831    15.994914619570
         N           -1.204229266495     0.426564059616    -0.009146365831    14.003074004430
         C            1.123196733505     0.563560059616    -0.009261365831    12.000000000000
         C            2.355302733505    -0.313627940384    -0.009252365831    12.000000000000
         H            1.079334733505     1.199190059616    -0.898737365831     1.007825032230
         H            1.079396733505     1.199292059616     0.880144634169     1.007825032230
         H            3.255239733505     0.307665059616    -0.009322365831     1.007825032230
         H            2.370514733505    -0.950180940384     0.877616634169     1.007825032230
         H            2.370450733505    -0.950288940384    -0.896045365831     1.007825032230

  Basis Set: AUG-CC-PVTZ
    Blend: AUG-CC-PVTZ
  Basis Set: (AUG-CC-PVTZ AUX)
    Blend: AUG-CC-PVTZ-JKFIT
	 Reference Energy          =    -282.8118214640459200 [Eh]
	 Singles Energy            =      -0.0000000000000000 [Eh]
	 Same-Spin Energy          =      -0.2719405291290889 [Eh]
	 Opposite-Spin Energy      =      -0.8580044603031756 [Eh]
	 Correlation Energy        =      -1.1299449894322644 [Eh]
	 Total Energy              =    -283.9417664534781807 [Eh]

	 ================> DF-SCS-MP2 Energies <==================
	-----------------------------------------------------------
	 SCS Same-Spin Scale       =       0.3333333333333333 [-]
	 SCS Opposite-Spin Scale   =       1.2000000000000000 [-]
	 SCS Same-Spin Energy      =      -0.0906468430430296 [Eh]
	 SCS Opposite-Spin Energy  =      -1.0296053523638107 [Eh]
	 SCS Correlation Energy    =      -1.1202521954068403 [Eh]
	 SCS Total Energy          =    -283.9320736594527830 [Eh]
	-----------------------------------------------------------

  Dipole Moment: [D]
     X:     2.7130      Y:     0.9852      Z:    -0.0392     Total:     2.8866

*** Psi4 exiting successfully. Buy a developer a beer!
