                               Psi4 1.3.2 release

  ==> Input File <==

--------------------------------------------------------------------------
#psi4
#
memory 32 gb

molecule  {
0 1
  O       -0.1434730    -0.3418260     0.0001200
  O       -2.2943480    -0.3022200    -0.0003020
  N       -1.5015118     0.5287123     0.0001440
  C        0.9942900     0.5577750     0.0000260
  C        2.2263960    -0.3194130     0.0000350
  H        0.9504280     1.1934050    -0.8894500
  H        0.9504900     1.1935070     0.8894320
  H        3.1263330     0.3018800    -0.0000350
  H        2.2416080    -0.9559660     0.8869040
  H        2.2415440    -0.9560740    -0.8867580
units angstrom
no_reorient  #important for SAPT in psi4, default
symmetry c1  #important for SAPT in psi4, default
}

set PROPERTIES_ORIGIN ["COM"]
properties('MP2/aug-cc-pvtz', properties = ['dipole'])
--------------------------------------------------------------------------

    Molecular point group: c1
  Charge       = 0
  Multiplicity = 1
  Basis Set: AUG-CC-PVTZ
    Blend: AUG-CC-PVTZ
  Basis Set: (AUG-CC-PVTZ AUX)
    Blend: AUG-CC-PVTZ-JKFIT

    Orbital Energies [Eh]
    ---------------------

    Doubly Occupied:

       1A    -20.691531     2A    -20.588353     3A    -15.807566
       4A    -11.281677     5A    -11.221406     6A     -1.626654
       7A     -1.334673     8A     -1.022149     9A     -0.940131
      10A     -0.842258    11A     -0.743039    12A     -0.723650
      13A     -0.687245    14A     -0.639866    15A     -0.584078
      16A     -0.553053    17A     -0.528915    18A     -0.519646
      19A     -0.451142    20A     -0.421831

  @DF-RHF Final Energy:  -282.78867868117158

   => Energetics <=

    Nuclear Repulsion Energy =            171.6138662916670796
    One-Electron Energy =                -726.3873597852269768
    Two-Electron Energy =                 271.9848148123883789
    Total Energy =                       -282.7886786811715751
  Basis Set: (AUG-CC-PVTZ AUX)
    Blend: AUG-CC-PVTZ-RI
    Molecular point group: c1

    Geometry (in Angstrom), charge = 0, multiplicity = 1:

       Center              X                  Y                   Z               Mass
    ------------   -----------------  -----------------  -----------------  -----------------
         O            0.013599461551    -0.351759235288     0.000120918329    15.994914619570
         O           -2.137275538449    -0.312153235288    -0.000301081671    15.994914619570
         N           -1.344439338449     0.518779064712     0.000144918329    14.003074004430
         C            1.151362461551     0.547841764712     0.000026918329    12.000000000000
         C            2.383468461551    -0.329346235288     0.000035918329    12.000000000000
         H            1.107500461551     1.183471764712    -0.889449081671     1.007825032230
         H            1.107562461551     1.183573764712     0.889432918329     1.007825032230
         H            3.283405461551     0.291946764712    -0.000034081671     1.007825032230
         H            2.398680461551    -0.965899235288     0.886904918329     1.007825032230
         H            2.398616461551    -0.966007235288    -0.886757081671     1.007825032230

  Basis Set: AUG-CC-PVTZ
    Blend: AUG-CC-PVTZ
  Basis Set: (AUG-CC-PVTZ AUX)
    Blend: AUG-CC-PVTZ-JKFIT
	 Reference Energy          =    -282.7886786811715751 [Eh]
	 Singles Energy            =      -0.0000000000000000 [Eh]
	 Same-Spin Energy          =      -0.2743432893466293 [Eh]
	 Opposite-Spin Energy      =      -0.8675765132461585 [Eh]
	 Correlation Energy        =      -1.1419198025927877 [Eh]
	 Total Energy              =    -283.9305984837643564 [Eh]

	 ================> DF-SCS-MP2 Energies <==================
	-----------------------------------------------------------
	 SCS Same-Spin Scale       =       0.3333333333333333 [-]
	 SCS Opposite-Spin Scale   =       1.2000000000000000 [-]
	 SCS Same-Spin Energy      =      -0.0914477631155431 [Eh]
	 SCS Opposite-Spin Energy  =      -1.0410918158953901 [Eh]
	 SCS Correlation Energy    =      -1.1325395790109332 [Eh]
	 SCS Total Energy          =    -283.9212182601825134 [Eh]
	-----------------------------------------------------------

  Dipole Moment: [D]
     X:     0.5508      Y:     1.2375      Z:    -0.0001     Total:     1.3545

*** Psi4 exiting successfully. Buy a developer a beer!
