                               Psi4 1.4a3.dev225

  ==> Input File <==

--------------------------------------------------------------------------
#psi4
#
memory 32 gb

molecule  {
0 1
  O       -0.1930120     0.3539830    -0.5033360
  O       -2.2078060    -0.3013300    -0.0972570
  N       -1.1843746    -0.0515182     0.4360903
  C        1.0587430     0.5999510     0.1805450
  C        2.0021990    -0.5671560    -0.0255890
  H        1.4499140     1.5239110    -0.2520100
  H        0.8435940     0.7677230     1.2401610
  H        2.9727220    -0.3569890     0.4340390
  H        1.5904030    -1.4715490     0.4285410
  H        2.1535430    -0.7500910    -1.0915870
units angstrom
no_reorient  #important for SAPT in psi4, default
symmetry c1  #important for SAPT in psi4, default
}

set PROPERTIES_ORIGIN ["COM"]
properties('MP2/aug-cc-pvtz', properties = ['dipole'])
--------------------------------------------------------------------------

    Molecular point group: c1
  Charge       = 0
  Multiplicity = 1
  Basis Set: AUG-CC-PVTZ
    Blend: AUG-CC-PVTZ
  Basis Set: (AUG-CC-PVTZ AUX)
    Blend: AUG-CC-PVTZ-JKFIT

    Orbital Energies [Eh]
    ---------------------

    Doubly Occupied:

       1A    -20.652141     2A    -20.624158     3A    -15.785166
       4A    -11.299743     5A    -11.232584     6A     -1.586344
       7A     -1.393718     8A     -1.045820     9A     -0.937763
      10A     -0.856906    11A     -0.743444    12A     -0.719454
      13A     -0.680300    14A     -0.627365    15A     -0.599236
      16A     -0.575782    17A     -0.541050    18A     -0.516997
      19A     -0.469481    20A     -0.444700

  @DF-RHF Final Energy:  -282.81218090317395

   => Energetics <=

    Nuclear Repulsion Energy =            175.6112554649125457
    One-Electron Energy =                -734.1825698175584876
    Two-Electron Energy =                 275.7591334494719604
    Total Energy =                       -282.8121809031739531
  Basis Set: (AUG-CC-PVTZ AUX)
    Blend: AUG-CC-PVTZ-RI
    Molecular point group: c1

    Geometry (in Angstrom), charge = 0, multiplicity = 1:

       Center              X                  Y                   Z               Mass
    ------------   -----------------  -----------------  -----------------  -----------------
         O           -0.070747156874     0.350983396605    -0.491670679137    15.994914619570
         O           -2.085541156874    -0.304329603395    -0.085591679137    15.994914619570
         N           -1.062109756874    -0.054517803395     0.447755620863    14.003074004430
         C            1.181007843126     0.596951396605     0.192210320863    12.000000000000
         C            2.124463843126    -0.570155603395    -0.013923679137    12.000000000000
         H            1.572178843126     1.520911396605    -0.240344679137     1.007825032230
         H            0.965858843126     0.764723396605     1.251826320863     1.007825032230
         H            3.094986843126    -0.359988603395     0.445704320863     1.007825032230
         H            1.712667843126    -1.474548603395     0.440206320863     1.007825032230
         H            2.275807843126    -0.753090603395    -1.079921679137     1.007825032230

  Basis Set: AUG-CC-PVTZ
    Blend: AUG-CC-PVTZ
  Basis Set: (AUG-CC-PVTZ AUX)
    Blend: AUG-CC-PVTZ-JKFIT
	 Reference Energy          =    -282.8121809031739531 [Eh]
	 Singles Energy            =      -0.0000000000000000 [Eh]
	 Same-Spin Energy          =      -0.2724957860638401 [Eh]
	 Opposite-Spin Energy      =      -0.8586840742171837 [Eh]
	 Correlation Energy        =      -1.1311798602810239 [Eh]
	 Total Energy              =    -283.9433607634549617 [Eh]

	 ================> DF-SCS-MP2 Energies <==================
	-----------------------------------------------------------
	 SCS Same-Spin Scale       =       0.3333333333333333 [-]
	 SCS Opposite-Spin Scale   =       1.2000000000000000 [-]
	 SCS Same-Spin Energy      =      -0.0908319286879467 [Eh]
	 SCS Opposite-Spin Energy  =      -1.0304208890606203 [Eh]
	 SCS Correlation Energy    =      -1.1212528177485670 [Eh]
	 SCS Total Energy          =    -283.9334337209224941 [Eh]
	-----------------------------------------------------------

  Dipole Moment: [D]
     X:     2.3436      Y:     0.3576      Z:     0.7634     Total:     2.4906

*** Psi4 exiting successfully. Buy a developer a beer!
