                               Psi4 1.4a3.dev225

  ==> Input File <==

--------------------------------------------------------------------------
#psi4
#
memory 32 gb

molecule  {
0 1
  O       -0.1930120     0.3539830    -0.5033360
  O       -2.2078060    -0.3013300    -0.0972570
  N       -1.1326829    -0.0331329     0.4116688
  C        1.0587430     0.5999510     0.1805450
  C        2.0021990    -0.5671560    -0.0255890
  H        1.4499140     1.5239110    -0.2520100
  H        0.8435940     0.7677230     1.2401610
  H        2.9727220    -0.3569890     0.4340390
  H        1.5904030    -1.4715490     0.4285410
  H        2.1535430    -0.7500910    -1.0915870
units angstrom
no_reorient  #important for SAPT in psi4, default
symmetry c1  #important for SAPT in psi4, default
}

set PROPERTIES_ORIGIN ["COM"]
properties('MP2/aug-cc-pvtz', properties = ['dipole'])
--------------------------------------------------------------------------

    Molecular point group: c1
  Charge       = 0
  Multiplicity = 1
  Basis Set: AUG-CC-PVTZ
    Blend: AUG-CC-PVTZ
  Basis Set: (AUG-CC-PVTZ AUX)
    Blend: AUG-CC-PVTZ-JKFIT

    Orbital Energies [Eh]
    ---------------------

    Doubly Occupied:

       1A    -20.641276     2A    -20.636851     3A    -15.781736
       4A    -11.307033     5A    -11.237656     6A     -1.565640
       7A     -1.404986     8A     -1.056592     9A     -0.942867
      10A     -0.862020    11A     -0.739212    12A     -0.719503
      13A     -0.682000    14A     -0.625050    15A     -0.596425
      16A     -0.570853    17A     -0.545480    18A     -0.521303
      19A     -0.472245    20A     -0.451011

  @DF-RHF Final Energy:  -282.80901646453606

   => Energetics <=

    Nuclear Repulsion Energy =            176.1218675971045684
    One-Electron Energy =                -735.1422917708222258
    Two-Electron Energy =                 276.2114077091815716
    Total Energy =                       -282.8090164645360574
  Basis Set: (AUG-CC-PVTZ AUX)
    Blend: AUG-CC-PVTZ-RI
    Molecular point group: c1

    Geometry (in Angstrom), charge = 0, multiplicity = 1:

       Center              X                  Y                   Z               Mass
    ------------   -----------------  -----------------  -----------------  -----------------
         O           -0.080394273125     0.347552185668    -0.487112944539    15.994914619570
         O           -2.095188273125    -0.307760814332    -0.081033944539    15.994914619570
         N           -1.020065173125    -0.039563714332     0.427891855461    14.003074004430
         C            1.171360726875     0.593520185668     0.196768055461    12.000000000000
         C            2.114816726875    -0.573586814332    -0.009365944539    12.000000000000
         H            1.562531726875     1.517480185668    -0.235786944539     1.007825032230
         H            0.956211726875     0.761292185668     1.256384055461     1.007825032230
         H            3.085339726875    -0.363419814332     0.450262055461     1.007825032230
         H            1.703020726875    -1.477979814332     0.444764055461     1.007825032230
         H            2.266160726875    -0.756521814332    -1.075363944539     1.007825032230

  Basis Set: AUG-CC-PVTZ
    Blend: AUG-CC-PVTZ
  Basis Set: (AUG-CC-PVTZ AUX)
    Blend: AUG-CC-PVTZ-JKFIT
	 Reference Energy          =    -282.8090164645360574 [Eh]
	 Singles Energy            =      -0.0000000000000000 [Eh]
	 Same-Spin Energy          =      -0.2731280204444012 [Eh]
	 Opposite-Spin Energy      =      -0.8594621330539458 [Eh]
	 Correlation Energy        =      -1.1325901534983469 [Eh]
	 Total Energy              =    -283.9416066180344274 [Eh]

	 ================> DF-SCS-MP2 Energies <==================
	-----------------------------------------------------------
	 SCS Same-Spin Scale       =       0.3333333333333333 [-]
	 SCS Opposite-Spin Scale   =       1.2000000000000000 [-]
	 SCS Same-Spin Energy      =      -0.0910426734814671 [Eh]
	 SCS Opposite-Spin Energy  =      -1.0313545596647349 [Eh]
	 SCS Correlation Energy    =      -1.1223972331462020 [Eh]
	 SCS Total Energy          =    -283.9314136976822738 [Eh]
	-----------------------------------------------------------

  Dipole Moment: [D]
     X:     2.9818      Y:     0.5237      Z:     0.6193     Total:     3.0901

*** Psi4 exiting successfully. Buy a developer a beer!
