                               Psi4 1.3.2 release

  ==> Input File <==

--------------------------------------------------------------------------
#psi4
#
memory 32 gb

molecule  {
0 1
  O       -0.1434730    -0.3418260     0.0001200
  O       -2.2943480    -0.3022200    -0.0003020
  N       -1.2469050     0.5409550     0.0001315
  C        0.9942900     0.5577750     0.0000260
  C        2.2263960    -0.3194130     0.0000350
  H        0.9504280     1.1934050    -0.8894500
  H        0.9504900     1.1935070     0.8894320
  H        3.1263330     0.3018800    -0.0000350
  H        2.2416080    -0.9559660     0.8869040
  H        2.2415440    -0.9560740    -0.8867580
units angstrom
no_reorient  #important for SAPT in psi4, default
symmetry c1  #important for SAPT in psi4, default
}

set PROPERTIES_ORIGIN ["COM"]
properties('MP2/aug-cc-pvtz', properties = ['dipole'])
--------------------------------------------------------------------------

    Molecular point group: c1
  Charge       = 0
  Multiplicity = 1
  Basis Set: AUG-CC-PVTZ
    Blend: AUG-CC-PVTZ
  Basis Set: (AUG-CC-PVTZ AUX)
    Blend: AUG-CC-PVTZ-JKFIT

    Orbital Energies [Eh]
    ---------------------

    Doubly Occupied:

       1A    -20.653249     2A    -20.641362     3A    -15.805329
       4A    -11.308561     5A    -11.239169     6A     -1.512132
       7A     -1.359110     8A     -1.057240     9A     -0.950389
      10A     -0.871114    11A     -0.714453    12A     -0.700694
      13A     -0.680814    14A     -0.600384    15A     -0.583094
      16A     -0.549783    17A     -0.541549    18A     -0.528014
      19A     -0.477318    20A     -0.464971

  @DF-RHF Final Energy:  -282.75460334054065

   => Energetics <=

    Nuclear Repulsion Energy =            172.2705197175945386
    One-Electron Energy =                -727.5727885348032942
    Two-Electron Energy =                 272.5476654766681008
    Total Energy =                       -282.7546033405406547
  Basis Set: (AUG-CC-PVTZ AUX)
    Blend: AUG-CC-PVTZ-RI
    Molecular point group: c1

    Geometry (in Angstrom), charge = 0, multiplicity = 1:

       Center              X                  Y                   Z               Mass
    ------------   -----------------  -----------------  -----------------  -----------------
         O           -0.033917284807    -0.354044065350     0.000123251178    15.994914619570
         O           -2.184792284807    -0.314438065350    -0.000298748822    15.994914619570
         N           -1.137349284807     0.528736934650     0.000134751178    14.003074004430
         C            1.103845715193     0.545556934650     0.000029251178    12.000000000000
         C            2.335951715193    -0.331631065350     0.000038251178    12.000000000000
         H            1.059983715193     1.181186934650    -0.889446748822     1.007825032230
         H            1.060045715193     1.181288934650     0.889435251178     1.007825032230
         H            3.235888715193     0.289661934650    -0.000031748822     1.007825032230
         H            2.351163715193    -0.968184065350     0.886907251178     1.007825032230
         H            2.351099715193    -0.968292065350    -0.886754748822     1.007825032230

  Basis Set: AUG-CC-PVTZ
    Blend: AUG-CC-PVTZ
  Basis Set: (AUG-CC-PVTZ AUX)
    Blend: AUG-CC-PVTZ-JKFIT
	 Reference Energy          =    -282.7546033405406547 [Eh]
	 Singles Energy            =      -0.0000000000000000 [Eh]
	 Same-Spin Energy          =      -0.2798107520052968 [Eh]
	 Opposite-Spin Energy      =      -0.8789057382682800 [Eh]
	 Correlation Energy        =      -1.1587164902735767 [Eh]
	 Total Energy              =    -283.9133198308142596 [Eh]

	 ================> DF-SCS-MP2 Energies <==================
	-----------------------------------------------------------
	 SCS Same-Spin Scale       =       0.3333333333333333 [-]
	 SCS Opposite-Spin Scale   =       1.2000000000000000 [-]
	 SCS Same-Spin Energy      =      -0.0932702506684323 [Eh]
	 SCS Opposite-Spin Energy  =      -1.0546868859219360 [Eh]
	 SCS Correlation Energy    =      -1.1479571365903682 [Eh]
	 SCS Total Energy          =    -283.9025604771310327 [Eh]
	-----------------------------------------------------------

  Dipole Moment: [D]
     X:     2.9232      Y:     0.9838      Z:     0.0001     Total:     3.0843

*** Psi4 exiting successfully. Buy a developer a beer!
