                               Psi4 1.3.2 release

  ==> Input File <==

--------------------------------------------------------------------------
#psi4
#
memory 32 gb

molecule  {
0 1
  O       -0.1741755    -0.3015706     0.0001187
  O       -2.2943480    -0.3022200    -0.0003020
  N       -1.3331360     0.4207790     0.0001410
  C        0.9942900     0.5577750     0.0000260
  C        2.2263960    -0.3194130     0.0000350
  H        0.9504280     1.1934050    -0.8894500
  H        0.9504900     1.1935070     0.8894320
  H        3.1263330     0.3018800    -0.0000350
  H        2.2416080    -0.9559660     0.8869040
  H        2.2415440    -0.9560740    -0.8867580
units angstrom
no_reorient  #important for SAPT in psi4, default
symmetry c1  #important for SAPT in psi4, default
}

set PROPERTIES_ORIGIN ["COM"]
properties('MP2/aug-cc-pvtz', properties = ['dipole'])
--------------------------------------------------------------------------

    Molecular point group: c1
  Charge       = 0
  Multiplicity = 1
  Basis Set: AUG-CC-PVTZ
    Blend: AUG-CC-PVTZ
  Basis Set: (AUG-CC-PVTZ AUX)
    Blend: AUG-CC-PVTZ-JKFIT

    Orbital Energies [Eh]
    ---------------------

    Doubly Occupied:

       1A    -20.636889     2A    -20.634558     3A    -15.778594
       4A    -11.307085     5A    -11.239223     6A     -1.576363
       7A     -1.403096     8A     -1.060379     9A     -0.931088
      10A     -0.864083    11A     -0.743356    12A     -0.707398
      13A     -0.706014    14A     -0.625934    15A     -0.588556
      16A     -0.563172    17A     -0.539619    18A     -0.535357
      19A     -0.471781    20A     -0.447543

  @DF-RHF Final Energy:  -282.81377903781140

   => Energetics <=

    Nuclear Repulsion Energy =            175.0203472442211705
    One-Electron Energy =                -732.9480682358536114
    Two-Electron Energy =                 275.1139419538210404
    Total Energy =                       -282.8137790378114005
  Basis Set: (AUG-CC-PVTZ AUX)
    Blend: AUG-CC-PVTZ-RI
    Molecular point group: c1

    Geometry (in Angstrom), charge = 0, multiplicity = 1:

       Center              X                  Y                   Z               Mass
    ------------   -----------------  -----------------  -----------------  -----------------
         O           -0.041981679764    -0.299941888745     0.000120455340    15.994914619570
         O           -2.162154179764    -0.300591288745    -0.000300244660    15.994914619570
         N           -1.200942179764     0.422407711255     0.000142755340    14.003074004430
         C            1.126483820236     0.559403711255     0.000027755340    12.000000000000
         C            2.358589820236    -0.317784288745     0.000036755340    12.000000000000
         H            1.082621820236     1.195033711255    -0.889448244660     1.007825032230
         H            1.082683820236     1.195135711255     0.889433755340     1.007825032230
         H            3.258526820236     0.303508711255    -0.000033244660     1.007825032230
         H            2.373801820236    -0.954337288745     0.886905755340     1.007825032230
         H            2.373737820236    -0.954445288745    -0.886756244660     1.007825032230

  Basis Set: AUG-CC-PVTZ
    Blend: AUG-CC-PVTZ
  Basis Set: (AUG-CC-PVTZ AUX)
    Blend: AUG-CC-PVTZ-JKFIT
	 Reference Energy          =    -282.8137790378114005 [Eh]
	 Singles Energy            =      -0.0000000000000000 [Eh]
	 Same-Spin Energy          =      -0.2714394343835950 [Eh]
	 Opposite-Spin Energy      =      -0.8563210994262499 [Eh]
	 Correlation Energy        =      -1.1277605338098449 [Eh]
	 Total Energy              =    -283.9415395716212629 [Eh]

	 ================> DF-SCS-MP2 Energies <==================
	-----------------------------------------------------------
	 SCS Same-Spin Scale       =       0.3333333333333333 [-]
	 SCS Opposite-Spin Scale   =       1.2000000000000000 [-]
	 SCS Same-Spin Energy      =      -0.0904798114611983 [Eh]
	 SCS Opposite-Spin Energy  =      -1.0275853193114999 [Eh]
	 SCS Correlation Energy    =      -1.1180651307726981 [Eh]
	 SCS Total Energy          =    -283.9318441685841208 [Eh]
	-----------------------------------------------------------

  Dipole Moment: [D]
     X:     2.9388      Y:     0.9558      Z:     0.0001     Total:     3.0903

*** Psi4 exiting successfully. Buy a developer a beer!
