                               Psi4 1.3.2 release

  ==> Input File <==

--------------------------------------------------------------------------
#psi4
#
memory 32 gb

molecule  {
0 1
  O       -0.2297040    -0.4620020     0.0000613
  O       -2.2943480    -0.3022200    -0.0003020
  N       -1.3331360     0.4207790     0.0001410
  C        0.9942900     0.5577750     0.0000260
  C        2.2263960    -0.3194130     0.0000350
  H        0.9504280     1.1934050    -0.8894500
  H        0.9504900     1.1935070     0.8894320
  H        3.1263330     0.3018800    -0.0000350
  H        2.2416080    -0.9559660     0.8869040
  H        2.2415440    -0.9560740    -0.8867580
units angstrom
no_reorient  #important for SAPT in psi4, default
symmetry c1  #important for SAPT in psi4, default
}

set PROPERTIES_ORIGIN ["COM"]
properties('MP2/aug-cc-pvtz', properties = ['dipole'])
--------------------------------------------------------------------------

    Molecular point group: c1
  Charge       = 0
  Multiplicity = 1
  Basis Set: AUG-CC-PVTZ
    Blend: AUG-CC-PVTZ
  Basis Set: (AUG-CC-PVTZ AUX)
    Blend: AUG-CC-PVTZ-JKFIT

    Orbital Energies [Eh]
    ---------------------

    Doubly Occupied:

       1A    -20.637394     2A    -20.626310     3A    -15.778394
       4A    -11.315677     5A    -11.238243     6A     -1.566979
       7A     -1.355821     8A     -1.049213     9A     -0.918227
      10A     -0.864016    11A     -0.723228    12A     -0.698030
      13A     -0.683933    14A     -0.626237    15A     -0.590045
      16A     -0.548094    17A     -0.532627    18A     -0.524458
      19A     -0.476929    20A     -0.449452

  @DF-RHF Final Energy:  -282.78978787210724

   => Energetics <=

    Nuclear Repulsion Energy =            172.5241202388161526
    One-Electron Energy =                -728.2212015992113265
    Two-Electron Energy =                 272.9072934882879053
    Total Energy =                       -282.7897878721072402
  Basis Set: (AUG-CC-PVTZ AUX)
    Blend: AUG-CC-PVTZ-RI
    Molecular point group: c1

    Geometry (in Angstrom), charge = 0, multiplicity = 1:

       Center              X                  Y                   Z               Mass
    ------------   -----------------  -----------------  -----------------  -----------------
         O           -0.085672919925    -0.426173406377     0.000075291555    15.994914619570
         O           -2.150316919925    -0.266391406377    -0.000288008445    15.994914619570
         N           -1.189104919925     0.456607593623     0.000154991555    14.003074004430
         C            1.138321080075     0.593603593623     0.000039991555    12.000000000000
         C            2.370427080075    -0.283584406377     0.000048991555    12.000000000000
         H            1.094459080075     1.229233593623    -0.889436008445     1.007825032230
         H            1.094521080075     1.229335593623     0.889445991555     1.007825032230
         H            3.270364080075     0.337708593623    -0.000021008445     1.007825032230
         H            2.385639080075    -0.920137406377     0.886917991555     1.007825032230
         H            2.385575080075    -0.920245406377    -0.886744008445     1.007825032230

  Basis Set: AUG-CC-PVTZ
    Blend: AUG-CC-PVTZ
  Basis Set: (AUG-CC-PVTZ AUX)
    Blend: AUG-CC-PVTZ-JKFIT
	 Reference Energy          =    -282.7897878721072402 [Eh]
	 Singles Energy            =      -0.0000000000000000 [Eh]
	 Same-Spin Energy          =      -0.2734030442702781 [Eh]
	 Opposite-Spin Energy      =      -0.8643445118665257 [Eh]
	 Correlation Energy        =      -1.1377475561368038 [Eh]
	 Total Energy              =    -283.9275354282440276 [Eh]

	 ================> DF-SCS-MP2 Energies <==================
	-----------------------------------------------------------
	 SCS Same-Spin Scale       =       0.3333333333333333 [-]
	 SCS Opposite-Spin Scale   =       1.2000000000000000 [-]
	 SCS Same-Spin Energy      =      -0.0911343480900927 [Eh]
	 SCS Opposite-Spin Energy  =      -1.0372134142398308 [Eh]
	 SCS Correlation Energy    =      -1.1283477623299234 [Eh]
	 SCS Total Energy          =    -283.9181356344371352 [Eh]
	-----------------------------------------------------------

  Dipole Moment: [D]
     X:     2.7812      Y:     1.2669      Z:     0.0001     Total:     3.0561

*** Psi4 exiting successfully. Buy a developer a beer!
