                               Psi4 1.3.2 release

  ==> Input File <==

--------------------------------------------------------------------------
#psi4
#
memory 32 gb

molecule  {
0 1
  O       -0.1434730    -0.3418260     0.0001200
  O       -2.2943480    -0.3022200    -0.0003020
  N       -1.3834347     0.3359346     0.0001472
  C        0.9942900     0.5577750     0.0000260
  C        2.2263960    -0.3194130     0.0000350
  H        0.9504280     1.1934050    -0.8894500
  H        0.9504900     1.1935070     0.8894320
  H        3.1263330     0.3018800    -0.0000350
  H        2.2416080    -0.9559660     0.8869040
  H        2.2415440    -0.9560740    -0.8867580
units angstrom
no_reorient  #important for SAPT in psi4, default
symmetry c1  #important for SAPT in psi4, default
}

set PROPERTIES_ORIGIN ["COM"]
properties('MP2/aug-cc-pvtz', properties = ['dipole'])
--------------------------------------------------------------------------

    Molecular point group: c1
  Charge       = 0
  Multiplicity = 1
  Basis Set: AUG-CC-PVTZ
    Blend: AUG-CC-PVTZ
  Basis Set: (AUG-CC-PVTZ AUX)
    Blend: AUG-CC-PVTZ-JKFIT

    Orbital Energies [Eh]
    ---------------------

    Doubly Occupied:

       1A    -20.654287     2A    -20.611013     3A    -15.770416
       4A    -11.298223     5A    -11.231659     6A     -1.644227
       7A     -1.397162     8A     -1.048760     9A     -0.919708
      10A     -0.856337    11A     -0.763092    12A     -0.729908
      13A     -0.710697    14A     -0.645378    15A     -0.592391
      16A     -0.558480    17A     -0.539617    18A     -0.531172
      19A     -0.469364    20A     -0.419066

  @DF-RHF Final Energy:  -282.81378700460664

   => Energetics <=

    Nuclear Repulsion Energy =            175.8568883065632349
    One-Electron Energy =                -734.5594316644163655
    Two-Electron Energy =                 275.8887563532464355
    Total Energy =                       -282.8137870046066382
  Basis Set: (AUG-CC-PVTZ AUX)
    Blend: AUG-CC-PVTZ-RI
    Molecular point group: c1

    Geometry (in Angstrom), charge = 0, multiplicity = 1:

       Center              X                  Y                   Z               Mass
    ------------   -----------------  -----------------  -----------------  -----------------
         O           -0.008437026128    -0.315781527410     0.000120321119    15.994914619570
         O           -2.159312026128    -0.276175527410    -0.000301678881    15.994914619570
         N           -1.248398726128     0.361979072590     0.000147521119    14.003074004430
         C            1.129325973872     0.583819472590     0.000026321119    12.000000000000
         C            2.361431973872    -0.293368527410     0.000035321119    12.000000000000
         H            1.085463973872     1.219449472590    -0.889449678881     1.007825032230
         H            1.085525973872     1.219551472590     0.889432321119     1.007825032230
         H            3.261368973872     0.327924472590    -0.000034678881     1.007825032230
         H            2.376643973872    -0.929921527410     0.886904321119     1.007825032230
         H            2.376579973872    -0.930029527410    -0.886757678881     1.007825032230

  Basis Set: AUG-CC-PVTZ
    Blend: AUG-CC-PVTZ
  Basis Set: (AUG-CC-PVTZ AUX)
    Blend: AUG-CC-PVTZ-JKFIT
	 Reference Energy          =    -282.8137870046066382 [Eh]
	 Singles Energy            =      -0.0000000000000000 [Eh]
	 Same-Spin Energy          =      -0.2691561532441922 [Eh]
	 Opposite-Spin Energy      =      -0.8500642263318121 [Eh]
	 Correlation Energy        =      -1.1192203795760043 [Eh]
	 Total Energy              =    -283.9330073841826447 [Eh]

	 ================> DF-SCS-MP2 Energies <==================
	-----------------------------------------------------------
	 SCS Same-Spin Scale       =       0.3333333333333333 [-]
	 SCS Opposite-Spin Scale   =       1.2000000000000000 [-]
	 SCS Same-Spin Energy      =      -0.0897187177480641 [Eh]
	 SCS Opposite-Spin Energy  =      -1.0200770715981744 [Eh]
	 SCS Correlation Energy    =      -1.1097957893462385 [Eh]
	 SCS Total Energy          =    -283.9235827939529031 [Eh]
	-----------------------------------------------------------

  Dipole Moment: [D]
     X:     1.9592      Y:     0.9453      Z:    -0.0001     Total:     2.1753

*** Psi4 exiting successfully. Buy a developer a beer!
