                               Psi4 1.3.2 release

  ==> Input File <==

--------------------------------------------------------------------------
#psi4
#
memory 32 gb

molecule  {
0 1
  O       -0.1589999    -0.3218323     0.0001194
  O       -2.2943480    -0.3022200    -0.0003020
  N       -1.3331360     0.4207790     0.0001410
  C        0.9942900     0.5577750     0.0000260
  C        2.2263960    -0.3194130     0.0000350
  H        0.9504280     1.1934050    -0.8894500
  H        0.9504900     1.1935070     0.8894320
  H        3.1263330     0.3018800    -0.0000350
  H        2.2416080    -0.9559660     0.8869040
  H        2.2415440    -0.9560740    -0.8867580
units angstrom
no_reorient  #important for SAPT in psi4, default
symmetry c1  #important for SAPT in psi4, default
}

set PROPERTIES_ORIGIN ["COM"]
properties('MP2/aug-cc-pvtz', properties = ['dipole'])
--------------------------------------------------------------------------

    Molecular point group: c1
  Charge       = 0
  Multiplicity = 1
  Basis Set: AUG-CC-PVTZ
    Blend: AUG-CC-PVTZ
  Basis Set: (AUG-CC-PVTZ AUX)
    Blend: AUG-CC-PVTZ-JKFIT

    Orbital Energies [Eh]
    ---------------------

    Doubly Occupied:

       1A    -20.642842     2A    -20.632195     3A    -15.781808
       4A    -11.304842     5A    -11.237208     6A     -1.573097
       7A     -1.398771     8A     -1.056331     9A     -0.930417
      10A     -0.863106    11A     -0.742141    12A     -0.705927
      13A     -0.702078    14A     -0.624919    15A     -0.589654
      16A     -0.560577    17A     -0.538961    18A     -0.535768
      19A     -0.471890    20A     -0.448176

  @DF-RHF Final Energy:  -282.81204585272354

   => Energetics <=

    Nuclear Repulsion Energy =            174.6187828484293050
    One-Electron Energy =                -732.1802433579703120
    Two-Electron Energy =                 274.7494146568174642
    Total Energy =                       -282.8120458527235428
  Basis Set: (AUG-CC-PVTZ AUX)
    Blend: AUG-CC-PVTZ-RI
    Molecular point group: c1

    Geometry (in Angstrom), charge = 0, multiplicity = 1:

       Center              X                  Y                   Z               Mass
    ------------   -----------------  -----------------  -----------------  -----------------
         O           -0.030041130601    -0.315884311119     0.000121006117    15.994914619570
         O           -2.165389230601    -0.296272011119    -0.000300393883    15.994914619570
         N           -1.204177230601     0.426726988881     0.000142606117    14.003074004430
         C            1.123248769399     0.563722988881     0.000027606117    12.000000000000
         C            2.355354769399    -0.313465011119     0.000036606117    12.000000000000
         H            1.079386769399     1.199352988881    -0.889448393883     1.007825032230
         H            1.079448769399     1.199454988881     0.889433606117     1.007825032230
         H            3.255291769399     0.307827988881    -0.000033393883     1.007825032230
         H            2.370566769399    -0.950018011119     0.886905606117     1.007825032230
         H            2.370502769399    -0.950126011119    -0.886756393883     1.007825032230

  Basis Set: AUG-CC-PVTZ
    Blend: AUG-CC-PVTZ
  Basis Set: (AUG-CC-PVTZ AUX)
    Blend: AUG-CC-PVTZ-JKFIT
	 Reference Energy          =    -282.8120458527235428 [Eh]
	 Singles Energy            =      -0.0000000000000000 [Eh]
	 Same-Spin Energy          =      -0.2719257794623765 [Eh]
	 Opposite-Spin Energy      =      -0.8579626145982913 [Eh]
	 Correlation Energy        =      -1.1298883940606679 [Eh]
	 Total Energy              =    -283.9419342467842284 [Eh]

	 ================> DF-SCS-MP2 Energies <==================
	-----------------------------------------------------------
	 SCS Same-Spin Scale       =       0.3333333333333333 [-]
	 SCS Opposite-Spin Scale   =       1.2000000000000000 [-]
	 SCS Same-Spin Energy      =      -0.0906419264874588 [Eh]
	 SCS Opposite-Spin Energy  =      -1.0295551375179495 [Eh]
	 SCS Correlation Energy    =      -1.1201970640054082 [Eh]
	 SCS Total Energy          =    -283.9322429167289670 [Eh]
	-----------------------------------------------------------

  Dipole Moment: [D]
     X:     2.7173      Y:     0.9860      Z:     0.0001     Total:     2.8907

*** Psi4 exiting successfully. Buy a developer a beer!
