                               Psi4 1.4a3.dev225

  ==> Input File <==

--------------------------------------------------------------------------
#psi4
#
memory 32 gb

molecule  {
0 1
  O       -0.1930120     0.3539830    -0.5033360
  O       -2.2078060    -0.3013300    -0.0972570
  N       -1.1670400    -0.0472870     0.4451240
  C        1.0760391     0.6033497     0.1899945
  C        2.0021990    -0.5671560    -0.0255890
  H        1.4499140     1.5239110    -0.2520100
  H        0.8435940     0.7677230     1.2401610
  H        2.9727220    -0.3569890     0.4340390
  H        1.5904030    -1.4715490     0.4285410
  H        2.1535430    -0.7500910    -1.0915870
units angstrom
no_reorient  #important for SAPT in psi4, default
symmetry c1  #important for SAPT in psi4, default
}

set PROPERTIES_ORIGIN ["COM"]
properties('MP2/aug-cc-pvtz', properties = ['dipole'])
--------------------------------------------------------------------------

    Molecular point group: c1
  Charge       = 0
  Multiplicity = 1
  Basis Set: AUG-CC-PVTZ
    Blend: AUG-CC-PVTZ
  Basis Set: (AUG-CC-PVTZ AUX)
    Blend: AUG-CC-PVTZ-JKFIT

    Orbital Energies [Eh]
    ---------------------

    Doubly Occupied:

       1A    -20.647341     2A    -20.627310     3A    -15.785219
       4A    -11.302051     5A    -11.234649     6A     -1.569653
       7A     -1.388417     8A     -1.049738     9A     -0.937584
      10A     -0.859307    11A     -0.737038    12A     -0.714357
      13A     -0.674736    14A     -0.627241    15A     -0.597541
      16A     -0.573332    17A     -0.540109    18A     -0.520477
      19A     -0.471238    20A     -0.448466

  @DF-RHF Final Energy:  -282.80830334835582

   => Energetics <=

    Nuclear Repulsion Energy =            175.1816530241026442
    One-Electron Energy =                -733.3683054741644582
    Two-Electron Energy =                 275.3783491017060214
    Total Energy =                       -282.8083033483558211
  Basis Set: (AUG-CC-PVTZ AUX)
    Blend: AUG-CC-PVTZ-RI
    Molecular point group: c1

    Geometry (in Angstrom), charge = 0, multiplicity = 1:

       Center              X                  Y                   Z               Mass
    ------------   -----------------  -----------------  -----------------  -----------------
         O           -0.076748472529     0.349650176527    -0.494867894709    15.994914619570
         O           -2.091542472529    -0.305662823473    -0.088788894709    15.994914619570
         N           -1.050776472529    -0.051619823473     0.453592105291    14.003074004430
         C            1.192302627471     0.599016876527     0.198462605291    12.000000000000
         C            2.118462527471    -0.571488823473    -0.017120894709    12.000000000000
         H            1.566177527471     1.519578176527    -0.243541894709     1.007825032230
         H            0.959857527471     0.763390176527     1.248629105291     1.007825032230
         H            3.088985527471    -0.361321823473     0.442507105291     1.007825032230
         H            1.706666527471    -1.475881823473     0.437009105291     1.007825032230
         H            2.269806527471    -0.754423823473    -1.083118894709     1.007825032230

  Basis Set: AUG-CC-PVTZ
    Blend: AUG-CC-PVTZ
  Basis Set: (AUG-CC-PVTZ AUX)
    Blend: AUG-CC-PVTZ-JKFIT
	 Reference Energy          =    -282.8083033483558211 [Eh]
	 Singles Energy            =      -0.0000000000000000 [Eh]
	 Same-Spin Energy          =      -0.2732751309689484 [Eh]
	 Opposite-Spin Energy      =      -0.8608615577819185 [Eh]
	 Correlation Energy        =      -1.1341366887508668 [Eh]
	 Total Energy              =    -283.9424400371066781 [Eh]

	 ================> DF-SCS-MP2 Energies <==================
	-----------------------------------------------------------
	 SCS Same-Spin Scale       =       0.3333333333333333 [-]
	 SCS Opposite-Spin Scale   =       1.2000000000000000 [-]
	 SCS Same-Spin Energy      =      -0.0910917103229828 [Eh]
	 SCS Opposite-Spin Energy  =      -1.0330338693383021 [Eh]
	 SCS Correlation Energy    =      -1.1241255796612848 [Eh]
	 SCS Total Energy          =    -283.9324289280170888 [Eh]
	-----------------------------------------------------------

  Dipole Moment: [D]
     X:     2.5962      Y:     0.4089      Z:     0.7584     Total:     2.7354

*** Psi4 exiting successfully. Buy a developer a beer!
