                               Psi4 1.3.2 release

  ==> Input File <==

--------------------------------------------------------------------------
#psi4
#
memory 32 gb

molecule  {
0 1
  O       -0.1512889    -0.3315825     0.0219103
  O       -2.2943480    -0.3022200    -0.0003020
  N       -1.3331360     0.4207790     0.0001410
  C        0.9942900     0.5577750     0.0000260
  C        2.2263960    -0.3194130     0.0000350
  H        0.9504280     1.1934050    -0.8894500
  H        0.9504900     1.1935070     0.8894320
  H        3.1263330     0.3018800    -0.0000350
  H        2.2416080    -0.9559660     0.8869040
  H        2.2415440    -0.9560740    -0.8867580
units angstrom
no_reorient  #important for SAPT in psi4, default
symmetry c1  #important for SAPT in psi4, default
}

set PROPERTIES_ORIGIN ["COM"]
properties('MP2/aug-cc-pvtz', properties = ['dipole'])
--------------------------------------------------------------------------

    Molecular point group: c1
  Charge       = 0
  Multiplicity = 1
  Basis Set: AUG-CC-PVTZ
    Blend: AUG-CC-PVTZ
  Basis Set: (AUG-CC-PVTZ AUX)
    Blend: AUG-CC-PVTZ-JKFIT

    Orbital Energies [Eh]
    ---------------------

    Doubly Occupied:

       1A    -20.645749     2A    -20.631027     3A    -15.783385
       4A    -11.303764     5A    -11.236226     6A     -1.571792
       7A     -1.396483     8A     -1.054365     9A     -0.930322
      10A     -0.862501    11A     -0.741499    12A     -0.705317
      13A     -0.700195    14A     -0.624521    15A     -0.590234
      16A     -0.559306    17A     -0.538598    18A     -0.535914
      19A     -0.471857    20A     -0.448255

  @DF-RHF Final Energy:  -282.81086911801401

   => Energetics <=

    Nuclear Repulsion Energy =            174.4202580617440788
    One-Electron Energy =                -731.7996320192407893
    Two-Electron Energy =                 274.5685048394826708
    Total Energy =                       -282.8108691180140113
  Basis Set: (AUG-CC-PVTZ AUX)
    Blend: AUG-CC-PVTZ-RI
    Molecular point group: c1

    Geometry (in Angstrom), charge = 0, multiplicity = 1:

       Center              X                  Y                   Z               Mass
    ------------   -----------------  -----------------  -----------------  -----------------
         O           -0.023973919117    -0.323556017176     0.017266642056    15.994914619570
         O           -2.167033019117    -0.294193517176    -0.004945657944    15.994914619570
         N           -1.205821019117     0.428805482824    -0.004502657944    14.003074004430
         C            1.121604980883     0.565801482824    -0.004617657944    12.000000000000
         C            2.353710980883    -0.311386517176    -0.004608657944    12.000000000000
         H            1.077742980883     1.201431482824    -0.894093657944     1.007825032230
         H            1.077804980883     1.201533482824     0.884788342056     1.007825032230
         H            3.253647980883     0.309906482824    -0.004678657944     1.007825032230
         H            2.368922980883    -0.947939517176     0.882260342056     1.007825032230
         H            2.368858980883    -0.948047517176    -0.891401657944     1.007825032230

  Basis Set: AUG-CC-PVTZ
    Blend: AUG-CC-PVTZ
  Basis Set: (AUG-CC-PVTZ AUX)
    Blend: AUG-CC-PVTZ-JKFIT
	 Reference Energy          =    -282.8108691180140113 [Eh]
	 Singles Energy            =      -0.0000000000000000 [Eh]
	 Same-Spin Energy          =      -0.2721812759871122 [Eh]
	 Opposite-Spin Energy      =      -0.8588119711351700 [Eh]
	 Correlation Energy        =      -1.1309932471222823 [Eh]
	 Total Energy              =    -283.9418623651362736 [Eh]

	 ================> DF-SCS-MP2 Energies <==================
	-----------------------------------------------------------
	 SCS Same-Spin Scale       =       0.3333333333333333 [-]
	 SCS Opposite-Spin Scale   =       1.2000000000000000 [-]
	 SCS Same-Spin Energy      =      -0.0907270919957041 [Eh]
	 SCS Opposite-Spin Energy  =      -1.0305743653622039 [Eh]
	 SCS Correlation Energy    =      -1.1213014573579079 [Eh]
	 SCS Total Energy          =    -283.9321705753719129 [Eh]
	-----------------------------------------------------------

  Dipole Moment: [D]
     X:     2.6064      Y:     1.0014      Z:    -0.0201     Total:     2.7922

*** Psi4 exiting successfully. Buy a developer a beer!
