                               Psi4 1.3.2 release

  ==> Input File <==

--------------------------------------------------------------------------
#psi4
#
memory 32 gb

molecule  {
0 1
  C       -0.5088830     1.3115130    -0.0227420
  C       -1.3901940     0.2150430     0.0227430
  C        0.8813450     1.0964750     0.0226560
  C       -0.8813440    -1.0964340    -0.0226940
  C        1.3902270    -0.2150110    -0.0227900
  C        0.5089060    -1.3114930     0.0226680
  C       -1.0918162     2.8134522    -0.0917706
  C       -2.8836500     0.4458940     0.0875300
  C        1.8281740     2.2742730     0.0874930
  C       -1.8282270    -2.2741900    -0.0874960
  C        2.8836660    -0.4460300    -0.0874310
  C        1.0556730    -2.7203040     0.0874750
  H       -1.2228990     3.1507820     0.9082400
  H       -0.3731520     3.3838700    -0.6219980
  H       -2.0070850     2.7494970    -0.6221200
  H       -3.1169600     1.3690200     0.6216180
  H       -3.3401820     0.5158720    -0.9081780
  H       -3.3845810    -0.3632220     0.6225760
  H        2.7440520     2.0146320     0.6219170
  H        1.3780590     3.1129020     0.6222310
  H        2.1174310     2.6343160    -0.9082230
  H       -1.3778060    -3.1130310    -0.6216310
  H       -2.1180860    -2.6338480     0.9081850
  H       -2.7438120    -2.0147100    -0.6225210
  H        3.3400770    -0.5159510     0.9083360
  H        3.1168940    -1.3692350    -0.6214080
  H        3.3848100     0.3629430    -0.6224920
  H        0.3729260    -3.3838390     0.6217170
  H        1.2232470    -3.1507440    -0.9082080
  H        2.0069120    -2.7495520     0.6224200
units angstrom
no_reorient  #important for SAPT in psi4, default
symmetry c1  #important for SAPT in psi4, default
}

set PROPERTIES_ORIGIN ["COM"]
properties('MP2/aug-cc-pvtz', properties = ['dipole'])
--------------------------------------------------------------------------

    Molecular point group: c1
  Charge       = 0
  Multiplicity = 1
  Basis Set: AUG-CC-PVTZ
    Blend: AUG-CC-PVTZ
  Basis Set: (AUG-CC-PVTZ AUX)
    Blend: AUG-CC-PVTZ-JKFIT

    Orbital Energies [Eh]
    ---------------------

    Doubly Occupied:

       1A    -11.227219     2A    -11.223743     3A    -11.223458
       4A    -11.222746     5A    -11.222285     6A    -11.221770
       7A    -11.214424     8A    -11.214422     9A    -11.214220
      10A    -11.214219    11A    -11.214144    12A    -11.211968
      13A     -1.151815    14A     -1.065544    15A     -1.059990
      16A     -0.976221    17A     -0.973446    18A     -0.942893
      19A     -0.938741    20A     -0.868444    21A     -0.865259
      22A     -0.744596    23A     -0.743753    24A     -0.677198
      25A     -0.612525    26A     -0.601925    27A     -0.579114
      28A     -0.578201    29A     -0.573273    30A     -0.571169
      31A     -0.562693    32A     -0.553990    33A     -0.547628
      34A     -0.539685    35A     -0.531808    36A     -0.527807
      37A     -0.522323    38A     -0.515085    39A     -0.514173
      40A     -0.498956    41A     -0.451615    42A     -0.440857
      43A     -0.439645    44A     -0.295760    45A     -0.294377

  @DF-RHF Final Energy:  -465.04545194531903

   => Energetics <=

    Nuclear Repulsion Energy =            712.1204319348834133
    One-Electron Energy =               -2041.5615158837154013
    Two-Electron Energy =                 864.3956320035127874
    Total Energy =                       -465.0454519453190869
  Basis Set: (AUG-CC-PVTZ AUX)
    Blend: AUG-CC-PVTZ-RI
    Molecular point group: c1

    Geometry (in Angstrom), charge = 0, multiplicity = 1:

       Center              X                  Y                   Z               Mass
    ------------   -----------------  -----------------  -----------------  -----------------
         C           -0.506208568410     1.304618019098    -0.022422286661    12.000000000000
         C           -1.387519568410     0.208148019098     0.023062713339    12.000000000000
         C            0.884019431590     1.089580019098     0.022975713339    12.000000000000
         C           -0.878669568410    -1.103328980902    -0.022374286661    12.000000000000
         C            1.392901431590    -0.221905980902    -0.022470286661    12.000000000000
         C            0.511580431590    -1.318387980902     0.022987713339    12.000000000000
         C           -1.089141768410     2.806557219098    -0.091450886661    12.000000000000
         C           -2.880975568410     0.438999019098     0.087849713339    12.000000000000
         C            1.830848431590     2.267378019098     0.087812713339    12.000000000000
         C           -1.825552568410    -2.281084980902    -0.087176286661    12.000000000000
         C            2.886340431590    -0.452924980902    -0.087111286661    12.000000000000
         C            1.058347431590    -2.727198980902     0.087794713339    12.000000000000
         H           -1.220224568410     3.143887019098     0.908559713339     1.007825032230
         H           -0.370477568410     3.376975019098    -0.621678286661     1.007825032230
         H           -2.004410568410     2.742602019098    -0.621800286661     1.007825032230
         H           -3.114285568410     1.362125019098     0.621937713339     1.007825032230
         H           -3.337507568410     0.508977019098    -0.907858286661     1.007825032230
         H           -3.381906568410    -0.370116980902     0.622895713339     1.007825032230
         H            2.746726431590     2.007737019098     0.622236713339     1.007825032230
         H            1.380733431590     3.106007019098     0.622550713339     1.007825032230
         H            2.120105431590     2.627421019098    -0.907903286661     1.007825032230
         H           -1.375131568410    -3.119925980902    -0.621311286661     1.007825032230
         H           -2.115411568410    -2.640742980902     0.908504713339     1.007825032230
         H           -2.741137568410    -2.021604980902    -0.622201286661     1.007825032230
         H            3.342751431590    -0.522845980902     0.908655713339     1.007825032230
         H            3.119568431590    -1.376129980902    -0.621088286661     1.007825032230
         H            3.387484431590     0.356048019098    -0.622172286661     1.007825032230
         H            0.375600431590    -3.390733980902     0.622036713339     1.007825032230
         H            1.225921431590    -3.157638980902    -0.907888286661     1.007825032230
         H            2.009586431590    -2.756446980902     0.622739713339     1.007825032230

  Basis Set: AUG-CC-PVTZ
    Blend: AUG-CC-PVTZ
  Basis Set: (AUG-CC-PVTZ AUX)
    Blend: AUG-CC-PVTZ-JKFIT
	 Reference Energy          =    -465.0454519453190301 [Eh]
	 Singles Energy            =      -0.0000000000000000 [Eh]
	 Same-Spin Energy          =      -0.5259126090481984 [Eh]
	 Opposite-Spin Energy      =      -1.7663674733037986 [Eh]
	 Correlation Energy        =      -2.2922800823519971 [Eh]
	 Total Energy              =    -467.3377320276710520 [Eh]

	 ================> DF-SCS-MP2 Energies <==================
	-----------------------------------------------------------
	 SCS Same-Spin Scale       =       0.3333333333333333 [-]
	 SCS Opposite-Spin Scale   =       1.2000000000000000 [-]
	 SCS Same-Spin Energy      =      -0.1753042030160661 [Eh]
	 SCS Opposite-Spin Energy  =      -2.1196409679645583 [Eh]
	 SCS Correlation Energy    =      -2.2949451709806246 [Eh]
	 SCS Total Energy          =    -467.3403971162996413 [Eh]
	-----------------------------------------------------------

  Dipole Moment: [D]
     X:     0.0125      Y:    -0.0322      Z:     0.0047     Total:     0.0349

*** Psi4 exiting successfully. Buy a developer a beer!
