                               Psi4 1.3.2 release

  ==> Input File <==

--------------------------------------------------------------------------
#psi4
#
memory 32 gb

molecule  {
0 1
  C       -0.5088830     1.3115130    -0.0227420
  C       -1.3901940     0.2150430     0.0227430
  C        0.8813450     1.0964750     0.0226560
  C       -0.8813440    -1.0964340    -0.0226940
  C        1.3902270    -0.2150110    -0.0227900
  C        0.5089060    -1.3114930     0.0226680
  C       -1.0195178     2.6271738    -0.0832094
  C       -2.8836500     0.4458940     0.0875300
  C        1.8281740     2.2742730     0.0874930
  C       -1.8282270    -2.2741900    -0.0874960
  C        2.8836660    -0.4460300    -0.0874310
  C        1.0556730    -2.7203040     0.0874750
  H       -1.2228990     3.1507820     0.9082400
  H       -0.3731520     3.3838700    -0.6219980
  H       -2.0070850     2.7494970    -0.6221200
  H       -3.1169600     1.3690200     0.6216180
  H       -3.3401820     0.5158720    -0.9081780
  H       -3.3845810    -0.3632220     0.6225760
  H        2.7440520     2.0146320     0.6219170
  H        1.3780590     3.1129020     0.6222310
  H        2.1174310     2.6343160    -0.9082230
  H       -1.3778060    -3.1130310    -0.6216310
  H       -2.1180860    -2.6338480     0.9081850
  H       -2.7438120    -2.0147100    -0.6225210
  H        3.3400770    -0.5159510     0.9083360
  H        3.1168940    -1.3692350    -0.6214080
  H        3.3848100     0.3629430    -0.6224920
  H        0.3729260    -3.3838390     0.6217170
  H        1.2232470    -3.1507440    -0.9082080
  H        2.0069120    -2.7495520     0.6224200
units angstrom
no_reorient  #important for SAPT in psi4, default
symmetry c1  #important for SAPT in psi4, default
}

set PROPERTIES_ORIGIN ["COM"]
properties('MP2/aug-cc-pvtz', properties = ['dipole'])
--------------------------------------------------------------------------

    Molecular point group: c1
  Charge       = 0
  Multiplicity = 1
  Basis Set: AUG-CC-PVTZ
    Blend: AUG-CC-PVTZ
  Basis Set: (AUG-CC-PVTZ AUX)
    Blend: AUG-CC-PVTZ-JKFIT

    Orbital Energies [Eh]
    ---------------------

    Doubly Occupied:

       1A    -11.224449     2A    -11.223974     3A    -11.223566
       4A    -11.222800     5A    -11.222459     6A    -11.219428
       7A    -11.217162     8A    -11.214662     9A    -11.214520
      10A    -11.214518    11A    -11.214247    12A    -11.214245
      13A     -1.157761    14A     -1.074400    15A     -1.066446
      16A     -0.981131    17A     -0.977164    18A     -0.941498
      19A     -0.939818    20A     -0.865682    21A     -0.861244
      22A     -0.747007    23A     -0.745299    24A     -0.680523
      25A     -0.624330    26A     -0.601062    27A     -0.582274
      28A     -0.573788    29A     -0.572018    30A     -0.570280
      31A     -0.567573    32A     -0.547707    33A     -0.543909
      34A     -0.537094    35A     -0.531567    36A     -0.528513
      37A     -0.522128    38A     -0.518885    39A     -0.508304
      40A     -0.488480    41A     -0.457260    42A     -0.448783
      43A     -0.436129    44A     -0.295095    45A     -0.292618

  @DF-RHF Final Energy:  -465.03970369945336

   => Energetics <=

    Nuclear Repulsion Energy =            716.0507356859779975
    One-Electron Energy =               -2049.3572810311197827
    Two-Electron Energy =                 868.2668416456884870
    Total Energy =                       -465.0397036994532982
  Basis Set: (AUG-CC-PVTZ AUX)
    Blend: AUG-CC-PVTZ-RI
    Molecular point group: c1

    Geometry (in Angstrom), charge = 0, multiplicity = 1:

       Center              X                  Y                   Z               Mass
    ------------   -----------------  -----------------  -----------------  -----------------
         C           -0.511559353217     1.318404432528    -0.023055898732    12.000000000000
         C           -1.392870353217     0.221934432528     0.022429101268    12.000000000000
         C            0.878668646783     1.103366432528     0.022342101268    12.000000000000
         C           -0.884020353217    -1.089542567472    -0.023007898732    12.000000000000
         C            1.387550646783    -0.208119567472    -0.023103898732    12.000000000000
         C            0.506229646783    -1.304601567472     0.022354101268    12.000000000000
         C           -1.022194153217     2.634065232528    -0.083523298732    12.000000000000
         C           -2.886326353217     0.452785432528     0.087216101268    12.000000000000
         C            1.825497646783     2.281164432528     0.087179101268    12.000000000000
         C           -1.830903353217    -2.267298567472    -0.087809898732    12.000000000000
         C            2.880989646783    -0.439138567472    -0.087744898732    12.000000000000
         C            1.052996646783    -2.713412567472     0.087161101268    12.000000000000
         H           -1.225575353217     3.157673432528     0.907926101268     1.007825032230
         H           -0.375828353217     3.390761432528    -0.622311898732     1.007825032230
         H           -2.009761353217     2.756388432528    -0.622433898732     1.007825032230
         H           -3.119636353217     1.375911432528     0.621304101268     1.007825032230
         H           -3.342858353217     0.522763432528    -0.908491898732     1.007825032230
         H           -3.387257353217    -0.356330567472     0.622262101268     1.007825032230
         H            2.741375646783     2.021523432528     0.621603101268     1.007825032230
         H            1.375382646783     3.119793432528     0.621917101268     1.007825032230
         H            2.114754646783     2.641207432528    -0.908536898732     1.007825032230
         H           -1.380482353217    -3.106139567472    -0.621944898732     1.007825032230
         H           -2.120762353217    -2.626956567472     0.907871101268     1.007825032230
         H           -2.746488353217    -2.007818567472    -0.622834898732     1.007825032230
         H            3.337400646783    -0.509059567472     0.908022101268     1.007825032230
         H            3.114217646783    -1.362343567472    -0.621721898732     1.007825032230
         H            3.382133646783     0.369834432528    -0.622805898732     1.007825032230
         H            0.370249646783    -3.376947567472     0.621403101268     1.007825032230
         H            1.220570646783    -3.143852567472    -0.908521898732     1.007825032230
         H            2.004235646783    -2.742660567472     0.622106101268     1.007825032230

  Basis Set: AUG-CC-PVTZ
    Blend: AUG-CC-PVTZ
  Basis Set: (AUG-CC-PVTZ AUX)
    Blend: AUG-CC-PVTZ-JKFIT
	 Reference Energy          =    -465.0397036994533551 [Eh]
	 Singles Energy            =      -0.0000000000000000 [Eh]
	 Same-Spin Energy          =      -0.5279647181437137 [Eh]
	 Opposite-Spin Energy      =      -1.7681452139369249 [Eh]
	 Correlation Energy        =      -2.2961099320806388 [Eh]
	 Total Energy              =    -467.3358136315339948 [Eh]

	 ================> DF-SCS-MP2 Energies <==================
	-----------------------------------------------------------
	 SCS Same-Spin Scale       =       0.3333333333333333 [-]
	 SCS Opposite-Spin Scale   =       1.2000000000000000 [-]
	 SCS Same-Spin Energy      =      -0.1759882393812379 [Eh]
	 SCS Opposite-Spin Energy  =      -2.1217742567243096 [Eh]
	 SCS Correlation Energy    =      -2.2977624961055474 [Eh]
	 SCS Total Energy          =    -467.3374661955588749 [Eh]
	-----------------------------------------------------------

  Dipole Moment: [D]
     X:     0.0025      Y:    -0.0064      Z:    -0.0047     Total:     0.0083

*** Psi4 exiting successfully. Buy a developer a beer!
