                               Psi4 1.3.2 release

  ==> Input File <==

--------------------------------------------------------------------------
#psi4
#
memory 32 gb

molecule  {
0 1
  C       -0.5088830     1.3115130    -0.0227420
  C       -1.4092037     0.2305405     0.0213658
  C        0.8813450     1.0964750     0.0226560
  C       -0.8813440    -1.0964340    -0.0226940
  C        1.3902270    -0.2150110    -0.0227900
  C        0.5089060    -1.3114930     0.0226680
  C       -1.0556670     2.7203130    -0.0874900
  C       -2.8836500     0.4458940     0.0875300
  C        1.8281740     2.2742730     0.0874930
  C       -1.8282270    -2.2741900    -0.0874960
  C        2.8836660    -0.4460300    -0.0874310
  C        1.0556730    -2.7203040     0.0874750
  H       -1.2228990     3.1507820     0.9082400
  H       -0.3731520     3.3838700    -0.6219980
  H       -2.0070850     2.7494970    -0.6221200
  H       -3.1169600     1.3690200     0.6216180
  H       -3.3401820     0.5158720    -0.9081780
  H       -3.3845810    -0.3632220     0.6225760
  H        2.7440520     2.0146320     0.6219170
  H        1.3780590     3.1129020     0.6222310
  H        2.1174310     2.6343160    -0.9082230
  H       -1.3778060    -3.1130310    -0.6216310
  H       -2.1180860    -2.6338480     0.9081850
  H       -2.7438120    -2.0147100    -0.6225210
  H        3.3400770    -0.5159510     0.9083360
  H        3.1168940    -1.3692350    -0.6214080
  H        3.3848100     0.3629430    -0.6224920
  H        0.3729260    -3.3838390     0.6217170
  H        1.2232470    -3.1507440    -0.9082080
  H        2.0069120    -2.7495520     0.6224200
units angstrom
no_reorient  #important for SAPT in psi4, default
symmetry c1  #important for SAPT in psi4, default
}

set PROPERTIES_ORIGIN ["COM"]
properties('MP2/aug-cc-pvtz', properties = ['dipole'])
--------------------------------------------------------------------------

    Molecular point group: c1
  Charge       = 0
  Multiplicity = 1
  Basis Set: AUG-CC-PVTZ
    Blend: AUG-CC-PVTZ
  Basis Set: (AUG-CC-PVTZ AUX)
    Blend: AUG-CC-PVTZ-JKFIT

    Orbital Energies [Eh]
    ---------------------

    Doubly Occupied:

       1A    -11.225438     2A    -11.224224     3A    -11.223955
       4A    -11.223129     5A    -11.222550     6A    -11.222080
       7A    -11.214378     8A    -11.214362     9A    -11.214336
      10A    -11.214139    11A    -11.214026    12A    -11.213665
      13A     -1.152835    14A     -1.067322    15A     -1.065050
      16A     -0.978618    17A     -0.976378    18A     -0.941527
      19A     -0.939571    20A     -0.865282    21A     -0.863583
      22A     -0.745877    23A     -0.743026    24A     -0.678391
      25A     -0.616419    26A     -0.601001    27A     -0.574666
      28A     -0.573813    29A     -0.572936    30A     -0.571460
      31A     -0.570876    32A     -0.548246    33A     -0.547511
      34A     -0.538122    35A     -0.530243    36A     -0.527385
      37A     -0.522601    38A     -0.522031    39A     -0.511607
      40A     -0.496532    41A     -0.454195    42A     -0.447920
      43A     -0.437348    44A     -0.295192    45A     -0.292156

  @DF-RHF Final Energy:  -465.05094539731101

   => Energetics <=

    Nuclear Repulsion Energy =            713.7980161849842489
    One-Electron Energy =               -2044.9059212530128207
    Two-Electron Energy =                 866.0569596707176743
    Total Energy =                       -465.0509453973110112
  Basis Set: (AUG-CC-PVTZ AUX)
    Blend: AUG-CC-PVTZ-RI
    Molecular point group: c1

    Geometry (in Angstrom), charge = 0, multiplicity = 1:

       Center              X                  Y                   Z               Mass
    ------------   -----------------  -----------------  -----------------  -----------------
         C           -0.507477058116     1.310364260077    -0.022637166501    12.000000000000
         C           -1.407797758116     0.229391760077     0.021470633499    12.000000000000
         C            0.882750941884     1.095326260077     0.022760833499    12.000000000000
         C           -0.879938058116    -1.097582739923    -0.022589166501    12.000000000000
         C            1.391632941884    -0.216159739923    -0.022685166501    12.000000000000
         C            0.510311941884    -1.312641739923     0.022772833499    12.000000000000
         C           -1.054261058116     2.719164260077    -0.087385166501    12.000000000000
         C           -2.882244058116     0.444745260077     0.087634833499    12.000000000000
         C            1.829579941884     2.273124260077     0.087597833499    12.000000000000
         C           -1.826821058116    -2.275338739923    -0.087391166501    12.000000000000
         C            2.885071941884    -0.447178739923    -0.087326166501    12.000000000000
         C            1.057078941884    -2.721452739923     0.087579833499    12.000000000000
         H           -1.221493058116     3.149633260077     0.908344833499     1.007825032230
         H           -0.371746058116     3.382721260077    -0.621893166501     1.007825032230
         H           -2.005679058116     2.748348260077    -0.622015166501     1.007825032230
         H           -3.115554058116     1.367871260077     0.621722833499     1.007825032230
         H           -3.338776058116     0.514723260077    -0.908073166501     1.007825032230
         H           -3.383175058116    -0.364370739923     0.622680833499     1.007825032230
         H            2.745457941884     2.013483260077     0.622021833499     1.007825032230
         H            1.379464941884     3.111753260077     0.622335833499     1.007825032230
         H            2.118836941884     2.633167260077    -0.908118166501     1.007825032230
         H           -1.376400058116    -3.114179739923    -0.621526166501     1.007825032230
         H           -2.116680058116    -2.634996739923     0.908289833499     1.007825032230
         H           -2.742406058116    -2.015858739923    -0.622416166501     1.007825032230
         H            3.341482941884    -0.517099739923     0.908440833499     1.007825032230
         H            3.118299941884    -1.370383739923    -0.621303166501     1.007825032230
         H            3.386215941884     0.361794260077    -0.622387166501     1.007825032230
         H            0.374331941884    -3.384987739923     0.621821833499     1.007825032230
         H            1.224652941884    -3.151892739923    -0.908103166501     1.007825032230
         H            2.008317941884    -2.750700739923     0.622524833499     1.007825032230

  Basis Set: AUG-CC-PVTZ
    Blend: AUG-CC-PVTZ
  Basis Set: (AUG-CC-PVTZ AUX)
    Blend: AUG-CC-PVTZ-JKFIT
	 Reference Energy          =    -465.0509453973110112 [Eh]
	 Singles Energy            =      -0.0000000000000000 [Eh]
	 Same-Spin Energy          =      -0.5267205968417885 [Eh]
	 Opposite-Spin Energy      =      -1.7668537772047754 [Eh]
	 Correlation Energy        =      -2.2935743740465639 [Eh]
	 Total Energy              =    -467.3445197713575681 [Eh]

	 ================> DF-SCS-MP2 Energies <==================
	-----------------------------------------------------------
	 SCS Same-Spin Scale       =       0.3333333333333333 [-]
	 SCS Opposite-Spin Scale   =       1.2000000000000000 [-]
	 SCS Same-Spin Energy      =      -0.1755735322805962 [Eh]
	 SCS Opposite-Spin Energy  =      -2.1202245326457305 [Eh]
	 SCS Correlation Energy    =      -2.2957980649263265 [Eh]
	 SCS Total Energy          =    -467.3467434622373275 [Eh]
	-----------------------------------------------------------

  Dipole Moment: [D]
     X:    -0.0220      Y:    -0.0043      Z:     0.0042     Total:     0.0229

*** Psi4 exiting successfully. Buy a developer a beer!
