                               Psi4 1.3.2 release

  ==> Input File <==

--------------------------------------------------------------------------
#psi4
#
memory 32 gb

molecule  {
0 1
  C       -0.5088830     1.3115130    -0.0227420
  C       -1.4279392     0.2463673     0.0199751
  C        0.8813450     1.0964750     0.0226560
  C       -0.8813440    -1.0964340    -0.0226940
  C        1.3902270    -0.2150110    -0.0227900
  C        0.5089060    -1.3114930     0.0226680
  C       -1.0556670     2.7203130    -0.0874900
  C       -2.8836500     0.4458940     0.0875300
  C        1.8281740     2.2742730     0.0874930
  C       -1.8282270    -2.2741900    -0.0874960
  C        2.8836660    -0.4460300    -0.0874310
  C        1.0556730    -2.7203040     0.0874750
  H       -1.2228990     3.1507820     0.9082400
  H       -0.3731520     3.3838700    -0.6219980
  H       -2.0070850     2.7494970    -0.6221200
  H       -3.1169600     1.3690200     0.6216180
  H       -3.3401820     0.5158720    -0.9081780
  H       -3.3845810    -0.3632220     0.6225760
  H        2.7440520     2.0146320     0.6219170
  H        1.3780590     3.1129020     0.6222310
  H        2.1174310     2.6343160    -0.9082230
  H       -1.3778060    -3.1130310    -0.6216310
  H       -2.1180860    -2.6338480     0.9081850
  H       -2.7438120    -2.0147100    -0.6225210
  H        3.3400770    -0.5159510     0.9083360
  H        3.1168940    -1.3692350    -0.6214080
  H        3.3848100     0.3629430    -0.6224920
  H        0.3729260    -3.3838390     0.6217170
  H        1.2232470    -3.1507440    -0.9082080
  H        2.0069120    -2.7495520     0.6224200
units angstrom
no_reorient  #important for SAPT in psi4, default
symmetry c1  #important for SAPT in psi4, default
}

set PROPERTIES_ORIGIN ["COM"]
properties('MP2/aug-cc-pvtz', properties = ['dipole'])
--------------------------------------------------------------------------

    Molecular point group: c1
  Charge       = 0
  Multiplicity = 1
  Basis Set: AUG-CC-PVTZ
    Blend: AUG-CC-PVTZ
  Basis Set: (AUG-CC-PVTZ AUX)
    Blend: AUG-CC-PVTZ-JKFIT

    Orbital Energies [Eh]
    ---------------------

    Doubly Occupied:

       1A    -11.227256     2A    -11.225243     3A    -11.224133
       4A    -11.223374     5A    -11.222579     6A    -11.222167
       7A    -11.214438     8A    -11.214407     9A    -11.214350
      10A    -11.213977    11A    -11.213685    12A    -11.213013
      13A     -1.151770    14A     -1.068914    15A     -1.064303
      16A     -0.980758    17A     -0.976159    18A     -0.941749
      19A     -0.939326    20A     -0.865146    21A     -0.861835
      22A     -0.746669    23A     -0.740989    24A     -0.678184
      25A     -0.616578    26A     -0.601168    27A     -0.576021
      28A     -0.575068    29A     -0.573767    30A     -0.571770
      31A     -0.570883    32A     -0.548839    33A     -0.547370
      34A     -0.538283    35A     -0.532003    36A     -0.526835
      37A     -0.522938    38A     -0.521825    39A     -0.509983
      40A     -0.496703    41A     -0.457034    42A     -0.444534
      43A     -0.435846    44A     -0.295752    45A     -0.289700

  @DF-RHF Final Energy:  -465.04821179385249

   => Energetics <=

    Nuclear Repulsion Energy =            713.5771885429209078
    One-Electron Energy =               -2044.4561538420489342
    Two-Electron Energy =                 865.8307535052756521
    Total Energy =                       -465.0482117938524880
  Basis Set: (AUG-CC-PVTZ AUX)
    Blend: AUG-CC-PVTZ-RI
    Molecular point group: c1

    Geometry (in Angstrom), charge = 0, multiplicity = 1:

       Center              X                  Y                   Z               Mass
    ------------   -----------------  -----------------  -----------------  -----------------
         C           -0.506090448886     1.309192922939    -0.022534241175    12.000000000000
         C           -1.425146648886     0.244047222939     0.020182858825    12.000000000000
         C            0.884137551114     1.094154922939     0.022863758825    12.000000000000
         C           -0.878551448886    -1.098754077061    -0.022486241175    12.000000000000
         C            1.393019551114    -0.217331077061    -0.022582241175    12.000000000000
         C            0.511698551114    -1.313813077061     0.022875758825    12.000000000000
         C           -1.052874448886     2.717992922939    -0.087282241175    12.000000000000
         C           -2.880857448886     0.443573922939     0.087737758825    12.000000000000
         C            1.830966551114     2.271952922939     0.087700758825    12.000000000000
         C           -1.825434448886    -2.276510077061    -0.087288241175    12.000000000000
         C            2.886458551114    -0.448350077061    -0.087223241175    12.000000000000
         C            1.058465551114    -2.722624077061     0.087682758825    12.000000000000
         H           -1.220106448886     3.148461922939     0.908447758825     1.007825032230
         H           -0.370359448886     3.381549922939    -0.621790241175     1.007825032230
         H           -2.004292448886     2.747176922939    -0.621912241175     1.007825032230
         H           -3.114167448886     1.366699922939     0.621825758825     1.007825032230
         H           -3.337389448886     0.513551922939    -0.907970241175     1.007825032230
         H           -3.381788448886    -0.365542077061     0.622783758825     1.007825032230
         H            2.746844551114     2.012311922939     0.622124758825     1.007825032230
         H            1.380851551114     3.110581922939     0.622438758825     1.007825032230
         H            2.120223551114     2.631995922939    -0.908015241175     1.007825032230
         H           -1.375013448886    -3.115351077061    -0.621423241175     1.007825032230
         H           -2.115293448886    -2.636168077061     0.908392758825     1.007825032230
         H           -2.741019448886    -2.017030077061    -0.622313241175     1.007825032230
         H            3.342869551114    -0.518271077061     0.908543758825     1.007825032230
         H            3.119686551114    -1.371555077061    -0.621200241175     1.007825032230
         H            3.387602551114     0.360622922939    -0.622284241175     1.007825032230
         H            0.375718551114    -3.386159077061     0.621924758825     1.007825032230
         H            1.226039551114    -3.153064077061    -0.908000241175     1.007825032230
         H            2.009704551114    -2.751872077061     0.622627758825     1.007825032230

  Basis Set: AUG-CC-PVTZ
    Blend: AUG-CC-PVTZ
  Basis Set: (AUG-CC-PVTZ AUX)
    Blend: AUG-CC-PVTZ-JKFIT
	 Reference Energy          =    -465.0482117938524880 [Eh]
	 Singles Energy            =      -0.0000000000000000 [Eh]
	 Same-Spin Energy          =      -0.5269913000179964 [Eh]
	 Opposite-Spin Energy      =      -1.7672808466428200 [Eh]
	 Correlation Energy        =      -2.2942721466608162 [Eh]
	 Total Energy              =    -467.3424839405133184 [Eh]

	 ================> DF-SCS-MP2 Energies <==================
	-----------------------------------------------------------
	 SCS Same-Spin Scale       =       0.3333333333333333 [-]
	 SCS Opposite-Spin Scale   =       1.2000000000000000 [-]
	 SCS Same-Spin Energy      =      -0.1756637666726655 [Eh]
	 SCS Opposite-Spin Energy  =      -2.1207370159713839 [Eh]
	 SCS Correlation Energy    =      -2.2964007826440493 [Eh]
	 SCS Total Energy          =    -467.3446125764965586 [Eh]
	-----------------------------------------------------------

  Dipole Moment: [D]
     X:    -0.0439      Y:    -0.0087      Z:     0.0083     Total:     0.0455

*** Psi4 exiting successfully. Buy a developer a beer!
