                               Psi4 1.3.2 release

  ==> Input File <==

--------------------------------------------------------------------------
#psi4
#
memory 32 gb

molecule  {
0 1
  C       -0.5088830     1.3115130    -0.0227420
  C       -1.3901940     0.2150430     0.0227430
  C        0.8813450     1.0964750     0.0226560
  C       -0.8813440    -1.0964340    -0.0226940
  C        1.3902270    -0.2150110    -0.0227900
  C        0.5089060    -1.3114930     0.0226680
  C       -1.0556670     2.7203130    -0.0874900
  C       -2.8836500     0.4458940     0.0875300
  C        1.8281740     2.2742730     0.0874930
  C       -1.8282270    -2.2741900    -0.0874960
  C        2.8836660    -0.4460300    -0.0874310
  C        1.0556730    -2.7203040     0.0874750
  H       -1.2228990     3.1507820     0.9082400
  H       -0.3731520     3.3838700    -0.6219980
  H       -2.0070850     2.7494970    -0.6221200
  H       -3.1169600     1.3690200     0.6216180
  H       -3.3401820     0.5158720    -0.9081780
  H       -3.3845810    -0.3632220     0.6225760
  H        2.7440520     2.0146320     0.6219170
  H        1.3780590     3.1129020     0.6222310
  H        2.1174310     2.6343160    -0.9082230
  H       -1.3778060    -3.1130310    -0.6216310
  H       -2.1180860    -2.6338480     0.9081850
  H       -2.7438120    -2.0147100    -0.6225210
  H        3.3400770    -0.5159510     0.9083360
  H        3.1168940    -1.3692350    -0.6214080
  H        3.3848100     0.3629430    -0.6224920
  H        0.3729260    -3.3838390     0.6217170
  H        1.2232470    -3.1507440    -0.9082080
  H        2.0069120    -2.7495520     0.6224200
units angstrom
no_reorient  #important for SAPT in psi4, default
symmetry c1  #important for SAPT in psi4, default
}

set PROPERTIES_ORIGIN ["COM"]
properties('MP2/aug-cc-pvtz', properties = ['dipole'])
--------------------------------------------------------------------------

    Molecular point group: c1
  Charge       = 0
  Multiplicity = 1
  Basis Set: AUG-CC-PVTZ
    Blend: AUG-CC-PVTZ
  Basis Set: (AUG-CC-PVTZ AUX)
    Blend: AUG-CC-PVTZ-JKFIT

    Orbital Energies [Eh]
    ---------------------

    Doubly Occupied:

       1A    -11.224127     2A    -11.223589     3A    -11.223585
       4A    -11.222421     5A    -11.222416     6A    -11.221847
       7A    -11.214323     8A    -11.214323     9A    -11.214322
      10A    -11.214318    11A    -11.214317    12A    -11.214314
      13A     -1.154040    14A     -1.065897    15A     -1.065884
      16A     -0.976621    17A     -0.976603    18A     -0.942000
      19A     -0.939001    20A     -0.865399    21A     -0.865396
      22A     -0.745084    23A     -0.745074    24A     -0.678578
      25A     -0.616430    26A     -0.600910    27A     -0.573884
      28A     -0.573873    29A     -0.571132    30A     -0.571115
      31A     -0.570376    32A     -0.547658    33A     -0.547635
      34A     -0.537928    35A     -0.528275    36A     -0.528271
      37A     -0.522226    38A     -0.522206    39A     -0.513039
      40A     -0.496353    41A     -0.450964    42A     -0.450958
      43A     -0.438934    44A     -0.294646    45A     -0.294643

  @DF-RHF Final Energy:  -465.05223698202076

   => Energetics <=

    Nuclear Repulsion Energy =            714.0288545842262238
    One-Electron Energy =               -2045.3723129669067475
    Two-Electron Energy =                 866.2912214006598788
    Total Energy =                       -465.0522369820207587
  Basis Set: (AUG-CC-PVTZ AUX)
    Blend: AUG-CC-PVTZ-RI
    Molecular point group: c1

    Geometry (in Angstrom), charge = 0, multiplicity = 1:

       Center              X                  Y                   Z               Mass
    ------------   -----------------  -----------------  -----------------  -----------------
         C           -0.508883960814     1.311511225813    -0.022739092697    12.000000000000
         C           -1.390194960814     0.215041225813     0.022745907303    12.000000000000
         C            0.881344039186     1.096473225813     0.022658907303    12.000000000000
         C           -0.881344960814    -1.096435774187    -0.022691092697    12.000000000000
         C            1.390226039186    -0.215012774187    -0.022787092697    12.000000000000
         C            0.508905039186    -1.311494774187     0.022670907303    12.000000000000
         C           -1.055667960814     2.720311225813    -0.087487092697    12.000000000000
         C           -2.883650960814     0.445892225813     0.087532907303    12.000000000000
         C            1.828173039186     2.274271225813     0.087495907303    12.000000000000
         C           -1.828227960814    -2.274191774187    -0.087493092697    12.000000000000
         C            2.883665039186    -0.446031774187    -0.087428092697    12.000000000000
         C            1.055672039186    -2.720305774187     0.087477907303    12.000000000000
         H           -1.222899960814     3.150780225813     0.908242907303     1.007825032230
         H           -0.373152960814     3.383868225813    -0.621995092697     1.007825032230
         H           -2.007085960814     2.749495225813    -0.622117092697     1.007825032230
         H           -3.116960960814     1.369018225813     0.621620907303     1.007825032230
         H           -3.340182960814     0.515870225813    -0.908175092697     1.007825032230
         H           -3.384581960814    -0.363223774187     0.622578907303     1.007825032230
         H            2.744051039186     2.014630225813     0.621919907303     1.007825032230
         H            1.378058039186     3.112900225813     0.622233907303     1.007825032230
         H            2.117430039186     2.634314225813    -0.908220092697     1.007825032230
         H           -1.377806960814    -3.113032774187    -0.621628092697     1.007825032230
         H           -2.118086960814    -2.633849774187     0.908187907303     1.007825032230
         H           -2.743812960814    -2.014711774187    -0.622518092697     1.007825032230
         H            3.340076039186    -0.515952774187     0.908338907303     1.007825032230
         H            3.116893039186    -1.369236774187    -0.621405092697     1.007825032230
         H            3.384809039186     0.362941225813    -0.622489092697     1.007825032230
         H            0.372925039186    -3.383840774187     0.621719907303     1.007825032230
         H            1.223246039186    -3.150745774187    -0.908205092697     1.007825032230
         H            2.006911039186    -2.749553774187     0.622422907303     1.007825032230

  Basis Set: AUG-CC-PVTZ
    Blend: AUG-CC-PVTZ
  Basis Set: (AUG-CC-PVTZ AUX)
    Blend: AUG-CC-PVTZ-JKFIT
	 Reference Energy          =    -465.0522369820207587 [Eh]
	 Singles Energy            =      -0.0000000000000000 [Eh]
	 Same-Spin Energy          =      -0.5264859648377421 [Eh]
	 Opposite-Spin Energy      =      -1.7665202652440426 [Eh]
	 Correlation Energy        =      -2.2930062300817848 [Eh]
	 Total Energy              =    -467.3452432121025595 [Eh]

	 ================> DF-SCS-MP2 Energies <==================
	-----------------------------------------------------------
	 SCS Same-Spin Scale       =       0.3333333333333333 [-]
	 SCS Opposite-Spin Scale   =       1.2000000000000000 [-]
	 SCS Same-Spin Energy      =      -0.1754953216125807 [Eh]
	 SCS Opposite-Spin Energy  =      -2.1198243182928511 [Eh]
	 SCS Correlation Energy    =      -2.2953196399054319 [Eh]
	 SCS Total Energy          =    -467.3475566219261736 [Eh]
	-----------------------------------------------------------

  Dipole Moment: [D]
     X:     0.0000      Y:    -0.0000      Z:     0.0001     Total:     0.0001

*** Psi4 exiting successfully. Buy a developer a beer!
