                               Psi4 1.4a3.dev225

  ==> Input File <==

--------------------------------------------------------------------------
#psi4
#
memory 32 gb

molecule  {
0 1
  C        1.3213680    -0.4826540     0.0227320
  C        0.2426940    -1.3856650    -0.0227310
  C        1.0786750     0.9030120    -0.0227320
  C       -1.0786740    -0.9030120     0.0227310
  C       -0.2426940     1.3856650     0.0227310
  C       -1.3213680     0.4826540    -0.0227320
  C        2.7220742    -0.9942864     0.0866189
  C        0.5034070    -2.8742110    -0.0874730
  C        2.2374380     1.8730680    -0.0874750
  C       -2.2374370    -1.8730680     0.0874710
  C       -0.5034080     2.8742110     0.0874730
  C       -2.7408430     1.0011420    -0.0874710
  H        3.1746400    -1.1595960    -0.9082440
  H        3.3905060    -0.3054150     0.6220360
  H        2.7891340    -1.9518050     0.6220400
  H        1.4307530    -3.0889730    -0.6220380
  H        0.5830830    -3.3291160     0.9082460
  H       -0.2957480    -3.3913640    -0.6220350
  H        1.9597520     2.7835590    -0.6220300
  H        3.0848770     1.4395570    -0.6220470
  H        2.5915670     2.1695120     0.9082440
  H       -3.0848780    -1.4395580     0.6220420
  H       -2.5915640    -2.1695110    -0.9082490
  H       -1.9597530    -2.7835590     0.6220250
  H       -0.5830940     3.3291140    -0.9082460
  H       -1.4307490     3.0889720     0.6220460
  H        0.2957510     3.3913660     0.6220270
  H       -3.3905060     0.3054170    -0.6220350
  H       -3.1746380     1.1595910     0.9082490
  H       -2.7891350     1.9518070    -0.6220320
units angstrom
no_reorient  #important for SAPT in psi4, default
symmetry c1  #important for SAPT in psi4, default
}

set PROPERTIES_ORIGIN ["COM"]
properties('MP2/aug-cc-pvtz', properties = ['dipole'])
--------------------------------------------------------------------------

    Molecular point group: c1
  Charge       = 0
  Multiplicity = 1
  Basis Set: AUG-CC-PVTZ
    Blend: AUG-CC-PVTZ
  Basis Set: (AUG-CC-PVTZ AUX)
    Blend: AUG-CC-PVTZ-JKFIT

    Orbital Energies [Eh]
    ---------------------

    Doubly Occupied:

       1A    -11.224106     2A    -11.223640     3A    -11.223384
       4A    -11.222471     5A    -11.222213     6A    -11.221492
       7A    -11.215127     8A    -11.214372     9A    -11.214350
      10A    -11.214349    11A    -11.214302    12A    -11.214301
      13A     -1.154633    14A     -1.067356    15A     -1.065980
      16A     -0.977400    17A     -0.976706    18A     -0.941869
      19A     -0.939113    20A     -0.865441    21A     -0.864657
      22A     -0.745407    23A     -0.745160    24A     -0.678915
      25A     -0.617606    26A     -0.600863    27A     -0.573796
      28A     -0.573753    29A     -0.572285    30A     -0.570805
      31A     -0.570269    32A     -0.547656    33A     -0.546476
      34A     -0.537103    35A     -0.530471    36A     -0.528290
      37A     -0.522202    38A     -0.520893    39A     -0.512315
      40A     -0.495354    41A     -0.452510    42A     -0.450706
      43A     -0.438496    44A     -0.294718    45A     -0.294328

  @DF-RHF Final Energy:  -465.05149904503747

   => Energetics <=

    Nuclear Repulsion Energy =            714.4215351770349116
    One-Electron Energy =               -2046.1507932770587104
    Two-Electron Energy =                 866.6777590549863817
    Total Energy =                       -465.0514990450374171
  Basis Set: (AUG-CC-PVTZ AUX)
    Blend: AUG-CC-PVTZ-RI
    Molecular point group: c1

    Geometry (in Angstrom), charge = 0, multiplicity = 1:

       Center              X                  Y                   Z               Mass
    ------------   -----------------  -----------------  -----------------  -----------------
         C            1.322757012176    -0.483161368649     0.022795439952    12.000000000000
         C            0.244083012176    -1.386172368649    -0.022667560048    12.000000000000
         C            1.080064012176     0.902504631351    -0.022668560048    12.000000000000
         C           -1.077284987824    -0.903519368649     0.022794439952    12.000000000000
         C           -0.241304987824     1.385157631351     0.022794439952    12.000000000000
         C           -1.319978987824     0.482146631351    -0.022668560048    12.000000000000
         C            2.723463212176    -0.994793768649     0.086682339952    12.000000000000
         C            0.504796012176    -2.874718368649    -0.087409560048    12.000000000000
         C            2.238827012176     1.872560631351    -0.087411560048    12.000000000000
         C           -2.236047987824    -1.873575368649     0.087534439952    12.000000000000
         C           -0.502018987824     2.873703631351     0.087536439952    12.000000000000
         C           -2.739453987824     1.000634631351    -0.087407560048    12.000000000000
         H            3.176029012176    -1.160103368649    -0.908180560048     1.007825032230
         H            3.391895012176    -0.305922368649     0.622099439952     1.007825032230
         H            2.790523012176    -1.952312368649     0.622103439952     1.007825032230
         H            1.432142012176    -3.089480368649    -0.621974560048     1.007825032230
         H            0.584472012176    -3.329623368649     0.908309439952     1.007825032230
         H           -0.294358987824    -3.391871368649    -0.621971560048     1.007825032230
         H            1.961141012176     2.783051631351    -0.621966560048     1.007825032230
         H            3.086266012176     1.439049631351    -0.621983560048     1.007825032230
         H            2.592956012176     2.169004631351     0.908307439952     1.007825032230
         H           -3.083488987824    -1.440065368649     0.622105439952     1.007825032230
         H           -2.590174987824    -2.170018368649    -0.908185560048     1.007825032230
         H           -1.958363987824    -2.784066368649     0.622088439952     1.007825032230
         H           -0.581704987824     3.328606631351    -0.908182560048     1.007825032230
         H           -1.429359987824     3.088464631351     0.622109439952     1.007825032230
         H            0.297140012176     3.390858631351     0.622090439952     1.007825032230
         H           -3.389116987824     0.304909631351    -0.621971560048     1.007825032230
         H           -3.173248987824     1.159083631351     0.908312439952     1.007825032230
         H           -2.787745987824     1.951299631351    -0.621968560048     1.007825032230

  Basis Set: AUG-CC-PVTZ
    Blend: AUG-CC-PVTZ
  Basis Set: (AUG-CC-PVTZ AUX)
    Blend: AUG-CC-PVTZ-JKFIT
	 Reference Energy          =    -465.0514990450374739 [Eh]
	 Singles Energy            =      -0.0000000000000000 [Eh]
	 Same-Spin Energy          =      -0.5267039389877316 [Eh]
	 Opposite-Spin Energy      =      -1.7667189112176174 [Eh]
	 Correlation Energy        =      -2.2934228502053489 [Eh]
	 Total Energy              =    -467.3449218952428055 [Eh]

	 ================> DF-SCS-MP2 Energies <==================
	-----------------------------------------------------------
	 SCS Same-Spin Scale       =       0.3333333333333333 [-]
	 SCS Opposite-Spin Scale   =       1.2000000000000000 [-]
	 SCS Same-Spin Energy      =      -0.1755679796625772 [Eh]
	 SCS Opposite-Spin Energy  =      -2.1200626934611408 [Eh]
	 SCS Correlation Energy    =      -2.2956306731237182 [Eh]
	 SCS Total Energy          =    -467.3471297181611703 [Eh]
	-----------------------------------------------------------

  Dipole Moment: [D]
     X:     0.0021      Y:    -0.0008      Z:     0.0009     Total:     0.0024

*** Psi4 exiting successfully. Buy a developer a beer!
