                               Psi4 1.3.2 release

  ==> Input File <==

--------------------------------------------------------------------------
#psi4
#
memory 32 gb

molecule  {
0 1
  C       -0.5088830     1.3115130    -0.0227420
  C       -1.3901940     0.2150430     0.0227430
  C        0.8880514     1.1451190     0.0211157
  C       -0.8813440    -1.0964340    -0.0226940
  C        1.3902270    -0.2150110    -0.0227900
  C        0.5089060    -1.3114930     0.0226680
  C       -1.0556670     2.7203130    -0.0874900
  C       -2.8836500     0.4458940     0.0875300
  C        1.8281740     2.2742730     0.0874930
  C       -1.8282270    -2.2741900    -0.0874960
  C        2.8836660    -0.4460300    -0.0874310
  C        1.0556730    -2.7203040     0.0874750
  H       -1.2228990     3.1507820     0.9082400
  H       -0.3731520     3.3838700    -0.6219980
  H       -2.0070850     2.7494970    -0.6221200
  H       -3.1169600     1.3690200     0.6216180
  H       -3.3401820     0.5158720    -0.9081780
  H       -3.3845810    -0.3632220     0.6225760
  H        2.7440520     2.0146320     0.6219170
  H        1.3780590     3.1129020     0.6222310
  H        2.1174310     2.6343160    -0.9082230
  H       -1.3778060    -3.1130310    -0.6216310
  H       -2.1180860    -2.6338480     0.9081850
  H       -2.7438120    -2.0147100    -0.6225210
  H        3.3400770    -0.5159510     0.9083360
  H        3.1168940    -1.3692350    -0.6214080
  H        3.3848100     0.3629430    -0.6224920
  H        0.3729260    -3.3838390     0.6217170
  H        1.2232470    -3.1507440    -0.9082080
  H        2.0069120    -2.7495520     0.6224200
units angstrom
no_reorient  #important for SAPT in psi4, default
symmetry c1  #important for SAPT in psi4, default
}

set PROPERTIES_ORIGIN ["COM"]
properties('MP2/aug-cc-pvtz', properties = ['dipole'])
--------------------------------------------------------------------------

    Molecular point group: c1
  Charge       = 0
  Multiplicity = 1
  Basis Set: AUG-CC-PVTZ
    Blend: AUG-CC-PVTZ
  Basis Set: (AUG-CC-PVTZ AUX)
    Blend: AUG-CC-PVTZ-JKFIT

    Orbital Energies [Eh]
    ---------------------

    Doubly Occupied:

       1A    -11.227269     2A    -11.225255     3A    -11.224130
       4A    -11.223376     5A    -11.222576     6A    -11.222163
       7A    -11.214436     8A    -11.214408     9A    -11.214348
      10A    -11.213979    11A    -11.213679    12A    -11.213013
      13A     -1.151767    14A     -1.068910    15A     -1.064308
      16A     -0.980776    17A     -0.976147    18A     -0.941750
      19A     -0.939327    20A     -0.865146    21A     -0.861829
      22A     -0.746670    23A     -0.740979    24A     -0.678178
      25A     -0.616580    26A     -0.601170    27A     -0.576064
      28A     -0.575036    29A     -0.573768    30A     -0.571762
      31A     -0.570891    32A     -0.548850    33A     -0.547365
      34A     -0.538281    35A     -0.532009    36A     -0.526831
      37A     -0.522951    38A     -0.521813    39A     -0.509971
      40A     -0.496703    41A     -0.457043    42A     -0.444523
      43A     -0.435842    44A     -0.295750    45A     -0.289691

  @DF-RHF Final Energy:  -465.04818359545749

   => Energetics <=

    Nuclear Repulsion Energy =            713.5763635797488860
    One-Electron Energy =               -2044.4544703087019570
    Two-Electron Energy =                 865.8299231334956403
    Total Energy =                       -465.0481835954574308
  Basis Set: (AUG-CC-PVTZ AUX)
    Blend: AUG-CC-PVTZ-RI
    Molecular point group: c1

    Geometry (in Angstrom), charge = 0, multiplicity = 1:

       Center              X                  Y                   Z               Mass
    ------------   -----------------  -----------------  -----------------  -----------------
         C           -0.509380299643     1.307911096679    -0.022625095515    12.000000000000
         C           -1.390691299643     0.211441096679     0.022859904485    12.000000000000
         C            0.887554100357     1.141517096679     0.021232604485    12.000000000000
         C           -0.881841299643    -1.100035903321    -0.022577095515    12.000000000000
         C            1.389729700357    -0.218612903321    -0.022673095515    12.000000000000
         C            0.508408700357    -1.315094903321     0.022784904485    12.000000000000
         C           -1.056164299643     2.716711096679    -0.087373095515    12.000000000000
         C           -2.884147299643     0.442292096679     0.087646904485    12.000000000000
         C            1.827676700357     2.270671096679     0.087609904485    12.000000000000
         C           -1.828724299643    -2.277791903321    -0.087379095515    12.000000000000
         C            2.883168700357    -0.449631903321    -0.087314095515    12.000000000000
         C            1.055175700357    -2.723905903321     0.087591904485    12.000000000000
         H           -1.223396299643     3.147180096679     0.908356904485     1.007825032230
         H           -0.373649299643     3.380268096679    -0.621881095515     1.007825032230
         H           -2.007582299643     2.745895096679    -0.622003095515     1.007825032230
         H           -3.117457299643     1.365418096679     0.621734904485     1.007825032230
         H           -3.340679299643     0.512270096679    -0.908061095515     1.007825032230
         H           -3.385078299643    -0.366823903321     0.622692904485     1.007825032230
         H            2.743554700357     2.011030096679     0.622033904485     1.007825032230
         H            1.377561700357     3.109300096679     0.622347904485     1.007825032230
         H            2.116933700357     2.630714096679    -0.908106095515     1.007825032230
         H           -1.378303299643    -3.116632903321    -0.621514095515     1.007825032230
         H           -2.118583299643    -2.637449903321     0.908301904485     1.007825032230
         H           -2.744309299643    -2.018311903321    -0.622404095515     1.007825032230
         H            3.339579700357    -0.519552903321     0.908452904485     1.007825032230
         H            3.116396700357    -1.372836903321    -0.621291095515     1.007825032230
         H            3.384312700357     0.359341096679    -0.622375095515     1.007825032230
         H            0.372428700357    -3.387440903321     0.621833904485     1.007825032230
         H            1.222749700357    -3.154345903321    -0.908091095515     1.007825032230
         H            2.006414700357    -2.753153903321     0.622536904485     1.007825032230

  Basis Set: AUG-CC-PVTZ
    Blend: AUG-CC-PVTZ
  Basis Set: (AUG-CC-PVTZ AUX)
    Blend: AUG-CC-PVTZ-JKFIT
	 Reference Energy          =    -465.0481835954574876 [Eh]
	 Singles Energy            =      -0.0000000000000000 [Eh]
	 Same-Spin Energy          =      -0.5269929869074136 [Eh]
	 Opposite-Spin Energy      =      -1.7672841134919983 [Eh]
	 Correlation Energy        =      -2.2942771003994120 [Eh]
	 Total Energy              =    -467.3424606958569143 [Eh]

	 ================> DF-SCS-MP2 Energies <==================
	-----------------------------------------------------------
	 SCS Same-Spin Scale       =       0.3333333333333333 [-]
	 SCS Opposite-Spin Scale   =       1.2000000000000000 [-]
	 SCS Same-Spin Energy      =      -0.1756643289691379 [Eh]
	 SCS Opposite-Spin Energy  =      -2.1207409361903977 [Eh]
	 SCS Correlation Energy    =      -2.2964052651595357 [Eh]
	 SCS Total Energy          =    -467.3445888606170229 [Eh]
	-----------------------------------------------------------

  Dipole Moment: [D]
     X:     0.0383      Y:     0.0233      Z:     0.0078     Total:     0.0455

*** Psi4 exiting successfully. Buy a developer a beer!
