                               Psi4 1.3.2 release

  ==> Input File <==

--------------------------------------------------------------------------
#psi4
#
memory 32 gb

molecule  {
0 1
  C       -0.5088830     1.3115130    -0.0227420
  C       -1.3901940     0.2150430     0.0227430
  C        0.8511061     0.9523503     0.0269378
  C       -0.8813440    -1.0964340    -0.0226940
  C        1.3902270    -0.2150110    -0.0227900
  C        0.5089060    -1.3114930     0.0226680
  C       -1.0556670     2.7203130    -0.0874900
  C       -2.8836500     0.4458940     0.0875300
  C        1.8281740     2.2742730     0.0874930
  C       -1.8282270    -2.2741900    -0.0874960
  C        2.8836660    -0.4460300    -0.0874310
  C        1.0556730    -2.7203040     0.0874750
  H       -1.2228990     3.1507820     0.9082400
  H       -0.3731520     3.3838700    -0.6219980
  H       -2.0070850     2.7494970    -0.6221200
  H       -3.1169600     1.3690200     0.6216180
  H       -3.3401820     0.5158720    -0.9081780
  H       -3.3845810    -0.3632220     0.6225760
  H        2.7440520     2.0146320     0.6219170
  H        1.3780590     3.1129020     0.6222310
  H        2.1174310     2.6343160    -0.9082230
  H       -1.3778060    -3.1130310    -0.6216310
  H       -2.1180860    -2.6338480     0.9081850
  H       -2.7438120    -2.0147100    -0.6225210
  H        3.3400770    -0.5159510     0.9083360
  H        3.1168940    -1.3692350    -0.6214080
  H        3.3848100     0.3629430    -0.6224920
  H        0.3729260    -3.3838390     0.6217170
  H        1.2232470    -3.1507440    -0.9082080
  H        2.0069120    -2.7495520     0.6224200
units angstrom
no_reorient  #important for SAPT in psi4, default
symmetry c1  #important for SAPT in psi4, default
}

set PROPERTIES_ORIGIN ["COM"]
properties('MP2/aug-cc-pvtz', properties = ['dipole'])
--------------------------------------------------------------------------

    Molecular point group: c1
  Charge       = 0
  Multiplicity = 1
  Basis Set: AUG-CC-PVTZ
    Blend: AUG-CC-PVTZ
  Basis Set: (AUG-CC-PVTZ AUX)
    Blend: AUG-CC-PVTZ-JKFIT

    Orbital Energies [Eh]
    ---------------------

    Doubly Occupied:

       1A    -11.224356     2A    -11.224186     3A    -11.223083
       4A    -11.221170     5A    -11.218247     6A    -11.217347
       7A    -11.215977     8A    -11.214392     9A    -11.214209
      10A    -11.214166    11A    -11.214062    12A    -11.209303
      13A     -1.164603    14A     -1.072889    15A     -1.059959
      16A     -0.978619    17A     -0.968608    18A     -0.946938
      19A     -0.930381    20A     -0.877603    21A     -0.865682
      22A     -0.757020    23A     -0.740182    24A     -0.679306
      25A     -0.619008    26A     -0.601740    27A     -0.574875
      28A     -0.572009    29A     -0.570233    30A     -0.569001
      31A     -0.562225    32A     -0.548725    33A     -0.544332
      34A     -0.540855    35A     -0.535493    36A     -0.523157
      37A     -0.520546    38A     -0.517040    39A     -0.513139
      40A     -0.495114    41A     -0.463617    42A     -0.450659
      43A     -0.421546    44A     -0.309995    45A     -0.291886

  @DF-RHF Final Energy:  -465.02856495937874

   => Energetics <=

    Nuclear Repulsion Energy =            715.6236019949996034
    One-Electron Energy =               -2048.5093697062852698
    Two-Electron Energy =                 867.8572027519068115
    Total Energy =                       -465.0285649593787412
  Basis Set: (AUG-CC-PVTZ AUX)
    Blend: AUG-CC-PVTZ-RI
    Molecular point group: c1

    Geometry (in Angstrom), charge = 0, multiplicity = 1:

       Center              X                  Y                   Z               Mass
    ------------   -----------------  -----------------  -----------------  -----------------
         C           -0.506645988096     1.322177855437    -0.023055987543    12.000000000000
         C           -1.387956988096     0.225707855437     0.022429012457    12.000000000000
         C            0.853343111904     0.963015155437     0.026623812457    12.000000000000
         C           -0.879106988096    -1.085769144563    -0.023007987543    12.000000000000
         C            1.392464011904    -0.204346144563    -0.023103987543    12.000000000000
         C            0.511143011904    -1.300828144563     0.022354012457    12.000000000000
         C           -1.053429988096     2.730977855437    -0.087803987543    12.000000000000
         C           -2.881412988096     0.456558855437     0.087216012457    12.000000000000
         C            1.830411011904     2.284937855437     0.087179012457    12.000000000000
         C           -1.825989988096    -2.263525144563    -0.087809987543    12.000000000000
         C            2.885903011904    -0.435365144563    -0.087744987543    12.000000000000
         C            1.057910011904    -2.709639144563     0.087161012457    12.000000000000
         H           -1.220661988096     3.161446855437     0.907926012457     1.007825032230
         H           -0.370914988096     3.394534855437    -0.622311987543     1.007825032230
         H           -2.004847988096     2.760161855437    -0.622433987543     1.007825032230
         H           -3.114722988096     1.379684855437     0.621304012457     1.007825032230
         H           -3.337944988096     0.526536855437    -0.908491987543     1.007825032230
         H           -3.382343988096    -0.352557144563     0.622262012457     1.007825032230
         H            2.746289011904     2.025296855437     0.621603012457     1.007825032230
         H            1.380296011904     3.123566855437     0.621917012457     1.007825032230
         H            2.119668011904     2.644980855437    -0.908536987543     1.007825032230
         H           -1.375568988096    -3.102366144563    -0.621944987543     1.007825032230
         H           -2.115848988096    -2.623183144563     0.907871012457     1.007825032230
         H           -2.741574988096    -2.004045144563    -0.622834987543     1.007825032230
         H            3.342314011904    -0.505286144563     0.908022012457     1.007825032230
         H            3.119131011904    -1.358570144563    -0.621721987543     1.007825032230
         H            3.387047011904     0.373607855437    -0.622805987543     1.007825032230
         H            0.375163011904    -3.373174144563     0.621403012457     1.007825032230
         H            1.225484011904    -3.140079144563    -0.908521987543     1.007825032230
         H            2.009149011904    -2.738887144563     0.622106012457     1.007825032230

  Basis Set: AUG-CC-PVTZ
    Blend: AUG-CC-PVTZ
  Basis Set: (AUG-CC-PVTZ AUX)
    Blend: AUG-CC-PVTZ-JKFIT
	 Reference Energy          =    -465.0285649593787412 [Eh]
	 Singles Energy            =      -0.0000000000000000 [Eh]
	 Same-Spin Energy          =      -0.5258655129288997 [Eh]
	 Opposite-Spin Energy      =      -1.7664742743487472 [Eh]
	 Correlation Energy        =      -2.2923397872776468 [Eh]
	 Total Energy              =    -467.3209047466563675 [Eh]

	 ================> DF-SCS-MP2 Energies <==================
	-----------------------------------------------------------
	 SCS Same-Spin Scale       =       0.3333333333333333 [-]
	 SCS Opposite-Spin Scale   =       1.2000000000000000 [-]
	 SCS Same-Spin Energy      =      -0.1752885043096332 [Eh]
	 SCS Opposite-Spin Energy  =      -2.1197691292184966 [Eh]
	 SCS Correlation Energy    =      -2.2950576335281299 [Eh]
	 SCS Total Energy          =    -467.3236225929068723 [Eh]
	-----------------------------------------------------------

  Dipole Moment: [D]
     X:    -0.1260      Y:    -0.0934      Z:    -0.0239     Total:     0.1586

*** Psi4 exiting successfully. Buy a developer a beer!
