                               Psi4 1.3.2 release

  ==> Input File <==

--------------------------------------------------------------------------
#psi4
#
memory 32 gb

molecule  {
0 1
  C       -0.5088830     1.3115130    -0.0227420
  C       -1.2707064     0.1292299     0.0307010
  C        0.8813450     1.0964750     0.0226560
  C       -0.8813440    -1.0964340    -0.0226940
  C        1.3902270    -0.2150110    -0.0227900
  C        0.5089060    -1.3114930     0.0226680
  C       -1.0556670     2.7203130    -0.0874900
  C       -2.8836500     0.4458940     0.0875300
  C        1.8281740     2.2742730     0.0874930
  C       -1.8282270    -2.2741900    -0.0874960
  C        2.8836660    -0.4460300    -0.0874310
  C        1.0556730    -2.7203040     0.0874750
  H       -1.2228990     3.1507820     0.9082400
  H       -0.3731520     3.3838700    -0.6219980
  H       -2.0070850     2.7494970    -0.6221200
  H       -3.1169600     1.3690200     0.6216180
  H       -3.3401820     0.5158720    -0.9081780
  H       -3.3845810    -0.3632220     0.6225760
  H        2.7440520     2.0146320     0.6219170
  H        1.3780590     3.1129020     0.6222310
  H        2.1174310     2.6343160    -0.9082230
  H       -1.3778060    -3.1130310    -0.6216310
  H       -2.1180860    -2.6338480     0.9081850
  H       -2.7438120    -2.0147100    -0.6225210
  H        3.3400770    -0.5159510     0.9083360
  H        3.1168940    -1.3692350    -0.6214080
  H        3.3848100     0.3629430    -0.6224920
  H        0.3729260    -3.3838390     0.6217170
  H        1.2232470    -3.1507440    -0.9082080
  H        2.0069120    -2.7495520     0.6224200
units angstrom
no_reorient  #important for SAPT in psi4, default
symmetry c1  #important for SAPT in psi4, default
}

set PROPERTIES_ORIGIN ["COM"]
properties('MP2/aug-cc-pvtz', properties = ['dipole'])
--------------------------------------------------------------------------

    Molecular point group: c1
  Charge       = 0
  Multiplicity = 1
  Basis Set: AUG-CC-PVTZ
    Blend: AUG-CC-PVTZ
  Basis Set: (AUG-CC-PVTZ AUX)
    Blend: AUG-CC-PVTZ-JKFIT

    Orbital Energies [Eh]
    ---------------------

    Doubly Occupied:

       1A    -11.224352     2A    -11.224188     3A    -11.223090
       4A    -11.221170     5A    -11.218248     6A    -11.217376
       7A    -11.215985     8A    -11.214389     9A    -11.214207
      10A    -11.214150    11A    -11.214059    12A    -11.209366
      13A     -1.164579    14A     -1.072859    15A     -1.059971
      16A     -0.978616    17A     -0.968606    18A     -0.946939
      19A     -0.930395    20A     -0.877574    21A     -0.865686
      22A     -0.756980    23A     -0.740186    24A     -0.679285
      25A     -0.619005    26A     -0.601738    27A     -0.574871
      28A     -0.572005    29A     -0.570247    30A     -0.569013
      31A     -0.562228    32A     -0.548736    33A     -0.544343
      34A     -0.540824    35A     -0.535497    36A     -0.523171
      37A     -0.520533    38A     -0.517024    39A     -0.513131
      40A     -0.495112    41A     -0.463617    42A     -0.450624
      43A     -0.421600    44A     -0.309945    45A     -0.291881

  @DF-RHF Final Energy:  -465.02857327129061

   => Energetics <=

    Nuclear Repulsion Energy =            715.6188689189137904
    One-Electron Energy =               -2048.5000816938040771
    Two-Electron Energy =                 867.8526395035995620
    Total Energy =                       -465.0285732712906110
  Basis Set: (AUG-CC-PVTZ AUX)
    Blend: AUG-CC-PVTZ-RI
    Molecular point group: c1

    Geometry (in Angstrom), charge = 0, multiplicity = 1:

       Center              X                  Y                   Z               Mass
    ------------   -----------------  -----------------  -----------------  -----------------
         C           -0.517727205405     1.317862229871    -0.023328062100    12.000000000000
         C           -1.279550605405     0.135579129871     0.030114937900    12.000000000000
         C            0.872500794595     1.102824229871     0.022069937900    12.000000000000
         C           -0.890188205405    -1.090084770129    -0.023280062100    12.000000000000
         C            1.381382794595    -0.208661770129    -0.023376062100    12.000000000000
         C            0.500061794595    -1.305143770129     0.022081937900    12.000000000000
         C           -1.064511205405     2.726662229871    -0.088076062100    12.000000000000
         C           -2.892494205405     0.452243229871     0.086943937900    12.000000000000
         C            1.819329794595     2.280622229871     0.086906937900    12.000000000000
         C           -1.837071205405    -2.267840770129    -0.088082062100    12.000000000000
         C            2.874821794595    -0.439680770129    -0.088017062100    12.000000000000
         C            1.046828794595    -2.713954770129     0.086888937900    12.000000000000
         H           -1.231743205405     3.157131229871     0.907653937900     1.007825032230
         H           -0.381996205405     3.390219229871    -0.622584062100     1.007825032230
         H           -2.015929205405     2.755846229871    -0.622706062100     1.007825032230
         H           -3.125804205405     1.375369229871     0.621031937900     1.007825032230
         H           -3.349026205405     0.522221229871    -0.908764062100     1.007825032230
         H           -3.393425205405    -0.356872770129     0.621989937900     1.007825032230
         H            2.735207794595     2.020981229871     0.621330937900     1.007825032230
         H            1.369214794595     3.119251229871     0.621644937900     1.007825032230
         H            2.108586794595     2.640665229871    -0.908809062100     1.007825032230
         H           -1.386650205405    -3.106681770129    -0.622217062100     1.007825032230
         H           -2.126930205405    -2.627498770129     0.907598937900     1.007825032230
         H           -2.752656205405    -2.008360770129    -0.623107062100     1.007825032230
         H            3.331232794595    -0.509601770129     0.907749937900     1.007825032230
         H            3.108049794595    -1.362885770129    -0.621994062100     1.007825032230
         H            3.375965794595     0.369292229871    -0.623078062100     1.007825032230
         H            0.364081794595    -3.377489770129     0.621130937900     1.007825032230
         H            1.214402794595    -3.144394770129    -0.908794062100     1.007825032230
         H            1.998067794595    -2.743202770129     0.621833937900     1.007825032230

  Basis Set: AUG-CC-PVTZ
    Blend: AUG-CC-PVTZ
  Basis Set: (AUG-CC-PVTZ AUX)
    Blend: AUG-CC-PVTZ-JKFIT
	 Reference Energy          =    -465.0285732712906110 [Eh]
	 Singles Energy            =      -0.0000000000000000 [Eh]
	 Same-Spin Energy          =      -0.5258706228357448 [Eh]
	 Opposite-Spin Energy      =      -1.7664847520455986 [Eh]
	 Correlation Energy        =      -2.2923553748813434 [Eh]
	 Total Energy              =    -467.3209286461719785 [Eh]

	 ================> DF-SCS-MP2 Energies <==================
	-----------------------------------------------------------
	 SCS Same-Spin Scale       =       0.3333333333333333 [-]
	 SCS Opposite-Spin Scale   =       1.2000000000000000 [-]
	 SCS Same-Spin Energy      =      -0.1752902076119149 [Eh]
	 SCS Opposite-Spin Energy  =      -2.1197817024547181 [Eh]
	 SCS Correlation Energy    =      -2.2950719100666328 [Eh]
	 SCS Total Energy          =    -467.3236451813572216 [Eh]
	-----------------------------------------------------------

  Dipole Moment: [D]
     X:     0.1557      Y:     0.0159      Z:    -0.0254     Total:     0.1586

*** Psi4 exiting successfully. Buy a developer a beer!
