                               Psi4 1.3.2 release

  ==> Input File <==

--------------------------------------------------------------------------
#psi4
#
memory 32 gb

molecule  {
0 1
  C       -0.5088830     1.3115130    -0.0227420
  C       -1.5000258     0.3128693     0.0142867
  C        0.8813450     1.0964750     0.0226560
  C       -0.8813440    -1.0964340    -0.0226940
  C        1.3902270    -0.2150110    -0.0227900
  C        0.5089060    -1.3114930     0.0226680
  C       -1.0556670     2.7203130    -0.0874900
  C       -2.8836500     0.4458940     0.0875300
  C        1.8281740     2.2742730     0.0874930
  C       -1.8282270    -2.2741900    -0.0874960
  C        2.8836660    -0.4460300    -0.0874310
  C        1.0556730    -2.7203040     0.0874750
  H       -1.2228990     3.1507820     0.9082400
  H       -0.3731520     3.3838700    -0.6219980
  H       -2.0070850     2.7494970    -0.6221200
  H       -3.1169600     1.3690200     0.6216180
  H       -3.3401820     0.5158720    -0.9081780
  H       -3.3845810    -0.3632220     0.6225760
  H        2.7440520     2.0146320     0.6219170
  H        1.3780590     3.1129020     0.6222310
  H        2.1174310     2.6343160    -0.9082230
  H       -1.3778060    -3.1130310    -0.6216310
  H       -2.1180860    -2.6338480     0.9081850
  H       -2.7438120    -2.0147100    -0.6225210
  H        3.3400770    -0.5159510     0.9083360
  H        3.1168940    -1.3692350    -0.6214080
  H        3.3848100     0.3629430    -0.6224920
  H        0.3729260    -3.3838390     0.6217170
  H        1.2232470    -3.1507440    -0.9082080
  H        2.0069120    -2.7495520     0.6224200
units angstrom
no_reorient  #important for SAPT in psi4, default
symmetry c1  #important for SAPT in psi4, default
}

set PROPERTIES_ORIGIN ["COM"]
properties('MP2/aug-cc-pvtz', properties = ['dipole'])
--------------------------------------------------------------------------

    Molecular point group: c1
  Charge       = 0
  Multiplicity = 1
  Basis Set: AUG-CC-PVTZ
    Blend: AUG-CC-PVTZ
  Basis Set: (AUG-CC-PVTZ AUX)
    Blend: AUG-CC-PVTZ-JKFIT

    Orbital Energies [Eh]
    ---------------------

    Doubly Occupied:

       1A    -11.233889     2A    -11.229757     3A    -11.224879
       4A    -11.224291     5A    -11.222672     6A    -11.222125
       7A    -11.214667     8A    -11.214576     9A    -11.214340
      10A    -11.213481    11A    -11.212127    12A    -11.210489
      13A     -1.148839    14A     -1.077159    15A     -1.062129
      16A     -0.989840    17A     -0.975505    18A     -0.943981
      19A     -0.936156    20A     -0.864392    21A     -0.855498
      22A     -0.749703    23A     -0.733366    24A     -0.677206
      25A     -0.619812    26A     -0.602847    27A     -0.587582
      28A     -0.579277    29A     -0.574550    30A     -0.572318
      31A     -0.570744    32A     -0.550912    33A     -0.546839
      34A     -0.538710    35A     -0.536542    36A     -0.526552
      37A     -0.523916    38A     -0.520898    39A     -0.503133
      40A     -0.497292    41A     -0.465165    42A     -0.430627
      43A     -0.427255    44A     -0.298021    45A     -0.280294

  @DF-RHF Final Energy:  -465.02336703763069

   => Energetics <=

    Nuclear Repulsion Energy =            712.7920382098529899
    One-Electron Energy =               -2042.8221094668417663
    Two-Electron Energy =                 865.0067042193580846
    Total Energy =                       -465.0233670376306918
  Basis Set: (AUG-CC-PVTZ AUX)
    Blend: AUG-CC-PVTZ-RI
    Molecular point group: c1

    Geometry (in Angstrom), charge = 0, multiplicity = 1:

       Center              X                  Y                   Z               Mass
    ------------   -----------------  -----------------  -----------------  -----------------
         C           -0.500755339339     1.304271128109    -0.022113244247    12.000000000000
         C           -1.491898139339     0.305627428109     0.014915455753    12.000000000000
         C            0.889472660661     1.089233128109     0.023284755753    12.000000000000
         C           -0.873216339339    -1.103675871891    -0.022065244247    12.000000000000
         C            1.398354660661    -0.222252871891    -0.022161244247    12.000000000000
         C            0.517033660661    -1.318734871891     0.023296755753    12.000000000000
         C           -1.047539339339     2.713071128109    -0.086861244247    12.000000000000
         C           -2.875522339339     0.438652128109     0.088158755753    12.000000000000
         C            1.836301660661     2.267031128109     0.088121755753    12.000000000000
         C           -1.820099339339    -2.281431871891    -0.086867244247    12.000000000000
         C            2.891793660661    -0.453271871891    -0.086802244247    12.000000000000
         C            1.063800660661    -2.727545871891     0.088103755753    12.000000000000
         H           -1.214771339339     3.143540128109     0.908868755753     1.007825032230
         H           -0.365024339339     3.376628128109    -0.621369244247     1.007825032230
         H           -1.998957339339     2.742255128109    -0.621491244247     1.007825032230
         H           -3.108832339339     1.361778128109     0.622246755753     1.007825032230
         H           -3.332054339339     0.508630128109    -0.907549244247     1.007825032230
         H           -3.376453339339    -0.370463871891     0.623204755753     1.007825032230
         H            2.752179660661     2.007390128109     0.622545755753     1.007825032230
         H            1.386186660661     3.105660128109     0.622859755753     1.007825032230
         H            2.125558660661     2.627074128109    -0.907594244247     1.007825032230
         H           -1.369678339339    -3.120272871891    -0.621002244247     1.007825032230
         H           -2.109958339339    -2.641089871891     0.908813755753     1.007825032230
         H           -2.735684339339    -2.021951871891    -0.621892244247     1.007825032230
         H            3.348204660661    -0.523192871891     0.908964755753     1.007825032230
         H            3.125021660661    -1.376476871891    -0.620779244247     1.007825032230
         H            3.392937660661     0.355701128109    -0.621863244247     1.007825032230
         H            0.381053660661    -3.391080871891     0.622345755753     1.007825032230
         H            1.231374660661    -3.157985871891    -0.907579244247     1.007825032230
         H            2.015039660661    -2.756793871891     0.623048755753     1.007825032230

  Basis Set: AUG-CC-PVTZ
    Blend: AUG-CC-PVTZ
  Basis Set: (AUG-CC-PVTZ AUX)
    Blend: AUG-CC-PVTZ-JKFIT
	 Reference Energy          =    -465.0233670376306918 [Eh]
	 Singles Energy            =      -0.0000000000000000 [Eh]
	 Same-Spin Energy          =      -0.5284358378435584 [Eh]
	 Opposite-Spin Energy      =      -1.7699224094794304 [Eh]
	 Correlation Energy        =      -2.2983582473229887 [Eh]
	 Total Energy              =    -467.3217252849536862 [Eh]

	 ================> DF-SCS-MP2 Energies <==================
	-----------------------------------------------------------
	 SCS Same-Spin Scale       =       0.3333333333333333 [-]
	 SCS Opposite-Spin Scale   =       1.2000000000000000 [-]
	 SCS Same-Spin Energy      =      -0.1761452792811861 [Eh]
	 SCS Opposite-Spin Energy  =      -2.1239068913753165 [Eh]
	 SCS Correlation Energy    =      -2.3000521706565027 [Eh]
	 SCS Total Energy          =    -467.3234192082871914 [Eh]
	-----------------------------------------------------------

  Dipole Moment: [D]
     X:    -0.1343      Y:    -0.0240      Z:     0.0241     Total:     0.1385

*** Psi4 exiting successfully. Buy a developer a beer!
