                               Psi4 1.3.2 release

  ==> Input File <==

--------------------------------------------------------------------------
#psi4
#
memory 32 gb

molecule  {
0 1
  C       -0.5088830     1.3115130    -0.0227420
  C       -1.3901940     0.2150430     0.0227430
  C        0.8813450     1.0964750     0.0226560
  C       -0.8813440    -1.0964340    -0.0226940
  C        1.3902270    -0.2150110    -0.0227900
  C        0.5089060    -1.3114930     0.0226680
  C       -1.1279654     2.9065914    -0.0960513
  C       -2.8836500     0.4458940     0.0875300
  C        1.8281740     2.2742730     0.0874930
  C       -1.8282270    -2.2741900    -0.0874960
  C        2.8836660    -0.4460300    -0.0874310
  C        1.0556730    -2.7203040     0.0874750
  H       -1.2228990     3.1507820     0.9082400
  H       -0.3731520     3.3838700    -0.6219980
  H       -2.0070850     2.7494970    -0.6221200
  H       -3.1169600     1.3690200     0.6216180
  H       -3.3401820     0.5158720    -0.9081780
  H       -3.3845810    -0.3632220     0.6225760
  H        2.7440520     2.0146320     0.6219170
  H        1.3780590     3.1129020     0.6222310
  H        2.1174310     2.6343160    -0.9082230
  H       -1.3778060    -3.1130310    -0.6216310
  H       -2.1180860    -2.6338480     0.9081850
  H       -2.7438120    -2.0147100    -0.6225210
  H        3.3400770    -0.5159510     0.9083360
  H        3.1168940    -1.3692350    -0.6214080
  H        3.3848100     0.3629430    -0.6224920
  H        0.3729260    -3.3838390     0.6217170
  H        1.2232470    -3.1507440    -0.9082080
  H        2.0069120    -2.7495520     0.6224200
units angstrom
no_reorient  #important for SAPT in psi4, default
symmetry c1  #important for SAPT in psi4, default
}

set PROPERTIES_ORIGIN ["COM"]
properties('MP2/aug-cc-pvtz', properties = ['dipole'])
--------------------------------------------------------------------------

    Molecular point group: c1
  Charge       = 0
  Multiplicity = 1
  Basis Set: AUG-CC-PVTZ
    Blend: AUG-CC-PVTZ
  Basis Set: (AUG-CC-PVTZ AUX)
    Blend: AUG-CC-PVTZ-JKFIT

    Orbital Energies [Eh]
    ---------------------

    Doubly Occupied:

       1A    -11.230084     2A    -11.223756     3A    -11.223558
       4A    -11.222889     5A    -11.222337     6A    -11.221743
       7A    -11.214550     8A    -11.214549     9A    -11.214207
      10A    -11.214206    11A    -11.214096    12A    -11.212731
      13A     -1.150469    14A     -1.065359    15A     -1.055953
      16A     -0.975981    17A     -0.971330    18A     -0.944118
      19A     -0.938802    20A     -0.870575    21A     -0.865234
      22A     -0.744206    23A     -0.742877    24A     -0.676236
      25A     -0.610591    26A     -0.605024    27A     -0.586804
      28A     -0.586093    29A     -0.573412    30A     -0.571276
      31A     -0.559056    32A     -0.557451    33A     -0.547675
      34A     -0.540146    35A     -0.539064    36A     -0.527887
      37A     -0.522427    38A     -0.514138    39A     -0.503056
      40A     -0.499938    41A     -0.451863    42A     -0.441373
      43A     -0.422897    44A     -0.296403    45A     -0.294260

  @DF-RHF Final Energy:  -465.02590759249665

   => Energetics <=

    Nuclear Repulsion Energy =            710.2877047219886890
    One-Electron Energy =               -2037.8658719551979175
    Two-Electron Energy =                 862.5522596407124638
    Total Energy =                       -465.0259075924966510
  Basis Set: (AUG-CC-PVTZ AUX)
    Blend: AUG-CC-PVTZ-RI
    Molecular point group: c1

    Geometry (in Angstrom), charge = 0, multiplicity = 1:

       Center              X                  Y                   Z               Mass
    ------------   -----------------  -----------------  -----------------  -----------------
         C           -0.503533176006     1.297724812383    -0.022105473225    12.000000000000
         C           -1.384844176006     0.201254812383     0.023379526775    12.000000000000
         C            0.886694823994     1.082686812383     0.023292526775    12.000000000000
         C           -0.875994176006    -1.110222187617    -0.022057473225    12.000000000000
         C            1.395576823994    -0.228799187617    -0.022153473225    12.000000000000
         C            0.514255823994    -1.325281187617     0.023304526775    12.000000000000
         C           -1.122615576006     2.892803212383    -0.095414773225    12.000000000000
         C           -2.878300176006     0.432105812383     0.088166526775    12.000000000000
         C            1.833523823994     2.260484812383     0.088129526775    12.000000000000
         C           -1.822877176006    -2.287978187617    -0.086859473225    12.000000000000
         C            2.889015823994    -0.459818187617    -0.086794473225    12.000000000000
         C            1.061022823994    -2.734092187617     0.088111526775    12.000000000000
         H           -1.217549176006     3.136993812383     0.908876526775     1.007825032230
         H           -0.367802176006     3.370081812383    -0.621361473225     1.007825032230
         H           -2.001735176006     2.735708812383    -0.621483473225     1.007825032230
         H           -3.111610176006     1.355231812383     0.622254526775     1.007825032230
         H           -3.334832176006     0.502083812383    -0.907541473225     1.007825032230
         H           -3.379231176006    -0.377010187617     0.623212526775     1.007825032230
         H            2.749401823994     2.000843812383     0.622553526775     1.007825032230
         H            1.383408823994     3.099113812383     0.622867526775     1.007825032230
         H            2.122780823994     2.620527812383    -0.907586473225     1.007825032230
         H           -1.372456176006    -3.126819187617    -0.620994473225     1.007825032230
         H           -2.112736176006    -2.647636187617     0.908821526775     1.007825032230
         H           -2.738462176006    -2.028498187617    -0.621884473225     1.007825032230
         H            3.345426823994    -0.529739187617     0.908972526775     1.007825032230
         H            3.122243823994    -1.383023187617    -0.620771473225     1.007825032230
         H            3.390159823994     0.349154812383    -0.621855473225     1.007825032230
         H            0.378275823994    -3.397627187617     0.622353526775     1.007825032230
         H            1.228596823994    -3.164532187617    -0.907571473225     1.007825032230
         H            2.012261823994    -2.763340187617     0.623056526775     1.007825032230

  Basis Set: AUG-CC-PVTZ
    Blend: AUG-CC-PVTZ
  Basis Set: (AUG-CC-PVTZ AUX)
    Blend: AUG-CC-PVTZ-JKFIT
	 Reference Energy          =    -465.0259075924966510 [Eh]
	 Singles Energy            =      -0.0000000000000000 [Eh]
	 Same-Spin Energy          =      -0.5261058973123590 [Eh]
	 Opposite-Spin Energy      =      -1.7674806202600795 [Eh]
	 Correlation Energy        =      -2.2935865175724386 [Eh]
	 Total Energy              =    -467.3194941100691153 [Eh]

	 ================> DF-SCS-MP2 Energies <==================
	-----------------------------------------------------------
	 SCS Same-Spin Scale       =       0.3333333333333333 [-]
	 SCS Opposite-Spin Scale   =       1.2000000000000000 [-]
	 SCS Same-Spin Energy      =      -0.1753686324374530 [Eh]
	 SCS Opposite-Spin Energy  =      -2.1209767443120953 [Eh]
	 SCS Correlation Energy    =      -2.2963453767495481 [Eh]
	 SCS Total Energy          =    -467.3222529692462217 [Eh]
	-----------------------------------------------------------

  Dipole Moment: [D]
     X:     0.0412      Y:    -0.1061      Z:     0.0096     Total:     0.1142

*** Psi4 exiting successfully. Buy a developer a beer!
