                               Psi4 1.3.2 release

  ==> Input File <==

--------------------------------------------------------------------------
#psi4
#
memory 32 gb

molecule  {
0 1
  C       -0.5088830     1.3115130    -0.0227420
  C       -1.3115297     0.1564386     0.0281092
  C        0.8813450     1.0964750     0.0226560
  C       -0.8813440    -1.0964340    -0.0226940
  C        1.3902270    -0.2150110    -0.0227900
  C        0.5089060    -1.3114930     0.0226680
  C       -1.0556670     2.7203130    -0.0874900
  C       -2.8836500     0.4458940     0.0875300
  C        1.8281740     2.2742730     0.0874930
  C       -1.8282270    -2.2741900    -0.0874960
  C        2.8836660    -0.4460300    -0.0874310
  C        1.0556730    -2.7203040     0.0874750
  H       -1.2228990     3.1507820     0.9082400
  H       -0.3731520     3.3838700    -0.6219980
  H       -2.0070850     2.7494970    -0.6221200
  H       -3.1169600     1.3690200     0.6216180
  H       -3.3401820     0.5158720    -0.9081780
  H       -3.3845810    -0.3632220     0.6225760
  H        2.7440520     2.0146320     0.6219170
  H        1.3780590     3.1129020     0.6222310
  H        2.1174310     2.6343160    -0.9082230
  H       -1.3778060    -3.1130310    -0.6216310
  H       -2.1180860    -2.6338480     0.9081850
  H       -2.7438120    -2.0147100    -0.6225210
  H        3.3400770    -0.5159510     0.9083360
  H        3.1168940    -1.3692350    -0.6214080
  H        3.3848100     0.3629430    -0.6224920
  H        0.3729260    -3.3838390     0.6217170
  H        1.2232470    -3.1507440    -0.9082080
  H        2.0069120    -2.7495520     0.6224200
units angstrom
no_reorient  #important for SAPT in psi4, default
symmetry c1  #important for SAPT in psi4, default
}

set PROPERTIES_ORIGIN ["COM"]
properties('MP2/aug-cc-pvtz', properties = ['dipole'])
--------------------------------------------------------------------------

    Molecular point group: c1
  Charge       = 0
  Multiplicity = 1
  Basis Set: AUG-CC-PVTZ
    Blend: AUG-CC-PVTZ
  Basis Set: (AUG-CC-PVTZ AUX)
    Blend: AUG-CC-PVTZ-JKFIT

    Orbital Energies [Eh]
    ---------------------

    Doubly Occupied:

       1A    -11.224003     2A    -11.223763     3A    -11.222783
       4A    -11.221545     5A    -11.219028     6A    -11.216943
       7A    -11.215377     8A    -11.214682     9A    -11.214315
      10A    -11.214199    11A    -11.214117    12A    -11.213818
      13A     -1.160384    14A     -1.070174    15A     -1.061520
      16A     -0.977846    17A     -0.970384    18A     -0.945340
      19A     -0.933845    20A     -0.873288    21A     -0.865662
      22A     -0.753195    23A     -0.741805    24A     -0.679121
      25A     -0.617748    26A     -0.601210    27A     -0.574449
      28A     -0.572121    29A     -0.570664    30A     -0.569694
      31A     -0.564054    32A     -0.548315    33A     -0.545272
      34A     -0.536650    35A     -0.535608    36A     -0.522856
      37A     -0.521647    38A     -0.518376    39A     -0.515663
      40A     -0.495566    41A     -0.460263    42A     -0.446315
      43A     -0.433311    44A     -0.304821    45A     -0.292666

  @DF-RHF Final Energy:  -465.04255106481963

   => Energetics <=

    Nuclear Repulsion Energy =            715.0511009930002047
    One-Electron Energy =               -2047.3984926625880689
    Two-Electron Energy =                 867.3048406047682874
    Total Energy =                       -465.0425510648196905
  Basis Set: (AUG-CC-PVTZ AUX)
    Blend: AUG-CC-PVTZ-RI
    Molecular point group: c1

    Geometry (in Angstrom), charge = 0, multiplicity = 1:

       Center              X                  Y                   Z               Mass
    ------------   -----------------  -----------------  -----------------  -----------------
         C           -0.514705884139     1.315848521427    -0.023136243691    12.000000000000
         C           -1.317352584139     0.160774121427     0.027714956309    12.000000000000
         C            0.875522115861     1.100810521427     0.022261756309    12.000000000000
         C           -0.887166884139    -1.092098478573    -0.023088243691    12.000000000000
         C            1.384404115861    -0.210675478573    -0.023184243691    12.000000000000
         C            0.503083115861    -1.307157478573     0.022273756309    12.000000000000
         C           -1.061489884139     2.724648521427    -0.087884243691    12.000000000000
         C           -2.889472884139     0.450229521427     0.087135756309    12.000000000000
         C            1.822351115861     2.278608521427     0.087098756309    12.000000000000
         C           -1.834049884139    -2.269854478573    -0.087890243691    12.000000000000
         C            2.877843115861    -0.441694478573    -0.087825243691    12.000000000000
         C            1.049850115861    -2.715968478573     0.087080756309    12.000000000000
         H           -1.228721884139     3.155117521427     0.907845756309     1.007825032230
         H           -0.378974884139     3.388205521427    -0.622392243691     1.007825032230
         H           -2.012907884139     2.753832521427    -0.622514243691     1.007825032230
         H           -3.122782884139     1.373355521427     0.621223756309     1.007825032230
         H           -3.346004884139     0.520207521427    -0.908572243691     1.007825032230
         H           -3.390403884139    -0.358886478573     0.622181756309     1.007825032230
         H            2.738229115861     2.018967521427     0.621522756309     1.007825032230
         H            1.372236115861     3.117237521427     0.621836756309     1.007825032230
         H            2.111608115861     2.638651521427    -0.908617243691     1.007825032230
         H           -1.383628884139    -3.108695478573    -0.622025243691     1.007825032230
         H           -2.123908884139    -2.629512478573     0.907790756309     1.007825032230
         H           -2.749634884139    -2.010374478573    -0.622915243691     1.007825032230
         H            3.334254115861    -0.511615478573     0.907941756309     1.007825032230
         H            3.111071115861    -1.364899478573    -0.621802243691     1.007825032230
         H            3.378987115861     0.367278521427    -0.622886243691     1.007825032230
         H            0.367103115861    -3.379503478573     0.621322756309     1.007825032230
         H            1.217424115861    -3.146408478573    -0.908602243691     1.007825032230
         H            2.001089115861    -2.745216478573     0.622025756309     1.007825032230

  Basis Set: AUG-CC-PVTZ
    Blend: AUG-CC-PVTZ
  Basis Set: (AUG-CC-PVTZ AUX)
    Blend: AUG-CC-PVTZ-JKFIT
	 Reference Energy          =    -465.0425510648196337 [Eh]
	 Singles Energy            =      -0.0000000000000000 [Eh]
	 Same-Spin Energy          =      -0.5259163900893536 [Eh]
	 Opposite-Spin Energy      =      -1.7661252934062408 [Eh]
	 Correlation Energy        =      -2.2920416834955946 [Eh]
	 Total Energy              =    -467.3345927483152309 [Eh]

	 ================> DF-SCS-MP2 Energies <==================
	-----------------------------------------------------------
	 SCS Same-Spin Scale       =       0.3333333333333333 [-]
	 SCS Opposite-Spin Scale   =       1.2000000000000000 [-]
	 SCS Same-Spin Energy      =      -0.1753054633631179 [Eh]
	 SCS Opposite-Spin Energy  =      -2.1193503520874888 [Eh]
	 SCS Correlation Energy    =      -2.2946558154506067 [Eh]
	 SCS Total Energy          =    -467.3372068802702302 [Eh]
	-----------------------------------------------------------

  Dipole Moment: [D]
     X:     0.0967      Y:     0.0135      Z:    -0.0167     Total:     0.0991

*** Psi4 exiting successfully. Buy a developer a beer!
