                               Psi4 1.3.2 release

  ==> Input File <==

--------------------------------------------------------------------------
#psi4
#
memory 32 gb

molecule  {
0 1
  C       -0.5088830     1.3115130    -0.0227420
  C       -1.3901940     0.2150430     0.0227430
  C        0.8773560     1.0722476     0.0234055
  C       -0.8813440    -1.0964340    -0.0226940
  C        1.3902270    -0.2150110    -0.0227900
  C        0.5089060    -1.3114930     0.0226680
  C       -1.0556670     2.7203130    -0.0874900
  C       -2.8836500     0.4458940     0.0875300
  C        1.8281740     2.2742730     0.0874930
  C       -1.8282270    -2.2741900    -0.0874960
  C        2.8836660    -0.4460300    -0.0874310
  C        1.0556730    -2.7203040     0.0874750
  H       -1.2228990     3.1507820     0.9082400
  H       -0.3731520     3.3838700    -0.6219980
  H       -2.0070850     2.7494970    -0.6221200
  H       -3.1169600     1.3690200     0.6216180
  H       -3.3401820     0.5158720    -0.9081780
  H       -3.3845810    -0.3632220     0.6225760
  H        2.7440520     2.0146320     0.6219170
  H        1.3780590     3.1129020     0.6222310
  H        2.1174310     2.6343160    -0.9082230
  H       -1.3778060    -3.1130310    -0.6216310
  H       -2.1180860    -2.6338480     0.9081850
  H       -2.7438120    -2.0147100    -0.6225210
  H        3.3400770    -0.5159510     0.9083360
  H        3.1168940    -1.3692350    -0.6214080
  H        3.3848100     0.3629430    -0.6224920
  H        0.3729260    -3.3838390     0.6217170
  H        1.2232470    -3.1507440    -0.9082080
  H        2.0069120    -2.7495520     0.6224200
units angstrom
no_reorient  #important for SAPT in psi4, default
symmetry c1  #important for SAPT in psi4, default
}

set PROPERTIES_ORIGIN ["COM"]
properties('MP2/aug-cc-pvtz', properties = ['dipole'])
--------------------------------------------------------------------------

    Molecular point group: c1
  Charge       = 0
  Multiplicity = 1
  Basis Set: AUG-CC-PVTZ
    Blend: AUG-CC-PVTZ
  Basis Set: (AUG-CC-PVTZ AUX)
    Blend: AUG-CC-PVTZ-JKFIT

    Orbital Energies [Eh]
    ---------------------

    Doubly Occupied:

       1A    -11.223920     2A    -11.223479     3A    -11.222909
       4A    -11.222045     5A    -11.221841     6A    -11.220412
       7A    -11.214976     8A    -11.214550     9A    -11.214518
      10A    -11.214309    11A    -11.214279    12A    -11.214261
      13A     -1.155392    14A     -1.066830    15A     -1.064603
      16A     -0.976881    17A     -0.974754    18A     -0.942779
      19A     -0.937994    20A     -0.867282    21A     -0.865491
      22A     -0.747150    23A     -0.744264    24A     -0.678747
      25A     -0.616586    26A     -0.600889    27A     -0.573984
      28A     -0.573232    29A     -0.570990    30A     -0.570746
      31A     -0.568469    32A     -0.547801    33A     -0.547025
      34A     -0.537694    35A     -0.529559    36A     -0.526181
      37A     -0.522375    38A     -0.521749    39A     -0.514208
      40A     -0.496168    41A     -0.453690    42A     -0.447293
      43A     -0.440601    44A     -0.297169    45A     -0.294112

  @DF-RHF Final Energy:  -465.05207262773428

   => Energetics <=

    Nuclear Repulsion Energy =            714.2702418499119403
    One-Electron Energy =               -2045.8562539009944885
    Two-Electron Energy =                 866.5339394233482153
    Total Energy =                       -465.0520726277342192
  Basis Set: (AUG-CC-PVTZ AUX)
    Blend: AUG-CC-PVTZ-RI
    Molecular point group: c1

    Geometry (in Angstrom), charge = 0, multiplicity = 1:

       Center              X                  Y                   Z               Mass
    ------------   -----------------  -----------------  -----------------  -----------------
         C           -0.508588736015     1.313304289060    -0.022794562986    12.000000000000
         C           -1.389899736015     0.216834289060     0.022690437014    12.000000000000
         C            0.877650263985     1.074038889060     0.023352937014    12.000000000000
         C           -0.881049736015    -1.094642710940    -0.022746562986    12.000000000000
         C            1.390521263985    -0.213219710940    -0.022842562986    12.000000000000
         C            0.509200263985    -1.309701710940     0.022615437014    12.000000000000
         C           -1.055372736015     2.722104289060    -0.087542562986    12.000000000000
         C           -2.883355736015     0.447685289060     0.087477437014    12.000000000000
         C            1.828468263985     2.276064289060     0.087440437014    12.000000000000
         C           -1.827932736015    -2.272398710940    -0.087548562986    12.000000000000
         C            2.883960263985    -0.444238710940    -0.087483562986    12.000000000000
         C            1.055967263985    -2.718512710940     0.087422437014    12.000000000000
         H           -1.222604736015     3.152573289060     0.908187437014     1.007825032230
         H           -0.372857736015     3.385661289060    -0.622050562986     1.007825032230
         H           -2.006790736015     2.751288289060    -0.622172562986     1.007825032230
         H           -3.116665736015     1.370811289060     0.621565437014     1.007825032230
         H           -3.339887736015     0.517663289060    -0.908230562986     1.007825032230
         H           -3.384286736015    -0.361430710940     0.622523437014     1.007825032230
         H            2.744346263985     2.016423289060     0.621864437014     1.007825032230
         H            1.378353263985     3.114693289060     0.622178437014     1.007825032230
         H            2.117725263985     2.636107289060    -0.908275562986     1.007825032230
         H           -1.377511736015    -3.111239710940    -0.621683562986     1.007825032230
         H           -2.117791736015    -2.632056710940     0.908132437014     1.007825032230
         H           -2.743517736015    -2.012918710940    -0.622573562986     1.007825032230
         H            3.340371263985    -0.514159710940     0.908283437014     1.007825032230
         H            3.117188263985    -1.367443710940    -0.621460562986     1.007825032230
         H            3.385104263985     0.364734289060    -0.622544562986     1.007825032230
         H            0.373220263985    -3.382047710940     0.621664437014     1.007825032230
         H            1.223541263985    -3.148952710940    -0.908260562986     1.007825032230
         H            2.007206263985    -2.747760710940     0.622367437014     1.007825032230

  Basis Set: AUG-CC-PVTZ
    Blend: AUG-CC-PVTZ
  Basis Set: (AUG-CC-PVTZ AUX)
    Blend: AUG-CC-PVTZ-JKFIT
	 Reference Energy          =    -465.0520726277342760 [Eh]
	 Singles Energy            =      -0.0000000000000000 [Eh]
	 Same-Spin Energy          =      -0.5262864544923053 [Eh]
	 Opposite-Spin Energy      =      -1.7662794690524433 [Eh]
	 Correlation Energy        =      -2.2925659235447484 [Eh]
	 Total Energy              =    -467.3446385512790471 [Eh]

	 ================> DF-SCS-MP2 Energies <==================
	-----------------------------------------------------------
	 SCS Same-Spin Scale       =       0.3333333333333333 [-]
	 SCS Opposite-Spin Scale   =       1.2000000000000000 [-]
	 SCS Same-Spin Energy      =      -0.1754288181641017 [Eh]
	 SCS Opposite-Spin Energy  =      -2.1195353628629316 [Eh]
	 SCS Correlation Energy    =      -2.2949641810270336 [Eh]
	 SCS Total Energy          =    -467.3470368087612883 [Eh]
	-----------------------------------------------------------

  Dipole Moment: [D]
     X:    -0.0194      Y:    -0.0122      Z:    -0.0038     Total:     0.0232

*** Psi4 exiting successfully. Buy a developer a beer!
