                               Psi4 1.3.2 release

  ==> Input File <==

--------------------------------------------------------------------------
#psi4
#
memory 32 gb

molecule  {
0 1
  C       -0.5088830     1.3115130    -0.0227420
  C       -1.3901940     0.2150430     0.0227430
  C        0.8813450     1.0964750     0.0226560
  C       -0.8813440    -1.0964340    -0.0226940
  C        1.3902270    -0.2150110    -0.0227900
  C        0.5089060    -1.3114930     0.0226680
  C       -0.9833686     2.5340346    -0.0789287
  C       -2.8836500     0.4458940     0.0875300
  C        1.8281740     2.2742730     0.0874930
  C       -1.8282270    -2.2741900    -0.0874960
  C        2.8836660    -0.4460300    -0.0874310
  C        1.0556730    -2.7203040     0.0874750
  H       -1.2228990     3.1507820     0.9082400
  H       -0.3731520     3.3838700    -0.6219980
  H       -2.0070850     2.7494970    -0.6221200
  H       -3.1169600     1.3690200     0.6216180
  H       -3.3401820     0.5158720    -0.9081780
  H       -3.3845810    -0.3632220     0.6225760
  H        2.7440520     2.0146320     0.6219170
  H        1.3780590     3.1129020     0.6222310
  H        2.1174310     2.6343160    -0.9082230
  H       -1.3778060    -3.1130310    -0.6216310
  H       -2.1180860    -2.6338480     0.9081850
  H       -2.7438120    -2.0147100    -0.6225210
  H        3.3400770    -0.5159510     0.9083360
  H        3.1168940    -1.3692350    -0.6214080
  H        3.3848100     0.3629430    -0.6224920
  H        0.3729260    -3.3838390     0.6217170
  H        1.2232470    -3.1507440    -0.9082080
  H        2.0069120    -2.7495520     0.6224200
units angstrom
no_reorient  #important for SAPT in psi4, default
symmetry c1  #important for SAPT in psi4, default
}

set PROPERTIES_ORIGIN ["COM"]
properties('MP2/aug-cc-pvtz', properties = ['dipole'])
--------------------------------------------------------------------------

    Molecular point group: c1
  Charge       = 0
  Multiplicity = 1
  Basis Set: AUG-CC-PVTZ
    Blend: AUG-CC-PVTZ
  Basis Set: (AUG-CC-PVTZ AUX)
    Blend: AUG-CC-PVTZ-JKFIT

    Orbital Energies [Eh]
    ---------------------

    Doubly Occupied:

       1A    -11.225893     2A    -11.225377     3A    -11.224890
       4A    -11.224625     5A    -11.223585     6A    -11.223252
       7A    -11.215302     8A    -11.214915     9A    -11.214914
      10A    -11.214276    11A    -11.214274    12A    -11.210066
      13A     -1.164317    14A     -1.086070    15A     -1.067339
      16A     -0.986940    17A     -0.978009    18A     -0.941473
      19A     -0.941229    20A     -0.866242    21A     -0.856213
      22A     -0.749897    23A     -0.744491    24A     -0.683223
      25A     -0.637366    26A     -0.602160    27A     -0.591601
      28A     -0.574044    29A     -0.572164    30A     -0.570132
      31A     -0.565812    32A     -0.547909    33A     -0.543690
      34A     -0.541455    35A     -0.529086    36A     -0.524500
      37A     -0.521773    38A     -0.519652    39A     -0.505753
      40A     -0.476789    41A     -0.461127    42A     -0.441475
      43A     -0.431615    44A     -0.295873    45A     -0.289118

  @DF-RHF Final Energy:  -465.00021734912002

   => Energetics <=

    Nuclear Repulsion Energy =            718.2291886924631399
    One-Electron Energy =               -2053.5790039507965048
    Two-Electron Energy =                 870.3495979092133439
    Total Energy =                       -465.0002173491200210
  Basis Set: (AUG-CC-PVTZ AUX)
    Blend: AUG-CC-PVTZ-RI
    Molecular point group: c1

    Geometry (in Angstrom), charge = 0, multiplicity = 1:

       Center              X                  Y                   Z               Mass
    ------------   -----------------  -----------------  -----------------  -----------------
         C           -0.514234745621     1.325297639243    -0.023372712168    12.000000000000
         C           -1.395545745621     0.228827639243     0.022112287832    12.000000000000
         C            0.875993254379     1.110259639243     0.022025287832    12.000000000000
         C           -0.886695745621    -1.082649360757    -0.023324712168    12.000000000000
         C            1.384875254379    -0.201226360757    -0.023420712168    12.000000000000
         C            0.503554254379    -1.297708360757     0.022037287832    12.000000000000
         C           -0.988720345621     2.547819239243    -0.079559412168    12.000000000000
         C           -2.889001745621     0.459678639243     0.086899287832    12.000000000000
         C            1.822822254379     2.288057639243     0.086862287832    12.000000000000
         C           -1.833578745621    -2.260405360757    -0.088126712168    12.000000000000
         C            2.878314254379    -0.432245360757    -0.088061712168    12.000000000000
         C            1.050321254379    -2.706519360757     0.086844287832    12.000000000000
         H           -1.228250745621     3.164566639243     0.907609287832     1.007825032230
         H           -0.378503745621     3.397654639243    -0.622628712168     1.007825032230
         H           -2.012436745621     2.763281639243    -0.622750712168     1.007825032230
         H           -3.122311745621     1.382804639243     0.620987287832     1.007825032230
         H           -3.345533745621     0.529656639243    -0.908808712168     1.007825032230
         H           -3.389932745621    -0.349437360757     0.621945287832     1.007825032230
         H            2.738700254379     2.028416639243     0.621286287832     1.007825032230
         H            1.372707254379     3.126686639243     0.621600287832     1.007825032230
         H            2.112079254379     2.648100639243    -0.908853712168     1.007825032230
         H           -1.383157745621    -3.099246360757    -0.622261712168     1.007825032230
         H           -2.123437745621    -2.620063360757     0.907554287832     1.007825032230
         H           -2.749163745621    -2.000925360757    -0.623151712168     1.007825032230
         H            3.334725254379    -0.502166360757     0.907705287832     1.007825032230
         H            3.111542254379    -1.355450360757    -0.622038712168     1.007825032230
         H            3.379458254379     0.376727639243    -0.623122712168     1.007825032230
         H            0.367574254379    -3.370054360757     0.621086287832     1.007825032230
         H            1.217895254379    -3.136959360757    -0.908838712168     1.007825032230
         H            2.001560254379    -2.735767360757     0.621789287832     1.007825032230

  Basis Set: AUG-CC-PVTZ
    Blend: AUG-CC-PVTZ
  Basis Set: (AUG-CC-PVTZ AUX)
    Blend: AUG-CC-PVTZ-JKFIT
	 Reference Energy          =    -465.0002173491200210 [Eh]
	 Singles Energy            =      -0.0000000000000000 [Eh]
	 Same-Spin Energy          =      -0.5305044939035833 [Eh]
	 Opposite-Spin Energy      =      -1.7715087448426545 [Eh]
	 Correlation Energy        =      -2.3020132387462380 [Eh]
	 Total Energy              =    -467.3022305878662337 [Eh]

	 ================> DF-SCS-MP2 Energies <==================
	-----------------------------------------------------------
	 SCS Same-Spin Scale       =       0.3333333333333333 [-]
	 SCS Opposite-Spin Scale   =       1.2000000000000000 [-]
	 SCS Same-Spin Energy      =      -0.1768348313011944 [Eh]
	 SCS Opposite-Spin Energy  =      -2.1258104938111853 [Eh]
	 SCS Correlation Energy    =      -2.3026453251123797 [Eh]
	 SCS Total Energy          =    -467.3028626742324150 [Eh]
	-----------------------------------------------------------

  Dipole Moment: [D]
     X:     0.0263      Y:    -0.0679      Z:    -0.0092     Total:     0.0734

*** Psi4 exiting successfully. Buy a developer a beer!
