                               Psi4 1.3.2 release

  ==> Input File <==

--------------------------------------------------------------------------
#psi4
#
memory 32 gb

molecule  {
0 1
  C       -0.5088830     1.3115130    -0.0227420
  C       -1.3901940     0.2150430     0.0227430
  C        0.8963523     1.2429557     0.0178768
  C       -0.8813440    -1.0964340    -0.0226940
  C        1.3902270    -0.2150110    -0.0227900
  C        0.5089060    -1.3114930     0.0226680
  C       -1.0556670     2.7203130    -0.0874900
  C       -2.8836500     0.4458940     0.0875300
  C        1.8281740     2.2742730     0.0874930
  C       -1.8282270    -2.2741900    -0.0874960
  C        2.8836660    -0.4460300    -0.0874310
  C        1.0556730    -2.7203040     0.0874750
  H       -1.2228990     3.1507820     0.9082400
  H       -0.3731520     3.3838700    -0.6219980
  H       -2.0070850     2.7494970    -0.6221200
  H       -3.1169600     1.3690200     0.6216180
  H       -3.3401820     0.5158720    -0.9081780
  H       -3.3845810    -0.3632220     0.6225760
  H        2.7440520     2.0146320     0.6219170
  H        1.3780590     3.1129020     0.6222310
  H        2.1174310     2.6343160    -0.9082230
  H       -1.3778060    -3.1130310    -0.6216310
  H       -2.1180860    -2.6338480     0.9081850
  H       -2.7438120    -2.0147100    -0.6225210
  H        3.3400770    -0.5159510     0.9083360
  H        3.1168940    -1.3692350    -0.6214080
  H        3.3848100     0.3629430    -0.6224920
  H        0.3729260    -3.3838390     0.6217170
  H        1.2232470    -3.1507440    -0.9082080
  H        2.0069120    -2.7495520     0.6224200
units angstrom
no_reorient  #important for SAPT in psi4, default
symmetry c1  #important for SAPT in psi4, default
}

set PROPERTIES_ORIGIN ["COM"]
properties('MP2/aug-cc-pvtz', properties = ['dipole'])
--------------------------------------------------------------------------

    Molecular point group: c1
  Charge       = 0
  Multiplicity = 1
  Basis Set: AUG-CC-PVTZ
    Blend: AUG-CC-PVTZ
  Basis Set: (AUG-CC-PVTZ AUX)
    Blend: AUG-CC-PVTZ-JKFIT

    Orbital Energies [Eh]
    ---------------------

    Doubly Occupied:

       1A    -11.233912     2A    -11.229768     3A    -11.224882
       4A    -11.224304     5A    -11.222662     6A    -11.222116
       7A    -11.214664     8A    -11.214577     9A    -11.214334
      10A    -11.213486    11A    -11.212102    12A    -11.210490
      13A     -1.148835    14A     -1.077177    15A     -1.062134
      16A     -0.989879    17A     -0.975491    18A     -0.943983
      19A     -0.936155    20A     -0.864394    21A     -0.855479
      22A     -0.749703    23A     -0.733343    24A     -0.677194
      25A     -0.619834    26A     -0.602853    27A     -0.587607
      28A     -0.579274    29A     -0.574551    30A     -0.572318
      31A     -0.570752    32A     -0.550930    33A     -0.546834
      34A     -0.538692    35A     -0.536568    36A     -0.526554
      37A     -0.523930    38A     -0.520885    39A     -0.503104
      40A     -0.497292    41A     -0.465182    42A     -0.430608
      43A     -0.427213    44A     -0.298015    45A     -0.280276

  @DF-RHF Final Energy:  -465.02324843723130

   => Energetics <=

    Nuclear Repulsion Energy =            712.7906274885117455
    One-Electron Energy =               -2042.8190831427625653
    Two-Electron Energy =                 865.0052072170194606
    Total Energy =                       -465.0232484372313593
  Basis Set: (AUG-CC-PVTZ AUX)
    Blend: AUG-CC-PVTZ-RI
    Molecular point group: c1

    Geometry (in Angstrom), charge = 0, multiplicity = 1:

       Center              X                  Y                   Z               Mass
    ------------   -----------------  -----------------  -----------------  -----------------
         C           -0.509994646981     1.300670229274    -0.022385385412    12.000000000000
         C           -1.391305646981     0.204200229274     0.023099614588    12.000000000000
         C            0.895240653019     1.232112929274     0.018233414588    12.000000000000
         C           -0.882455646981    -1.107276770726    -0.022337385412    12.000000000000
         C            1.389115353019    -0.225853770726    -0.022433385412    12.000000000000
         C            0.507794353019    -1.322335770726     0.023024614588    12.000000000000
         C           -1.056778646981     2.709470229274    -0.087133385412    12.000000000000
         C           -2.884761646981     0.435051229274     0.087886614588    12.000000000000
         C            1.827062353019     2.263430229274     0.087849614588    12.000000000000
         C           -1.829338646981    -2.285032770726    -0.087139385412    12.000000000000
         C            2.882554353019    -0.456872770726    -0.087074385412    12.000000000000
         C            1.054561353019    -2.731146770726     0.087831614588    12.000000000000
         H           -1.224010646981     3.139939229274     0.908596614588     1.007825032230
         H           -0.374263646981     3.373027229274    -0.621641385412     1.007825032230
         H           -2.008196646981     2.738654229274    -0.621763385412     1.007825032230
         H           -3.118071646981     1.358177229274     0.621974614588     1.007825032230
         H           -3.341293646981     0.505029229274    -0.907821385412     1.007825032230
         H           -3.385692646981    -0.374064770726     0.622932614588     1.007825032230
         H            2.742940353019     2.003789229274     0.622273614588     1.007825032230
         H            1.376947353019     3.102059229274     0.622587614588     1.007825032230
         H            2.116319353019     2.623473229274    -0.907866385412     1.007825032230
         H           -1.378917646981    -3.123873770726    -0.621274385412     1.007825032230
         H           -2.119197646981    -2.644690770726     0.908541614588     1.007825032230
         H           -2.744923646981    -2.025552770726    -0.622164385412     1.007825032230
         H            3.338965353019    -0.526793770726     0.908692614588     1.007825032230
         H            3.115782353019    -1.380077770726    -0.621051385412     1.007825032230
         H            3.383698353019     0.352100229274    -0.622135385412     1.007825032230
         H            0.371814353019    -3.394681770726     0.622073614588     1.007825032230
         H            1.222135353019    -3.161586770726    -0.907851385412     1.007825032230
         H            2.005800353019    -2.760394770726     0.622776614588     1.007825032230

  Basis Set: AUG-CC-PVTZ
    Blend: AUG-CC-PVTZ
  Basis Set: (AUG-CC-PVTZ AUX)
    Blend: AUG-CC-PVTZ-JKFIT
	 Reference Energy          =    -465.0232484372313024 [Eh]
	 Singles Energy            =      -0.0000000000000000 [Eh]
	 Same-Spin Energy          =      -0.5284414796293485 [Eh]
	 Opposite-Spin Energy      =      -1.7699318461580988 [Eh]
	 Correlation Energy        =      -2.2983733257874475 [Eh]
	 Total Energy              =    -467.3216217630187543 [Eh]

	 ================> DF-SCS-MP2 Energies <==================
	-----------------------------------------------------------
	 SCS Same-Spin Scale       =       0.3333333333333333 [-]
	 SCS Opposite-Spin Scale   =       1.2000000000000000 [-]
	 SCS Same-Spin Energy      =      -0.1761471598764495 [Eh]
	 SCS Opposite-Spin Energy  =      -2.1239182153897187 [Eh]
	 SCS Correlation Energy    =      -2.3000653752661684 [Eh]
	 SCS Total Energy          =    -467.3233138124974744 [Eh]
	-----------------------------------------------------------

  Dipole Moment: [D]
     X:     0.1155      Y:     0.0732      Z:     0.0225     Total:     0.1386

*** Psi4 exiting successfully. Buy a developer a beer!
