                               Psi4 1.3.2 release

  ==> Input File <==

--------------------------------------------------------------------------
#psi4
#
memory 32 gb

molecule  {
0 1
  C       -0.5088830     1.3115130    -0.0227420
  C       -1.3901940     0.2150430     0.0227430
  C        0.8628611     1.0000319     0.0255688
  C       -0.8813440    -1.0964340    -0.0226940
  C        1.3902270    -0.2150110    -0.0227900
  C        0.5089060    -1.3114930     0.0226680
  C       -1.0556670     2.7203130    -0.0874900
  C       -2.8836500     0.4458940     0.0875300
  C        1.8281740     2.2742730     0.0874930
  C       -1.8282270    -2.2741900    -0.0874960
  C        2.8836660    -0.4460300    -0.0874310
  C        1.0556730    -2.7203040     0.0874750
  H       -1.2228990     3.1507820     0.9082400
  H       -0.3731520     3.3838700    -0.6219980
  H       -2.0070850     2.7494970    -0.6221200
  H       -3.1169600     1.3690200     0.6216180
  H       -3.3401820     0.5158720    -0.9081780
  H       -3.3845810    -0.3632220     0.6225760
  H        2.7440520     2.0146320     0.6219170
  H        1.3780590     3.1129020     0.6222310
  H        2.1174310     2.6343160    -0.9082230
  H       -1.3778060    -3.1130310    -0.6216310
  H       -2.1180860    -2.6338480     0.9081850
  H       -2.7438120    -2.0147100    -0.6225210
  H        3.3400770    -0.5159510     0.9083360
  H        3.1168940    -1.3692350    -0.6214080
  H        3.3848100     0.3629430    -0.6224920
  H        0.3729260    -3.3838390     0.6217170
  H        1.2232470    -3.1507440    -0.9082080
  H        2.0069120    -2.7495520     0.6224200
units angstrom
no_reorient  #important for SAPT in psi4, default
symmetry c1  #important for SAPT in psi4, default
}

set PROPERTIES_ORIGIN ["COM"]
properties('MP2/aug-cc-pvtz', properties = ['dipole'])
--------------------------------------------------------------------------

    Molecular point group: c1
  Charge       = 0
  Multiplicity = 1
  Basis Set: AUG-CC-PVTZ
    Blend: AUG-CC-PVTZ
  Basis Set: (AUG-CC-PVTZ AUX)
    Blend: AUG-CC-PVTZ-JKFIT

    Orbital Energies [Eh]
    ---------------------

    Doubly Occupied:

       1A    -11.224001     2A    -11.223764     3A    -11.222777
       4A    -11.221544     5A    -11.219015     6A    -11.216943
       7A    -11.215370     8A    -11.214695     9A    -11.214317
      10A    -11.214200    11A    -11.214119    12A    -11.213782
      13A     -1.160397    14A     -1.070194    15A     -1.061508
      16A     -0.977843    17A     -0.970386    18A     -0.945340
      19A     -0.933836    20A     -0.873307    21A     -0.865658
      22A     -0.753220    23A     -0.741803    24A     -0.679134
      25A     -0.617749    26A     -0.601211    27A     -0.574453
      28A     -0.572119    29A     -0.570658    30A     -0.569682
      31A     -0.564054    32A     -0.548307    33A     -0.545266
      34A     -0.536644    35A     -0.535628    36A     -0.522843
      37A     -0.521654    38A     -0.518386    39A     -0.515675
      40A     -0.495567    41A     -0.460265    42A     -0.446340
      43A     -0.433277    44A     -0.304850    45A     -0.292669

  @DF-RHF Final Energy:  -465.04256515072848

   => Energetics <=

    Nuclear Repulsion Energy =            715.0538690204783734
    One-Electron Energy =               -2047.4039676683948983
    Two-Electron Energy =                 867.3075334971881603
    Total Energy =                       -465.0425651507284783
  Basis Set: (AUG-CC-PVTZ AUX)
    Blend: AUG-CC-PVTZ-RI
    Molecular point group: c1

    Geometry (in Angstrom), charge = 0, multiplicity = 1:

       Center              X                  Y                   Z               Mass
    ------------   -----------------  -----------------  -----------------  -----------------
         C           -0.507515972431     1.318648953264    -0.022954668228    12.000000000000
         C           -1.388826972431     0.222178953264     0.022530331772    12.000000000000
         C            0.864228127569     1.007167853264     0.025356131772    12.000000000000
         C           -0.879976972431    -1.089298046736    -0.022906668228    12.000000000000
         C            1.391594027569    -0.207875046736    -0.023002668228    12.000000000000
         C            0.510273027569    -1.304357046736     0.022455331772    12.000000000000
         C           -1.054299972431     2.727448953264    -0.087702668228    12.000000000000
         C           -2.882282972431     0.453029953264     0.087317331772    12.000000000000
         C            1.829541027569     2.281408953264     0.087280331772    12.000000000000
         C           -1.826859972431    -2.267054046736    -0.087708668228    12.000000000000
         C            2.885033027569    -0.438894046736    -0.087643668228    12.000000000000
         C            1.057040027569    -2.713168046736     0.087262331772    12.000000000000
         H           -1.221531972431     3.157917953264     0.908027331772     1.007825032230
         H           -0.371784972431     3.391005953264    -0.622210668228     1.007825032230
         H           -2.005717972431     2.756632953264    -0.622332668228     1.007825032230
         H           -3.115592972431     1.376155953264     0.621405331772     1.007825032230
         H           -3.338814972431     0.523007953264    -0.908390668228     1.007825032230
         H           -3.383213972431    -0.356086046736     0.622363331772     1.007825032230
         H            2.745419027569     2.021767953264     0.621704331772     1.007825032230
         H            1.379426027569     3.120037953264     0.622018331772     1.007825032230
         H            2.118798027569     2.641451953264    -0.908435668228     1.007825032230
         H           -1.376438972431    -3.105895046736    -0.621843668228     1.007825032230
         H           -2.116718972431    -2.626712046736     0.907972331772     1.007825032230
         H           -2.742444972431    -2.007574046736    -0.622733668228     1.007825032230
         H            3.341444027569    -0.508815046736     0.908123331772     1.007825032230
         H            3.118261027569    -1.362099046736    -0.621620668228     1.007825032230
         H            3.386177027569     0.370078953264    -0.622704668228     1.007825032230
         H            0.374293027569    -3.376703046736     0.621504331772     1.007825032230
         H            1.224614027569    -3.143608046736    -0.908420668228     1.007825032230
         H            2.008279027569    -2.742416046736     0.622207331772     1.007825032230

  Basis Set: AUG-CC-PVTZ
    Blend: AUG-CC-PVTZ
  Basis Set: (AUG-CC-PVTZ AUX)
    Blend: AUG-CC-PVTZ-JKFIT
	 Reference Energy          =    -465.0425651507284783 [Eh]
	 Singles Energy            =      -0.0000000000000000 [Eh]
	 Same-Spin Energy          =      -0.5259130328060039 [Eh]
	 Opposite-Spin Energy      =      -1.7661184312616451 [Eh]
	 Correlation Energy        =      -2.2920314640676489 [Eh]
	 Total Energy              =    -467.3345966147961121 [Eh]

	 ================> DF-SCS-MP2 Energies <==================
	-----------------------------------------------------------
	 SCS Same-Spin Scale       =       0.3333333333333333 [-]
	 SCS Opposite-Spin Scale   =       1.2000000000000000 [-]
	 SCS Same-Spin Energy      =      -0.1753043442686679 [Eh]
	 SCS Opposite-Spin Energy  =      -2.1193421175139742 [Eh]
	 SCS Correlation Energy    =      -2.2946464617826421 [Eh]
	 SCS Total Energy          =    -467.3372116125111120 [Eh]
	-----------------------------------------------------------

  Dipole Moment: [D]
     X:    -0.0806      Y:    -0.0553      Z:    -0.0157     Total:     0.0990

*** Psi4 exiting successfully. Buy a developer a beer!
