                               Psi4 1.3.2 release

  ==> Input File <==

--------------------------------------------------------------------------
#psi4
#
memory 32 gb

molecule  {
0 1
  C       -0.5088830     1.3115130    -0.0227420
  C       -1.3901940     0.2150430     0.0227430
  C        0.8930559     1.1939657     0.0195220
  C       -0.8813440    -1.0964340    -0.0226940
  C        1.3902270    -0.2150110    -0.0227900
  C        0.5089060    -1.3114930     0.0226680
  C       -1.0556670     2.7203130    -0.0874900
  C       -2.8836500     0.4458940     0.0875300
  C        1.8281740     2.2742730     0.0874930
  C       -1.8282270    -2.2741900    -0.0874960
  C        2.8836660    -0.4460300    -0.0874310
  C        1.0556730    -2.7203040     0.0874750
  H       -1.2228990     3.1507820     0.9082400
  H       -0.3731520     3.3838700    -0.6219980
  H       -2.0070850     2.7494970    -0.6221200
  H       -3.1169600     1.3690200     0.6216180
  H       -3.3401820     0.5158720    -0.9081780
  H       -3.3845810    -0.3632220     0.6225760
  H        2.7440520     2.0146320     0.6219170
  H        1.3780590     3.1129020     0.6222310
  H        2.1174310     2.6343160    -0.9082230
  H       -1.3778060    -3.1130310    -0.6216310
  H       -2.1180860    -2.6338480     0.9081850
  H       -2.7438120    -2.0147100    -0.6225210
  H        3.3400770    -0.5159510     0.9083360
  H        3.1168940    -1.3692350    -0.6214080
  H        3.3848100     0.3629430    -0.6224920
  H        0.3729260    -3.3838390     0.6217170
  H        1.2232470    -3.1507440    -0.9082080
  H        2.0069120    -2.7495520     0.6224200
units angstrom
no_reorient  #important for SAPT in psi4, default
symmetry c1  #important for SAPT in psi4, default
}

set PROPERTIES_ORIGIN ["COM"]
properties('MP2/aug-cc-pvtz', properties = ['dipole'])
--------------------------------------------------------------------------

    Molecular point group: c1
  Charge       = 0
  Multiplicity = 1
  Basis Set: AUG-CC-PVTZ
    Blend: AUG-CC-PVTZ
  Basis Set: (AUG-CC-PVTZ AUX)
    Blend: AUG-CC-PVTZ-JKFIT

    Orbital Energies [Eh]
    ---------------------

    Doubly Occupied:

       1A    -11.230826     2A    -11.227479     3A    -11.224490
       4A    -11.223773     5A    -11.222583     6A    -11.222233
       7A    -11.214553     8A    -11.214497     9A    -11.214361
      10A    -11.213707    11A    -11.212900    12A    -11.211729
      13A     -1.150037    14A     -1.072644    15A     -1.063068
      16A     -0.985298    17A     -0.975776    18A     -0.942937
      19A     -0.937810    20A     -0.864811    21A     -0.858524
      22A     -0.748215    23A     -0.737025    24A     -0.677709
      25A     -0.617574    26A     -0.601779    27A     -0.581708
      28A     -0.577169    29A     -0.573967    30A     -0.572205
      31A     -0.570836    32A     -0.549961    33A     -0.547095
      34A     -0.538523    35A     -0.534770    36A     -0.526441
      37A     -0.523505    38A     -0.521362    39A     -0.506480
      40A     -0.497021    41A     -0.461682    42A     -0.436645
      43A     -0.433062    44A     -0.296884    45A     -0.284890

  @DF-RHF Final Energy:  -465.03844837508501

   => Energetics <=

    Nuclear Repulsion Energy =            713.1640098558431191
    One-Electron Energy =               -2043.6038262034926447
    Two-Electron Energy =                 865.4013679725643442
    Total Energy =                       -465.0384483750850677
  Basis Set: (AUG-CC-PVTZ AUX)
    Blend: AUG-CC-PVTZ-RI
    Molecular point group: c1

    Geometry (in Angstrom), charge = 0, multiplicity = 1:

       Center              X                  Y                   Z               Mass
    ------------   -----------------  -----------------  -----------------  -----------------
         C           -0.509750681319     1.304295965774    -0.022507146214    12.000000000000
         C           -1.391061681319     0.207825965774     0.022977853786    12.000000000000
         C            0.892188218681     1.186748665774     0.019756853786    12.000000000000
         C           -0.882211681319    -1.103651034226    -0.022459146214    12.000000000000
         C            1.389359318681    -0.222228034226    -0.022555146214    12.000000000000
         C            0.508038318681    -1.318710034226     0.022902853786    12.000000000000
         C           -1.056534681319     2.713095965774    -0.087255146214    12.000000000000
         C           -2.884517681319     0.438676965774     0.087764853786    12.000000000000
         C            1.827306318681     2.267055965774     0.087727853786    12.000000000000
         C           -1.829094681319    -2.281407034226    -0.087261146214    12.000000000000
         C            2.882798318681    -0.453247034226    -0.087196146214    12.000000000000
         C            1.054805318681    -2.727521034226     0.087709853786    12.000000000000
         H           -1.223766681319     3.143564965774     0.908474853786     1.007825032230
         H           -0.374019681319     3.376652965774    -0.621763146214     1.007825032230
         H           -2.007952681319     2.742279965774    -0.621885146214     1.007825032230
         H           -3.117827681319     1.361802965774     0.621852853786     1.007825032230
         H           -3.341049681319     0.508654965774    -0.907943146214     1.007825032230
         H           -3.385448681319    -0.370439034226     0.622810853786     1.007825032230
         H            2.743184318681     2.007414965774     0.622151853786     1.007825032230
         H            1.377191318681     3.105684965774     0.622465853786     1.007825032230
         H            2.116563318681     2.627098965774    -0.907988146214     1.007825032230
         H           -1.378673681319    -3.120248034226    -0.621396146214     1.007825032230
         H           -2.118953681319    -2.641065034226     0.908419853786     1.007825032230
         H           -2.744679681319    -2.021927034226    -0.622286146214     1.007825032230
         H            3.339209318681    -0.523168034226     0.908570853786     1.007825032230
         H            3.116026318681    -1.376452034226    -0.621173146214     1.007825032230
         H            3.383942318681     0.355725965774    -0.622257146214     1.007825032230
         H            0.372058318681    -3.391056034226     0.621951853786     1.007825032230
         H            1.222379318681    -3.157961034226    -0.907973146214     1.007825032230
         H            2.006044318681    -2.756769034226     0.622654853786     1.007825032230

  Basis Set: AUG-CC-PVTZ
    Blend: AUG-CC-PVTZ
  Basis Set: (AUG-CC-PVTZ AUX)
    Blend: AUG-CC-PVTZ-JKFIT
	 Reference Energy          =    -465.0384483750850109 [Eh]
	 Singles Energy            =      -0.0000000000000000 [Eh]
	 Same-Spin Energy          =      -0.5276439633403657 [Eh]
	 Opposite-Spin Energy      =      -1.7684229309919213 [Eh]
	 Correlation Energy        =      -2.2960668943322871 [Eh]
	 Total Energy              =    -467.3345152694172953 [Eh]

	 ================> DF-SCS-MP2 Energies <==================
	-----------------------------------------------------------
	 SCS Same-Spin Scale       =       0.3333333333333333 [-]
	 SCS Opposite-Spin Scale   =       1.2000000000000000 [-]
	 SCS Same-Spin Energy      =      -0.1758813211134552 [Eh]
	 SCS Opposite-Spin Energy  =      -2.1221075171903054 [Eh]
	 SCS Correlation Energy    =      -2.2979888383037608 [Eh]
	 SCS Total Energy          =    -467.3364372133887628 [Eh]
	-----------------------------------------------------------

  Dipole Moment: [D]
     X:     0.0767      Y:     0.0470      Z:     0.0153     Total:     0.0912

*** Psi4 exiting successfully. Buy a developer a beer!
