                               Psi4 1.3.2 release

  ==> Input File <==

--------------------------------------------------------------------------
#psi4
#
memory 32 gb

molecule  {
0 1
  C       -0.5088830     1.3115130    -0.0227420
  C       -1.3513751     0.1850546     0.0254555
  C        0.8813450     1.0964750     0.0226560
  C       -0.8813440    -1.0964340    -0.0226940
  C        1.3902270    -0.2150110    -0.0227900
  C        0.5089060    -1.3114930     0.0226680
  C       -1.0556670     2.7203130    -0.0874900
  C       -2.8836500     0.4458940     0.0875300
  C        1.8281740     2.2742730     0.0874930
  C       -1.8282270    -2.2741900    -0.0874960
  C        2.8836660    -0.4460300    -0.0874310
  C        1.0556730    -2.7203040     0.0874750
  H       -1.2228990     3.1507820     0.9082400
  H       -0.3731520     3.3838700    -0.6219980
  H       -2.0070850     2.7494970    -0.6221200
  H       -3.1169600     1.3690200     0.6216180
  H       -3.3401820     0.5158720    -0.9081780
  H       -3.3845810    -0.3632220     0.6225760
  H        2.7440520     2.0146320     0.6219170
  H        1.3780590     3.1129020     0.6222310
  H        2.1174310     2.6343160    -0.9082230
  H       -1.3778060    -3.1130310    -0.6216310
  H       -2.1180860    -2.6338480     0.9081850
  H       -2.7438120    -2.0147100    -0.6225210
  H        3.3400770    -0.5159510     0.9083360
  H        3.1168940    -1.3692350    -0.6214080
  H        3.3848100     0.3629430    -0.6224920
  H        0.3729260    -3.3838390     0.6217170
  H        1.2232470    -3.1507440    -0.9082080
  H        2.0069120    -2.7495520     0.6224200
units angstrom
no_reorient  #important for SAPT in psi4, default
symmetry c1  #important for SAPT in psi4, default
}

set PROPERTIES_ORIGIN ["COM"]
properties('MP2/aug-cc-pvtz', properties = ['dipole'])
--------------------------------------------------------------------------

    Molecular point group: c1
  Charge       = 0
  Multiplicity = 1
  Basis Set: AUG-CC-PVTZ
    Blend: AUG-CC-PVTZ
  Basis Set: (AUG-CC-PVTZ AUX)
    Blend: AUG-CC-PVTZ-JKFIT

    Orbital Energies [Eh]
    ---------------------

    Doubly Occupied:

       1A    -11.223891     2A    -11.223512     3A    -11.222742
       4A    -11.221880     5A    -11.220923     6A    -11.218367
       7A    -11.215633     8A    -11.214739     9A    -11.214691
      10A    -11.214300    11A    -11.214244    12A    -11.214209
      13A     -1.156892    14A     -1.067844    15A     -1.063466
      16A     -0.977182    17A     -0.973079    18A     -0.943630
      19A     -0.936771    20A     -0.869220    21A     -0.865568
      22A     -0.749194    23A     -0.743446    24A     -0.678889
      25A     -0.616866    26A     -0.600934    27A     -0.574114
      28A     -0.572724    29A     -0.570925    30A     -0.570400
      31A     -0.566730    32A     -0.547966    33A     -0.546414
      34A     -0.537409    35A     -0.531247    36A     -0.524157
      37A     -0.522541    38A     -0.521069    39A     -0.515054
      40A     -0.495976    41A     -0.456128    42A     -0.443374
      43A     -0.442152    44A     -0.299702    45A     -0.293601

  @DF-RHF Final Energy:  -465.05040303739082

   => Energetics <=

    Nuclear Repulsion Energy =            714.5204505318334895
    One-Electron Energy =               -2046.3541207733555893
    Two-Electron Energy =                 866.7832672041313344
    Total Energy =                       -465.0504030373908790
  Basis Set: (AUG-CC-PVTZ AUX)
    Blend: AUG-CC-PVTZ-RI
    Molecular point group: c1

    Geometry (in Angstrom), charge = 0, multiplicity = 1:

       Center              X                  Y                   Z               Mass
    ------------   -----------------  -----------------  -----------------  -----------------
         C           -0.511756936984     1.313730659094    -0.022939844080    12.000000000000
         C           -1.354249036984     0.187272259094     0.025257655920    12.000000000000
         C            0.878471063016     1.098692659094     0.022458155920    12.000000000000
         C           -0.884217936984    -1.094216340906    -0.022891844080    12.000000000000
         C            1.387353063016    -0.212793340906    -0.022987844080    12.000000000000
         C            0.506032063016    -1.309275340906     0.022470155920    12.000000000000
         C           -1.058540936984     2.722530659094    -0.087687844080    12.000000000000
         C           -2.886523936984     0.448111659094     0.087332155920    12.000000000000
         C            1.825300063016     2.276490659094     0.087295155920    12.000000000000
         C           -1.831100936984    -2.271972340906    -0.087693844080    12.000000000000
         C            2.880792063016    -0.443812340906    -0.087628844080    12.000000000000
         C            1.052799063016    -2.718086340906     0.087277155920    12.000000000000
         H           -1.225772936984     3.152999659094     0.908042155920     1.007825032230
         H           -0.376025936984     3.386087659094    -0.622195844080     1.007825032230
         H           -2.009958936984     2.751714659094    -0.622317844080     1.007825032230
         H           -3.119833936984     1.371237659094     0.621420155920     1.007825032230
         H           -3.343055936984     0.518089659094    -0.908375844080     1.007825032230
         H           -3.387454936984    -0.361004340906     0.622378155920     1.007825032230
         H            2.741178063016     2.016849659094     0.621719155920     1.007825032230
         H            1.375185063016     3.115119659094     0.622033155920     1.007825032230
         H            2.114557063016     2.636533659094    -0.908420844080     1.007825032230
         H           -1.380679936984    -3.110813340906    -0.621828844080     1.007825032230
         H           -2.120959936984    -2.631630340906     0.907987155920     1.007825032230
         H           -2.746685936984    -2.012492340906    -0.622718844080     1.007825032230
         H            3.337203063016    -0.513733340906     0.908138155920     1.007825032230
         H            3.114020063016    -1.367017340906    -0.621605844080     1.007825032230
         H            3.381936063016     0.365160659094    -0.622689844080     1.007825032230
         H            0.370052063016    -3.381621340906     0.621519155920     1.007825032230
         H            1.220373063016    -3.148526340906    -0.908405844080     1.007825032230
         H            2.004038063016    -2.747334340906     0.622222155920     1.007825032230

  Basis Set: AUG-CC-PVTZ
    Blend: AUG-CC-PVTZ
  Basis Set: (AUG-CC-PVTZ AUX)
    Blend: AUG-CC-PVTZ-JKFIT
	 Reference Energy          =    -465.0504030373908222 [Eh]
	 Singles Energy            =      -0.0000000000000000 [Eh]
	 Same-Spin Energy          =      -0.5261251949464260 [Eh]
	 Opposite-Spin Energy      =      -1.7661361729116027 [Eh]
	 Correlation Energy        =      -2.2922613678580288 [Eh]
	 Total Energy              =    -467.3426644052488541 [Eh]

	 ================> DF-SCS-MP2 Energies <==================
	-----------------------------------------------------------
	 SCS Same-Spin Scale       =       0.3333333333333333 [-]
	 SCS Opposite-Spin Scale   =       1.2000000000000000 [-]
	 SCS Same-Spin Energy      =      -0.1753750649821420 [Eh]
	 SCS Opposite-Spin Energy  =      -2.1193634074939234 [Eh]
	 SCS Correlation Energy    =      -2.2947384724760655 [Eh]
	 SCS Total Energy          =    -467.3451415098668917 [Eh]
	-----------------------------------------------------------

  Dipole Moment: [D]
     X:     0.0459      Y:     0.0078      Z:    -0.0082     Total:     0.0473

*** Psi4 exiting successfully. Buy a developer a beer!
