                               Psi4 1.3.2 release

  ==> Input File <==

--------------------------------------------------------------------------
#psi4
#
memory 32 gb

molecule  {
0 1
  C       -0.5088830     1.3115130    -0.0227420
  C       -1.3901940     0.2150430     0.0227430
  C        0.8849105     1.1207680     0.0218927
  C       -0.8813440    -1.0964340    -0.0226940
  C        1.3902270    -0.2150110    -0.0227900
  C        0.5089060    -1.3114930     0.0226680
  C       -1.0556670     2.7203130    -0.0874900
  C       -2.8836500     0.4458940     0.0875300
  C        1.8281740     2.2742730     0.0874930
  C       -1.8282270    -2.2741900    -0.0874960
  C        2.8836660    -0.4460300    -0.0874310
  C        1.0556730    -2.7203040     0.0874750
  H       -1.2228990     3.1507820     0.9082400
  H       -0.3731520     3.3838700    -0.6219980
  H       -2.0070850     2.7494970    -0.6221200
  H       -3.1169600     1.3690200     0.6216180
  H       -3.3401820     0.5158720    -0.9081780
  H       -3.3845810    -0.3632220     0.6225760
  H        2.7440520     2.0146320     0.6219170
  H        1.3780590     3.1129020     0.6222310
  H        2.1174310     2.6343160    -0.9082230
  H       -1.3778060    -3.1130310    -0.6216310
  H       -2.1180860    -2.6338480     0.9081850
  H       -2.7438120    -2.0147100    -0.6225210
  H        3.3400770    -0.5159510     0.9083360
  H        3.1168940    -1.3692350    -0.6214080
  H        3.3848100     0.3629430    -0.6224920
  H        0.3729260    -3.3838390     0.6217170
  H        1.2232470    -3.1507440    -0.9082080
  H        2.0069120    -2.7495520     0.6224200
units angstrom
no_reorient  #important for SAPT in psi4, default
symmetry c1  #important for SAPT in psi4, default
}

set PROPERTIES_ORIGIN ["COM"]
properties('MP2/aug-cc-pvtz', properties = ['dipole'])
--------------------------------------------------------------------------

    Molecular point group: c1
  Charge       = 0
  Multiplicity = 1
  Basis Set: AUG-CC-PVTZ
    Blend: AUG-CC-PVTZ
  Basis Set: (AUG-CC-PVTZ AUX)
    Blend: AUG-CC-PVTZ-JKFIT

    Orbital Energies [Eh]
    ---------------------

    Doubly Occupied:

       1A    -11.225446     2A    -11.224230     3A    -11.223953
       4A    -11.223130     5A    -11.222549     6A    -11.222078
       7A    -11.214377     8A    -11.214363     9A    -11.214335
      10A    -11.214139    11A    -11.214024    12A    -11.213665
      13A     -1.152833    14A     -1.067316    15A     -1.065057
      16A     -0.978631    17A     -0.976368    18A     -0.941527
      19A     -0.939572    20A     -0.865281    21A     -0.863580
      22A     -0.745878    23A     -0.743020    24A     -0.678388
      25A     -0.616420    26A     -0.601001    27A     -0.574675
      28A     -0.573816    29A     -0.572933    30A     -0.571449
      31A     -0.570883    32A     -0.548255    33A     -0.547505
      34A     -0.538121    35A     -0.530248    36A     -0.527380
      37A     -0.522614    38A     -0.522020    39A     -0.511601
      40A     -0.496532    41A     -0.454201    42A     -0.447914
      43A     -0.437346    44A     -0.295191    45A     -0.292151

  @DF-RHF Final Energy:  -465.05093278338848

   => Energetics <=

    Nuclear Repulsion Energy =            713.7975574531488974
    One-Electron Energy =               -2044.9049915660648367
    Two-Electron Energy =                 866.0565013295275776
    Total Energy =                       -465.0509327833884754
  Basis Set: (AUG-CC-PVTZ AUX)
    Blend: AUG-CC-PVTZ-RI
    Molecular point group: c1

    Geometry (in Angstrom), charge = 0, multiplicity = 1:

       Center              X                  Y                   Z               Mass
    ------------   -----------------  -----------------  -----------------  -----------------
         C           -0.509147842493     1.309713307528    -0.022682601072    12.000000000000
         C           -1.390458842493     0.213243307528     0.022802398928    12.000000000000
         C            0.884645657507     1.118968307528     0.021952098928    12.000000000000
         C           -0.881608842493    -1.098233692472    -0.022634601072    12.000000000000
         C            1.389962157507    -0.216810692472    -0.022730601072    12.000000000000
         C            0.508641157507    -1.313292692472     0.022727398928    12.000000000000
         C           -1.055931842493     2.718513307528    -0.087430601072    12.000000000000
         C           -2.883914842493     0.444094307528     0.087589398928    12.000000000000
         C            1.827909157507     2.272473307528     0.087552398928    12.000000000000
         C           -1.828491842493    -2.275989692472    -0.087436601072    12.000000000000
         C            2.883401157507    -0.447829692472    -0.087371601072    12.000000000000
         C            1.055408157507    -2.722103692472     0.087534398928    12.000000000000
         H           -1.223163842493     3.148982307528     0.908299398928     1.007825032230
         H           -0.373416842493     3.382070307528    -0.621938601072     1.007825032230
         H           -2.007349842493     2.747697307528    -0.622060601072     1.007825032230
         H           -3.117224842493     1.367220307528     0.621677398928     1.007825032230
         H           -3.340446842493     0.514072307528    -0.908118601072     1.007825032230
         H           -3.384845842493    -0.365021692472     0.622635398928     1.007825032230
         H            2.743787157507     2.012832307528     0.621976398928     1.007825032230
         H            1.377794157507     3.111102307528     0.622290398928     1.007825032230
         H            2.117166157507     2.632516307528    -0.908163601072     1.007825032230
         H           -1.378070842493    -3.114830692472    -0.621571601072     1.007825032230
         H           -2.118350842493    -2.635647692472     0.908244398928     1.007825032230
         H           -2.744076842493    -2.016509692472    -0.622461601072     1.007825032230
         H            3.339812157507    -0.517750692472     0.908395398928     1.007825032230
         H            3.116629157507    -1.371034692472    -0.621348601072     1.007825032230
         H            3.384545157507     0.361143307528    -0.622432601072     1.007825032230
         H            0.372661157507    -3.385638692472     0.621776398928     1.007825032230
         H            1.222982157507    -3.152543692472    -0.908148601072     1.007825032230
         H            2.006647157507    -2.751351692472     0.622479398928     1.007825032230

  Basis Set: AUG-CC-PVTZ
    Blend: AUG-CC-PVTZ
  Basis Set: (AUG-CC-PVTZ AUX)
    Blend: AUG-CC-PVTZ-JKFIT
	 Reference Energy          =    -465.0509327833884754 [Eh]
	 Singles Energy            =      -0.0000000000000000 [Eh]
	 Same-Spin Energy          =      -0.5267214294332131 [Eh]
	 Opposite-Spin Energy      =      -1.7668554133909455 [Eh]
	 Correlation Energy        =      -2.2935768428241587 [Eh]
	 Total Energy              =    -467.3445096262126413 [Eh]

	 ================> DF-SCS-MP2 Energies <==================
	-----------------------------------------------------------
	 SCS Same-Spin Scale       =       0.3333333333333333 [-]
	 SCS Opposite-Spin Scale   =       1.2000000000000000 [-]
	 SCS Same-Spin Energy      =      -0.1755738098110710 [Eh]
	 SCS Opposite-Spin Energy  =      -2.1202264960691344 [Eh]
	 SCS Correlation Energy    =      -2.2958003058802054 [Eh]
	 SCS Total Energy          =    -467.3467330892686959 [Eh]
	-----------------------------------------------------------

  Dipole Moment: [D]
     X:     0.0192      Y:     0.0117      Z:     0.0040     Total:     0.0229

*** Psi4 exiting successfully. Buy a developer a beer!
