                               Psi4 1.4a3.dev225

  ==> Input File <==

--------------------------------------------------------------------------
#psi4
#
memory 32 gb

molecule  {
0 1
  C        1.3213680    -0.4826540     0.0227320
  C        0.2426940    -1.3856650    -0.0227310
  C        1.0786750     0.9030120    -0.0227320
  C       -1.0786740    -0.9030120     0.0227310
  C       -0.2426940     1.3856650     0.0227310
  C       -1.3213680     0.4826540    -0.0227320
  C        2.7596118    -1.0079976     0.0883311
  C        0.5034070    -2.8742110    -0.0874730
  C        2.2374380     1.8730680    -0.0874750
  C       -2.2374370    -1.8730680     0.0874710
  C       -0.5034080     2.8742110     0.0874730
  C       -2.7408430     1.0011420    -0.0874710
  H        3.1746400    -1.1595960    -0.9082440
  H        3.3905060    -0.3054150     0.6220360
  H        2.7891340    -1.9518050     0.6220400
  H        1.4307530    -3.0889730    -0.6220380
  H        0.5830830    -3.3291160     0.9082460
  H       -0.2957480    -3.3913640    -0.6220350
  H        1.9597520     2.7835590    -0.6220300
  H        3.0848770     1.4395570    -0.6220470
  H        2.5915670     2.1695120     0.9082440
  H       -3.0848780    -1.4395580     0.6220420
  H       -2.5915640    -2.1695110    -0.9082490
  H       -1.9597530    -2.7835590     0.6220250
  H       -0.5830940     3.3291140    -0.9082460
  H       -1.4307490     3.0889720     0.6220460
  H        0.2957510     3.3913660     0.6220270
  H       -3.3905060     0.3054170    -0.6220350
  H       -3.1746380     1.1595910     0.9082490
  H       -2.7891350     1.9518070    -0.6220320
units angstrom
no_reorient  #important for SAPT in psi4, default
symmetry c1  #important for SAPT in psi4, default
}

set PROPERTIES_ORIGIN ["COM"]
properties('MP2/aug-cc-pvtz', properties = ['dipole'])
--------------------------------------------------------------------------

    Molecular point group: c1
  Charge       = 0
  Multiplicity = 1
  Basis Set: AUG-CC-PVTZ
    Blend: AUG-CC-PVTZ
  Basis Set: (AUG-CC-PVTZ AUX)
    Blend: AUG-CC-PVTZ-JKFIT

    Orbital Energies [Eh]
    ---------------------

    Doubly Occupied:

       1A    -11.224459     2A    -11.223783     3A    -11.223545
       4A    -11.222620     5A    -11.222376     6A    -11.221878
       7A    -11.214340     8A    -11.214339     9A    -11.214293
      10A    -11.214293    11A    -11.214273    12A    -11.213616
      13A     -1.153501    14A     -1.065805    15A     -1.064526
      16A     -0.976521    17A     -0.975875    18A     -0.942149
      19A     -0.938910    20A     -0.866095    21A     -0.865361
      22A     -0.744987    23A     -0.744773    24A     -0.678261
      25A     -0.615407    26A     -0.601000    27A     -0.574567
      28A     -0.574080    29A     -0.571977    30A     -0.571063
      31A     -0.568586    32A     -0.548954    33A     -0.547643
      34A     -0.538535    35A     -0.528278    36A     -0.525866
      37A     -0.523838    38A     -0.522229    39A     -0.513535
      40A     -0.497141    41A     -0.451157    42A     -0.449222
      43A     -0.439323    44A     -0.294926    45A     -0.294579

  @DF-RHF Final Energy:  -465.05220323342797

   => Energetics <=

    Nuclear Repulsion Energy =            713.6380692245575119
    One-Electron Energy =               -2044.5955749766897043
    Two-Electron Energy =                 865.9053025187042749
    Total Energy =                       -465.0522032334279174
  Basis Set: (AUG-CC-PVTZ AUX)
    Blend: AUG-CC-PVTZ-RI
    Molecular point group: c1

    Geometry (in Angstrom), charge = 0, multiplicity = 1:

       Center              X                  Y                   Z               Mass
    ------------   -----------------  -----------------  -----------------  -----------------
         C            1.319978864668    -0.482146606488     0.022668720499    12.000000000000
         C            0.241304864668    -1.385157606488    -0.022794279501    12.000000000000
         C            1.077285864668     0.903519393512    -0.022795279501    12.000000000000
         C           -1.080063135332    -0.902504606488     0.022667720499    12.000000000000
         C           -0.244083135332     1.386172393512     0.022667720499    12.000000000000
         C           -1.322757135332     0.483161393512    -0.022795279501    12.000000000000
         C            2.758222664668    -1.007490206488     0.088267820499    12.000000000000
         C            0.502017864668    -2.873703606488    -0.087536279501    12.000000000000
         C            2.236048864668     1.873575393512    -0.087538279501    12.000000000000
         C           -2.238826135332    -1.872560606488     0.087407720499    12.000000000000
         C           -0.504797135332     2.874718393512     0.087409720499    12.000000000000
         C           -2.742232135332     1.001649393512    -0.087534279501    12.000000000000
         H            3.173250864668    -1.159088606488    -0.908307279501     1.007825032230
         H            3.389116864668    -0.304907606488     0.621972720499     1.007825032230
         H            2.787744864668    -1.951297606488     0.621976720499     1.007825032230
         H            1.429363864668    -3.088465606488    -0.622101279501     1.007825032230
         H            0.581693864668    -3.328608606488     0.908182720499     1.007825032230
         H           -0.297137135332    -3.390856606488    -0.622098279501     1.007825032230
         H            1.958362864668     2.784066393512    -0.622093279501     1.007825032230
         H            3.083487864668     1.440064393512    -0.622110279501     1.007825032230
         H            2.590177864668     2.170019393512     0.908180720499     1.007825032230
         H           -3.086267135332    -1.439050606488     0.621978720499     1.007825032230
         H           -2.592953135332    -2.169003606488    -0.908312279501     1.007825032230
         H           -1.961142135332    -2.783051606488     0.621961720499     1.007825032230
         H           -0.584483135332     3.329621393512    -0.908309279501     1.007825032230
         H           -1.432138135332     3.089479393512     0.621982720499     1.007825032230
         H            0.294361864668     3.391873393512     0.621963720499     1.007825032230
         H           -3.391895135332     0.305924393512    -0.622098279501     1.007825032230
         H           -3.176027135332     1.160098393512     0.908185720499     1.007825032230
         H           -2.790524135332     1.952314393512    -0.622095279501     1.007825032230

  Basis Set: AUG-CC-PVTZ
    Blend: AUG-CC-PVTZ
  Basis Set: (AUG-CC-PVTZ AUX)
    Blend: AUG-CC-PVTZ-JKFIT
	 Reference Energy          =    -465.0522032334279743 [Eh]
	 Singles Energy            =      -0.0000000000000000 [Eh]
	 Same-Spin Energy          =      -0.5263029669691611 [Eh]
	 Opposite-Spin Energy      =      -1.7663805787404880 [Eh]
	 Correlation Energy        =      -2.2926835457096493 [Eh]
	 Total Energy              =    -467.3448867791375960 [Eh]

	 ================> DF-SCS-MP2 Energies <==================
	-----------------------------------------------------------
	 SCS Same-Spin Scale       =       0.3333333333333333 [-]
	 SCS Opposite-Spin Scale   =       1.2000000000000000 [-]
	 SCS Same-Spin Energy      =      -0.1754343223230537 [Eh]
	 SCS Opposite-Spin Energy  =      -2.1196566944885857 [Eh]
	 SCS Correlation Energy    =      -2.2950910168116394 [Eh]
	 SCS Total Energy          =    -467.3472942502395995 [Eh]
	-----------------------------------------------------------

  Dipole Moment: [D]
     X:    -0.0036      Y:     0.0013      Z:    -0.0009     Total:     0.0039

*** Psi4 exiting successfully. Buy a developer a beer!
