                               Psi4 1.3.2 release

  ==> Input File <==

--------------------------------------------------------------------------
#psi4
#
memory 32 gb

molecule  {
0 1
  C       -0.5088830     1.3115130    -0.0227420
  C       -1.3901940     0.2150430     0.0227430
  C        0.8729448     1.0480930     0.0241410
  C       -0.8813440    -1.0964340    -0.0226940
  C        1.3902270    -0.2150110    -0.0227900
  C        0.5089060    -1.3114930     0.0226680
  C       -1.0556670     2.7203130    -0.0874900
  C       -2.8836500     0.4458940     0.0875300
  C        1.8281740     2.2742730     0.0874930
  C       -1.8282270    -2.2741900    -0.0874960
  C        2.8836660    -0.4460300    -0.0874310
  C        1.0556730    -2.7203040     0.0874750
  H       -1.2228990     3.1507820     0.9082400
  H       -0.3731520     3.3838700    -0.6219980
  H       -2.0070850     2.7494970    -0.6221200
  H       -3.1169600     1.3690200     0.6216180
  H       -3.3401820     0.5158720    -0.9081780
  H       -3.3845810    -0.3632220     0.6225760
  H        2.7440520     2.0146320     0.6219170
  H        1.3780590     3.1129020     0.6222310
  H        2.1174310     2.6343160    -0.9082230
  H       -1.3778060    -3.1130310    -0.6216310
  H       -2.1180860    -2.6338480     0.9081850
  H       -2.7438120    -2.0147100    -0.6225210
  H        3.3400770    -0.5159510     0.9083360
  H        3.1168940    -1.3692350    -0.6214080
  H        3.3848100     0.3629430    -0.6224920
  H        0.3729260    -3.3838390     0.6217170
  H        1.2232470    -3.1507440    -0.9082080
  H        2.0069120    -2.7495520     0.6224200
units angstrom
no_reorient  #important for SAPT in psi4, default
symmetry c1  #important for SAPT in psi4, default
}

set PROPERTIES_ORIGIN ["COM"]
properties('MP2/aug-cc-pvtz', properties = ['dipole'])
--------------------------------------------------------------------------

    Molecular point group: c1
  Charge       = 0
  Multiplicity = 1
  Basis Set: AUG-CC-PVTZ
    Blend: AUG-CC-PVTZ
  Basis Set: (AUG-CC-PVTZ AUX)
    Blend: AUG-CC-PVTZ-JKFIT

    Orbital Energies [Eh]
    ---------------------

    Doubly Occupied:

       1A    -11.223888     2A    -11.223512     3A    -11.222738
       4A    -11.221878     5A    -11.220921     6A    -11.218352
       7A    -11.215633     8A    -11.214736     9A    -11.214699
      10A    -11.214302    11A    -11.214244    12A    -11.214209
      13A     -1.156897    14A     -1.067857    15A     -1.063455
      16A     -0.977176    17A     -0.973083    18A     -0.943630
      19A     -0.936767    20A     -0.869230    21A     -0.865566
      22A     -0.749206    23A     -0.743446    24A     -0.678895
      25A     -0.616866    26A     -0.600934    27A     -0.574118
      28A     -0.572717    29A     -0.570928    30A     -0.570389
      31A     -0.566732    32A     -0.547959    33A     -0.546413
      34A     -0.537409    35A     -0.531250    36A     -0.524161
      37A     -0.522526    38A     -0.521081    39A     -0.515063
      40A     -0.495976    41A     -0.456129    42A     -0.443404
      43A     -0.442119    44A     -0.299715    45A     -0.293603

  @DF-RHF Final Energy:  -465.05041823798166

   => Energetics <=

    Nuclear Repulsion Energy =            714.5216448408973520
    One-Electron Energy =               -2046.3565031873467888
    Two-Electron Energy =                 866.7844401084678339
    Total Energy =                       -465.0504182379816029
  Basis Set: (AUG-CC-PVTZ AUX)
    Blend: AUG-CC-PVTZ-RI
    Molecular point group: c1

    Geometry (in Angstrom), charge = 0, multiplicity = 1:

       Center              X                  Y                   Z               Mass
    ------------   -----------------  -----------------  -----------------  -----------------
         C           -0.508262264309     1.315091964399    -0.022848997140    12.000000000000
         C           -1.389573264309     0.218621964399     0.022636002860    12.000000000000
         C            0.873565535691     1.051671964399     0.024034002860    12.000000000000
         C           -0.880723264309    -1.092855035601    -0.022800997140    12.000000000000
         C            1.390847735691    -0.211432035601    -0.022896997140    12.000000000000
         C            0.509526735691    -1.307914035601     0.022561002860    12.000000000000
         C           -1.055046264309     2.723891964399    -0.087596997140    12.000000000000
         C           -2.883029264309     0.449472964399     0.087423002860    12.000000000000
         C            1.828794735691     2.277851964399     0.087386002860    12.000000000000
         C           -1.827606264309    -2.270611035601    -0.087602997140    12.000000000000
         C            2.884286735691    -0.442451035601    -0.087537997140    12.000000000000
         C            1.056293735691    -2.716725035601     0.087368002860    12.000000000000
         H           -1.222278264309     3.154360964399     0.908133002860     1.007825032230
         H           -0.372531264309     3.387448964399    -0.622104997140     1.007825032230
         H           -2.006464264309     2.753075964399    -0.622226997140     1.007825032230
         H           -3.116339264309     1.372598964399     0.621511002860     1.007825032230
         H           -3.339561264309     0.519450964399    -0.908284997140     1.007825032230
         H           -3.383960264309    -0.359643035601     0.622469002860     1.007825032230
         H            2.744672735691     2.018210964399     0.621810002860     1.007825032230
         H            1.378679735691     3.116480964399     0.622124002860     1.007825032230
         H            2.118051735691     2.637894964399    -0.908329997140     1.007825032230
         H           -1.377185264309    -3.109452035601    -0.621737997140     1.007825032230
         H           -2.117465264309    -2.630269035601     0.908078002860     1.007825032230
         H           -2.743191264309    -2.011131035601    -0.622627997140     1.007825032230
         H            3.340697735691    -0.512372035601     0.908229002860     1.007825032230
         H            3.117514735691    -1.365656035601    -0.621514997140     1.007825032230
         H            3.385430735691     0.366521964399    -0.622598997140     1.007825032230
         H            0.373546735691    -3.380260035601     0.621610002860     1.007825032230
         H            1.223867735691    -3.147165035601    -0.908314997140     1.007825032230
         H            2.007532735691    -2.745973035601     0.622313002860     1.007825032230

  Basis Set: AUG-CC-PVTZ
    Blend: AUG-CC-PVTZ
  Basis Set: (AUG-CC-PVTZ AUX)
    Blend: AUG-CC-PVTZ-JKFIT
	 Reference Energy          =    -465.0504182379816598 [Eh]
	 Singles Energy            =      -0.0000000000000000 [Eh]
	 Same-Spin Energy          =      -0.5261235406839990 [Eh]
	 Opposite-Spin Energy      =      -1.7661328304012314 [Eh]
	 Correlation Energy        =      -2.2922563710852302 [Eh]
	 Total Energy              =    -467.3426746090668757 [Eh]

	 ================> DF-SCS-MP2 Energies <==================
	-----------------------------------------------------------
	 SCS Same-Spin Scale       =       0.3333333333333333 [-]
	 SCS Opposite-Spin Scale   =       1.2000000000000000 [-]
	 SCS Same-Spin Energy      =      -0.1753745135613330 [Eh]
	 SCS Opposite-Spin Energy  =      -2.1193593964814776 [Eh]
	 SCS Correlation Energy    =      -2.2947339100428108 [Eh]
	 SCS Total Energy          =    -467.3451521480244537 [Eh]
	-----------------------------------------------------------

  Dipole Moment: [D]
     X:    -0.0392      Y:    -0.0253      Z:    -0.0077     Total:     0.0473

*** Psi4 exiting successfully. Buy a developer a beer!
