                               Psi4 1.4a3.dev225

  ==> Input File <==

--------------------------------------------------------------------------
#psi4
#
memory 32 gb

molecule  {
0 1
  C        1.3213680    -0.4826540     0.0227320
  C        0.2426940    -1.3856650    -0.0227310
  C        1.0786750     0.9030120    -0.0227320
  C       -1.0786740    -0.9030120     0.0227310
  C       -0.2426940     1.3856650     0.0227310
  C       -1.3213680     0.4826540    -0.0227320
  C        2.7877650    -1.0182811     0.0896151
  C        0.5034070    -2.8742110    -0.0874730
  C        2.2374380     1.8730680    -0.0874750
  C       -2.2374370    -1.8730680     0.0874710
  C       -0.5034080     2.8742110     0.0874730
  C       -2.7408430     1.0011420    -0.0874710
  H        3.1746400    -1.1595960    -0.9082440
  H        3.3905060    -0.3054150     0.6220360
  H        2.7891340    -1.9518050     0.6220400
  H        1.4307530    -3.0889730    -0.6220380
  H        0.5830830    -3.3291160     0.9082460
  H       -0.2957480    -3.3913640    -0.6220350
  H        1.9597520     2.7835590    -0.6220300
  H        3.0848770     1.4395570    -0.6220470
  H        2.5915670     2.1695120     0.9082440
  H       -3.0848780    -1.4395580     0.6220420
  H       -2.5915640    -2.1695110    -0.9082490
  H       -1.9597530    -2.7835590     0.6220250
  H       -0.5830940     3.3291140    -0.9082460
  H       -1.4307490     3.0889720     0.6220460
  H        0.2957510     3.3913660     0.6220270
  H       -3.3905060     0.3054170    -0.6220350
  H       -3.1746380     1.1595910     0.9082490
  H       -2.7891350     1.9518070    -0.6220320
units angstrom
no_reorient  #important for SAPT in psi4, default
symmetry c1  #important for SAPT in psi4, default
}

set PROPERTIES_ORIGIN ["COM"]
properties('MP2/aug-cc-pvtz', properties = ['dipole'])
--------------------------------------------------------------------------

    Molecular point group: c1
  Charge       = 0
  Multiplicity = 1
  Basis Set: AUG-CC-PVTZ
    Blend: AUG-CC-PVTZ
  Basis Set: (AUG-CC-PVTZ AUX)
    Blend: AUG-CC-PVTZ-JKFIT

    Orbital Energies [Eh]
    ---------------------

    Doubly Occupied:

       1A    -11.225473     2A    -11.223796     3A    -11.223498
       4A    -11.222712     5A    -11.222329     6A    -11.221839
       7A    -11.214370     8A    -11.214369     9A    -11.214260
      10A    -11.214260    11A    -11.214215    12A    -11.212772
      13A     -1.152790    14A     -1.065692    15A     -1.062664
      16A     -0.976400    17A     -0.974870    18A     -0.942400
      19A     -0.938814    20A     -0.867055    21A     -0.865315
      22A     -0.744839    23A     -0.744355    24A     -0.677826
      25A     -0.614129    26A     -0.601230    27A     -0.575991
      28A     -0.574984    29A     -0.572880    30A     -0.571110
      31A     -0.566027    32A     -0.550978    33A     -0.547638
      34A     -0.539140    35A     -0.528495    36A     -0.526406
      37A     -0.522388    38A     -0.521822    39A     -0.513947
      40A     -0.498016    41A     -0.451379    42A     -0.446233
      43A     -0.439811    44A     -0.295288    45A     -0.294493

  @DF-RHF Final Energy:  -465.05083012220086

   => Energetics <=

    Nuclear Repulsion Energy =            713.0616416029031370
    One-Electron Energy =               -2043.4463501087495843
    Two-Electron Energy =                 865.3338783836455832
    Total Energy =                       -465.0508301222008640
  Basis Set: (AUG-CC-PVTZ AUX)
    Blend: AUG-CC-PVTZ-RI
    Molecular point group: c1

    Geometry (in Angstrom), charge = 0, multiplicity = 1:

       Center              X                  Y                   Z               Mass
    ------------   -----------------  -----------------  -----------------  -----------------
         C            1.317895254037    -0.481385527466     0.022573692010    12.000000000000
         C            0.239221254037    -1.384396527466    -0.022889307990    12.000000000000
         C            1.075202254037     0.904280472534    -0.022890307990    12.000000000000
         C           -1.082146745963    -0.901743527466     0.022572692010    12.000000000000
         C           -0.246166745963     1.386933472534     0.022572692010    12.000000000000
         C           -1.324840745963     0.483922472534    -0.022890307990    12.000000000000
         C            2.784292254037    -1.017012627466     0.089456792010    12.000000000000
         C            0.499934254037    -2.872942527466    -0.087631307990    12.000000000000
         C            2.233965254037     1.874336472534    -0.087633307990    12.000000000000
         C           -2.240909745963    -1.871799527466     0.087312692010    12.000000000000
         C           -0.506880745963     2.875479472534     0.087314692010    12.000000000000
         C           -2.744315745963     1.002410472534    -0.087629307990    12.000000000000
         H            3.171167254037    -1.158327527466    -0.908402307990     1.007825032230
         H            3.387033254037    -0.304146527466     0.621877692010     1.007825032230
         H            2.785661254037    -1.950536527466     0.621881692010     1.007825032230
         H            1.427280254037    -3.087704527466    -0.622196307990     1.007825032230
         H            0.579610254037    -3.327847527466     0.908087692010     1.007825032230
         H           -0.299220745963    -3.390095527466    -0.622193307990     1.007825032230
         H            1.956279254037     2.784827472534    -0.622188307990     1.007825032230
         H            3.081404254037     1.440825472534    -0.622205307990     1.007825032230
         H            2.588094254037     2.170780472534     0.908085692010     1.007825032230
         H           -3.088350745963    -1.438289527466     0.621883692010     1.007825032230
         H           -2.595036745963    -2.168242527466    -0.908407307990     1.007825032230
         H           -1.963225745963    -2.782290527466     0.621866692010     1.007825032230
         H           -0.586566745963     3.330382472534    -0.908404307990     1.007825032230
         H           -1.434221745963     3.090240472534     0.621887692010     1.007825032230
         H            0.292278254037     3.392634472534     0.621868692010     1.007825032230
         H           -3.393978745963     0.306685472534    -0.622193307990     1.007825032230
         H           -3.178110745963     1.160859472534     0.908090692010     1.007825032230
         H           -2.792607745963     1.953075472534    -0.622190307990     1.007825032230

  Basis Set: AUG-CC-PVTZ
    Blend: AUG-CC-PVTZ
  Basis Set: (AUG-CC-PVTZ AUX)
    Blend: AUG-CC-PVTZ-JKFIT
	 Reference Energy          =    -465.0508301222008640 [Eh]
	 Singles Energy            =      -0.0000000000000000 [Eh]
	 Same-Spin Energy          =      -0.5260945658127772 [Eh]
	 Opposite-Spin Energy      =      -1.7662761868285348 [Eh]
	 Correlation Energy        =      -2.2923707526413120 [Eh]
	 Total Energy              =    -467.3432008748421822 [Eh]

	 ================> DF-SCS-MP2 Energies <==================
	-----------------------------------------------------------
	 SCS Same-Spin Scale       =       0.3333333333333333 [-]
	 SCS Opposite-Spin Scale   =       1.2000000000000000 [-]
	 SCS Same-Spin Energy      =      -0.1753648552709257 [Eh]
	 SCS Opposite-Spin Energy  =      -2.1195314241942418 [Eh]
	 SCS Correlation Energy    =      -2.2948962794651675 [Eh]
	 SCS Total Energy          =    -467.3457264016660133 [Eh]
	-----------------------------------------------------------

  Dipole Moment: [D]
     X:    -0.0116      Y:     0.0042      Z:    -0.0023     Total:     0.0126

*** Psi4 exiting successfully. Buy a developer a beer!
