                               Psi4 1.4a3.dev225

  ==> Input File <==

--------------------------------------------------------------------------
#psi4
#
memory 32 gb

molecule  {
0 1
  C        1.3213680    -0.4826540     0.0227320
  C        0.2426940    -1.3856650    -0.0227310
  C        1.0786750     0.9030120    -0.0227320
  C       -1.0786740    -0.9030120     0.0227310
  C       -0.2426940     1.3856650     0.0227310
  C       -1.3213680     0.4826540    -0.0227320
  C        2.6939210    -0.9840029     0.0853349
  C        0.5034070    -2.8742110    -0.0874730
  C        2.2374380     1.8730680    -0.0874750
  C       -2.2374370    -1.8730680     0.0874710
  C       -0.5034080     2.8742110     0.0874730
  C       -2.7408430     1.0011420    -0.0874710
  H        3.1746400    -1.1595960    -0.9082440
  H        3.3905060    -0.3054150     0.6220360
  H        2.7891340    -1.9518050     0.6220400
  H        1.4307530    -3.0889730    -0.6220380
  H        0.5830830    -3.3291160     0.9082460
  H       -0.2957480    -3.3913640    -0.6220350
  H        1.9597520     2.7835590    -0.6220300
  H        3.0848770     1.4395570    -0.6220470
  H        2.5915670     2.1695120     0.9082440
  H       -3.0848780    -1.4395580     0.6220420
  H       -2.5915640    -2.1695110    -0.9082490
  H       -1.9597530    -2.7835590     0.6220250
  H       -0.5830940     3.3291140    -0.9082460
  H       -1.4307490     3.0889720     0.6220460
  H        0.2957510     3.3913660     0.6220270
  H       -3.3905060     0.3054170    -0.6220350
  H       -3.1746380     1.1595910     0.9082490
  H       -2.7891350     1.9518070    -0.6220320
units angstrom
no_reorient  #important for SAPT in psi4, default
symmetry c1  #important for SAPT in psi4, default
}

set PROPERTIES_ORIGIN ["COM"]
properties('MP2/aug-cc-pvtz', properties = ['dipole'])
--------------------------------------------------------------------------

    Molecular point group: c1
  Charge       = 0
  Multiplicity = 1
  Basis Set: AUG-CC-PVTZ
    Blend: AUG-CC-PVTZ
  Basis Set: (AUG-CC-PVTZ AUX)
    Blend: AUG-CC-PVTZ-JKFIT

    Orbital Energies [Eh]
    ---------------------

    Doubly Occupied:

       1A    -11.224195     2A    -11.223740     3A    -11.223346
       4A    -11.222570     5A    -11.222235     6A    -11.220201
       7A    -11.216506     8A    -11.214464     9A    -11.214403
      10A    -11.214402    11A    -11.214277    12A    -11.214276
      13A     -1.155650    14A     -1.069769    15A     -1.066132
      16A     -0.978690    17A     -0.976863    18A     -0.941700
      19A     -0.939328    20A     -0.865517    21A     -0.863459
      22A     -0.745951    23A     -0.745255    24A     -0.679468
      25A     -0.619722    26A     -0.600868    27A     -0.576499
      28A     -0.573756    29A     -0.572360    30A     -0.570649
      31A     -0.569107    32A     -0.547673    33A     -0.545112
      34A     -0.535404    35A     -0.533338    36A     -0.528351
      37A     -0.522177    38A     -0.519606    39A     -0.510842
      40A     -0.493341    41A     -0.454534    42A     -0.450194
      43A     -0.437729    44A     -0.294841    45A     -0.293777

  @DF-RHF Final Energy:  -465.04882744704338

   => Energetics <=

    Nuclear Repulsion Energy =            715.0217235339929402
    One-Electron Energy =               -2047.3365486553855135
    Two-Electron Energy =                 867.2659976743491370
    Total Energy =                       -465.0488274470433225
  Basis Set: (AUG-CC-PVTZ AUX)
    Blend: AUG-CC-PVTZ-RI
    Molecular point group: c1

    Geometry (in Angstrom), charge = 0, multiplicity = 1:

       Center              X                  Y                   Z               Mass
    ------------   -----------------  -----------------  -----------------  -----------------
         C            1.324840622807    -0.483922447671     0.022890468441    12.000000000000
         C            0.246166622807    -1.386933447671    -0.022572531559    12.000000000000
         C            1.082147622807     0.901743552329    -0.022573531559    12.000000000000
         C           -1.075201377193    -0.904280447671     0.022889468441    12.000000000000
         C           -0.239221377193     1.384396552329     0.022889468441    12.000000000000
         C           -1.317895377193     0.481385552329    -0.022573531559    12.000000000000
         C            2.697393622807    -0.985271347671     0.085493368441    12.000000000000
         C            0.506879622807    -2.875479447671    -0.087314531559    12.000000000000
         C            2.240910622807     1.871799552329    -0.087316531559    12.000000000000
         C           -2.233964377193    -1.874336447671     0.087629468441    12.000000000000
         C           -0.499935377193     2.872942552329     0.087631468441    12.000000000000
         C           -2.737370377193     0.999873552329    -0.087312531559    12.000000000000
         H            3.178112622807    -1.160864447671    -0.908085531559     1.007825032230
         H            3.393978622807    -0.306683447671     0.622194468441     1.007825032230
         H            2.792606622807    -1.953073447671     0.622198468441     1.007825032230
         H            1.434225622807    -3.090241447671    -0.621879531559     1.007825032230
         H            0.586555622807    -3.330384447671     0.908404468441     1.007825032230
         H           -0.292275377193    -3.392632447671    -0.621876531559     1.007825032230
         H            1.963224622807     2.782290552329    -0.621871531559     1.007825032230
         H            3.088349622807     1.438288552329    -0.621888531559     1.007825032230
         H            2.595039622807     2.168243552329     0.908402468441     1.007825032230
         H           -3.081405377193    -1.440826447671     0.622200468441     1.007825032230
         H           -2.588091377193    -2.170779447671    -0.908090531559     1.007825032230
         H           -1.956280377193    -2.784827447671     0.622183468441     1.007825032230
         H           -0.579621377193     3.327845552329    -0.908087531559     1.007825032230
         H           -1.427276377193     3.087703552329     0.622204468441     1.007825032230
         H            0.299223622807     3.390097552329     0.622185468441     1.007825032230
         H           -3.387033377193     0.304148552329    -0.621876531559     1.007825032230
         H           -3.171165377193     1.158322552329     0.908407468441     1.007825032230
         H           -2.785662377193     1.950538552329    -0.621873531559     1.007825032230

  Basis Set: AUG-CC-PVTZ
    Blend: AUG-CC-PVTZ
  Basis Set: (AUG-CC-PVTZ AUX)
    Blend: AUG-CC-PVTZ-JKFIT
	 Reference Energy          =    -465.0488274470433794 [Eh]
	 Singles Energy            =      -0.0000000000000000 [Eh]
	 Same-Spin Energy          =      -0.5271021177948110 [Eh]
	 Opposite-Spin Energy      =      -1.7671316692515227 [Eh]
	 Correlation Energy        =      -2.2942337870463336 [Eh]
	 Total Energy              =    -467.3430612340897028 [Eh]

	 ================> DF-SCS-MP2 Energies <==================
	-----------------------------------------------------------
	 SCS Same-Spin Scale       =       0.3333333333333333 [-]
	 SCS Opposite-Spin Scale   =       1.2000000000000000 [-]
	 SCS Same-Spin Energy      =      -0.1757007059316036 [Eh]
	 SCS Opposite-Spin Energy  =      -2.1205580031018272 [Eh]
	 SCS Correlation Energy    =      -2.2962587090334310 [Eh]
	 SCS Total Energy          =    -467.3450861560768317 [Eh]
	-----------------------------------------------------------

  Dipole Moment: [D]
     X:     0.0022      Y:    -0.0008      Z:     0.0024     Total:     0.0034

*** Psi4 exiting successfully. Buy a developer a beer!
