                               Psi4 1.3.2 release

  ==> Input File <==

--------------------------------------------------------------------------
#psi4
#
memory 32 gb

molecule  {
0 1
  C       -0.5088830     1.3115130    -0.0227420
  C       -1.4645647     0.2789893     0.0171552
  C        0.8813450     1.0964750     0.0226560
  C       -0.8813440    -1.0964340    -0.0226940
  C        1.3902270    -0.2150110    -0.0227900
  C        0.5089060    -1.3114930     0.0226680
  C       -1.0556670     2.7203130    -0.0874900
  C       -2.8836500     0.4458940     0.0875300
  C        1.8281740     2.2742730     0.0874930
  C       -1.8282270    -2.2741900    -0.0874960
  C        2.8836660    -0.4460300    -0.0874310
  C        1.0556730    -2.7203040     0.0874750
  H       -1.2228990     3.1507820     0.9082400
  H       -0.3731520     3.3838700    -0.6219980
  H       -2.0070850     2.7494970    -0.6221200
  H       -3.1169600     1.3690200     0.6216180
  H       -3.3401820     0.5158720    -0.9081780
  H       -3.3845810    -0.3632220     0.6225760
  H        2.7440520     2.0146320     0.6219170
  H        1.3780590     3.1129020     0.6222310
  H        2.1174310     2.6343160    -0.9082230
  H       -1.3778060    -3.1130310    -0.6216310
  H       -2.1180860    -2.6338480     0.9081850
  H       -2.7438120    -2.0147100    -0.6225210
  H        3.3400770    -0.5159510     0.9083360
  H        3.1168940    -1.3692350    -0.6214080
  H        3.3848100     0.3629430    -0.6224920
  H        0.3729260    -3.3838390     0.6217170
  H        1.2232470    -3.1507440    -0.9082080
  H        2.0069120    -2.7495520     0.6224200
units angstrom
no_reorient  #important for SAPT in psi4, default
symmetry c1  #important for SAPT in psi4, default
}

set PROPERTIES_ORIGIN ["COM"]
properties('MP2/aug-cc-pvtz', properties = ['dipole'])
--------------------------------------------------------------------------

    Molecular point group: c1
  Charge       = 0
  Multiplicity = 1
  Basis Set: AUG-CC-PVTZ
    Blend: AUG-CC-PVTZ
  Basis Set: (AUG-CC-PVTZ AUX)
    Blend: AUG-CC-PVTZ-JKFIT

    Orbital Energies [Eh]
    ---------------------

    Doubly Occupied:

       1A    -11.230805     2A    -11.227466     3A    -11.224490
       4A    -11.223767     5A    -11.222589     6A    -11.222238
       7A    -11.214556     8A    -11.214496     9A    -11.214364
      10A    -11.213704    11A    -11.212916    12A    -11.211729
      13A     -1.150041    14A     -1.072640    15A     -1.063063
      16A     -0.985270    17A     -0.975789    18A     -0.942935
      19A     -0.937810    20A     -0.864810    21A     -0.858538
      22A     -0.748214    23A     -0.737043    24A     -0.677718
      25A     -0.617565    26A     -0.601776    27A     -0.581679
      28A     -0.577180    29A     -0.573967    30A     -0.572208
      31A     -0.570828    32A     -0.549945    33A     -0.547100
      34A     -0.538531    35A     -0.534757    36A     -0.526444
      37A     -0.523491    38A     -0.521373    39A     -0.506503
      40A     -0.497021    41A     -0.461669    42A     -0.436673
      43A     -0.433069    44A     -0.296888    45A     -0.284905

  @DF-RHF Final Energy:  -465.03851611637430

   => Energetics <=

    Nuclear Repulsion Energy =            713.1653014983121466
    One-Electron Energy =               -2043.6065118943702146
    Two-Electron Energy =                 865.4026942796838284
    Total Energy =                       -465.0385161163742396
  Basis Set: (AUG-CC-PVTZ AUX)
    Blend: AUG-CC-PVTZ-RI
    Molecular point group: c1

    Geometry (in Angstrom), charge = 0, multiplicity = 1:

       Center              X                  Y                   Z               Mass
    ------------   -----------------  -----------------  -----------------  -----------------
         C           -0.503379805650     1.306778577642    -0.022325541147    12.000000000000
         C           -1.459061505650     0.274254877642     0.017571658853    12.000000000000
         C            0.886848194350     1.091740577642     0.023072458853    12.000000000000
         C           -0.875840805650    -1.101168422358    -0.022277541147    12.000000000000
         C            1.395730194350    -0.219745422358    -0.022373541147    12.000000000000
         C            0.514409194350    -1.316227422358     0.023084458853    12.000000000000
         C           -1.050163805650     2.715578577642    -0.087073541147    12.000000000000
         C           -2.878146805650     0.441159577642     0.087946458853    12.000000000000
         C            1.833677194350     2.269538577642     0.087909458853    12.000000000000
         C           -1.822723805650    -2.278924422358    -0.087079541147    12.000000000000
         C            2.889169194350    -0.450764422358    -0.087014541147    12.000000000000
         C            1.061176194350    -2.725038422358     0.087891458853    12.000000000000
         H           -1.217395805650     3.146047577642     0.908656458853     1.007825032230
         H           -0.367648805650     3.379135577642    -0.621581541147     1.007825032230
         H           -2.001581805650     2.744762577642    -0.621703541147     1.007825032230
         H           -3.111456805650     1.364285577642     0.622034458853     1.007825032230
         H           -3.334678805650     0.511137577642    -0.907761541147     1.007825032230
         H           -3.379077805650    -0.367956422358     0.622992458853     1.007825032230
         H            2.749555194350     2.009897577642     0.622333458853     1.007825032230
         H            1.383562194350     3.108167577642     0.622647458853     1.007825032230
         H            2.122934194350     2.629581577642    -0.907806541147     1.007825032230
         H           -1.372302805650    -3.117765422358    -0.621214541147     1.007825032230
         H           -2.112582805650    -2.638582422358     0.908601458853     1.007825032230
         H           -2.738308805650    -2.019444422358    -0.622104541147     1.007825032230
         H            3.345580194350    -0.520685422358     0.908752458853     1.007825032230
         H            3.122397194350    -1.373969422358    -0.620991541147     1.007825032230
         H            3.390313194350     0.358208577642    -0.622075541147     1.007825032230
         H            0.378429194350    -3.388573422358     0.622133458853     1.007825032230
         H            1.228750194350    -3.155478422358    -0.907791541147     1.007825032230
         H            2.012415194350    -2.754286422358     0.622836458853     1.007825032230

  Basis Set: AUG-CC-PVTZ
    Blend: AUG-CC-PVTZ
  Basis Set: (AUG-CC-PVTZ AUX)
    Blend: AUG-CC-PVTZ-JKFIT
	 Reference Energy          =    -465.0385161163742964 [Eh]
	 Singles Energy            =      -0.0000000000000000 [Eh]
	 Same-Spin Energy          =      -0.5276404318550179 [Eh]
	 Opposite-Spin Energy      =      -1.7684164489902554 [Eh]
	 Correlation Energy        =      -2.2960568808452733 [Eh]
	 Total Energy              =    -467.3345729972195954 [Eh]

	 ================> DF-SCS-MP2 Energies <==================
	-----------------------------------------------------------
	 SCS Same-Spin Scale       =       0.3333333333333333 [-]
	 SCS Opposite-Spin Scale   =       1.2000000000000000 [-]
	 SCS Same-Spin Energy      =      -0.1758801439516726 [Eh]
	 SCS Opposite-Spin Energy  =      -2.1220997387883065 [Eh]
	 SCS Correlation Energy    =      -2.2979798827399791 [Eh]
	 SCS Total Energy          =    -467.3364959991142769 [Eh]
	-----------------------------------------------------------

  Dipole Moment: [D]
     X:    -0.0881      Y:    -0.0170      Z:     0.0163     Total:     0.0912

*** Psi4 exiting successfully. Buy a developer a beer!
