                               Psi4 1.3.2 release

  ==> Input File <==

--------------------------------------------------------------------------
#psi4
#
memory 32 gb

molecule  {
0 1
  C       -0.5088830     1.3115130    -0.0227420
  C       -1.3709158     0.1998795     0.0241064
  C        0.8813450     1.0964750     0.0226560
  C       -0.8813440    -1.0964340    -0.0226940
  C        1.3902270    -0.2150110    -0.0227900
  C        0.5089060    -1.3114930     0.0226680
  C       -1.0556670     2.7203130    -0.0874900
  C       -2.8836500     0.4458940     0.0875300
  C        1.8281740     2.2742730     0.0874930
  C       -1.8282270    -2.2741900    -0.0874960
  C        2.8836660    -0.4460300    -0.0874310
  C        1.0556730    -2.7203040     0.0874750
  H       -1.2228990     3.1507820     0.9082400
  H       -0.3731520     3.3838700    -0.6219980
  H       -2.0070850     2.7494970    -0.6221200
  H       -3.1169600     1.3690200     0.6216180
  H       -3.3401820     0.5158720    -0.9081780
  H       -3.3845810    -0.3632220     0.6225760
  H        2.7440520     2.0146320     0.6219170
  H        1.3780590     3.1129020     0.6222310
  H        2.1174310     2.6343160    -0.9082230
  H       -1.3778060    -3.1130310    -0.6216310
  H       -2.1180860    -2.6338480     0.9081850
  H       -2.7438120    -2.0147100    -0.6225210
  H        3.3400770    -0.5159510     0.9083360
  H        3.1168940    -1.3692350    -0.6214080
  H        3.3848100     0.3629430    -0.6224920
  H        0.3729260    -3.3838390     0.6217170
  H        1.2232470    -3.1507440    -0.9082080
  H        2.0069120    -2.7495520     0.6224200
units angstrom
no_reorient  #important for SAPT in psi4, default
symmetry c1  #important for SAPT in psi4, default
}

set PROPERTIES_ORIGIN ["COM"]
properties('MP2/aug-cc-pvtz', properties = ['dipole'])
--------------------------------------------------------------------------

    Molecular point group: c1
  Charge       = 0
  Multiplicity = 1
  Basis Set: AUG-CC-PVTZ
    Blend: AUG-CC-PVTZ
  Basis Set: (AUG-CC-PVTZ AUX)
    Blend: AUG-CC-PVTZ-JKFIT

    Orbital Energies [Eh]
    ---------------------

    Doubly Occupied:

       1A    -11.223923     2A    -11.223479     3A    -11.222910
       4A    -11.222046     5A    -11.221842     6A    -11.220417
       7A    -11.214976     8A    -11.214545     9A    -11.214520
      10A    -11.214308    11A    -11.214279    12A    -11.214262
      13A     -1.155390    14A     -1.066819    15A     -1.064613
      16A     -0.976889    17A     -0.974747    18A     -0.942778
      19A     -0.937995    20A     -0.867277    21A     -0.865493
      22A     -0.747145    23A     -0.744263    24A     -0.678744
      25A     -0.616586    26A     -0.600889    27A     -0.573981
      28A     -0.573239    29A     -0.570986    30A     -0.570755
      31A     -0.568466    32A     -0.547807    33A     -0.547022
      34A     -0.537694    35A     -0.529560    36A     -0.526179
      37A     -0.522388    38A     -0.521737    39A     -0.514202
      40A     -0.496168    41A     -0.453690    42A     -0.447294
      43A     -0.440601    44A     -0.297163    45A     -0.294112

  @DF-RHF Final Energy:  -465.05206323331026

   => Energetics <=

    Nuclear Repulsion Energy =            714.2696920722754612
    One-Electron Energy =               -2045.8551520246028304
    Two-Electron Energy =                 866.5333967190169915
    Total Energy =                       -465.0520632333102640
  Basis Set: (AUG-CC-PVTZ AUX)
    Blend: AUG-CC-PVTZ-RI
    Molecular point group: c1

    Geometry (in Angstrom), charge = 0, multiplicity = 1:

       Center              X                  Y                   Z               Mass
    ------------   -----------------  -----------------  -----------------  -----------------
         C           -0.510310735122     1.312633472301    -0.022839997558    12.000000000000
         C           -1.372343535122     0.200999972301     0.024008402442    12.000000000000
         C            0.879917264878     1.097595472301     0.022558002442    12.000000000000
         C           -0.882771735122    -1.095313527699    -0.022791997558    12.000000000000
         C            1.388799264878    -0.213890527699    -0.022887997558    12.000000000000
         C            0.507478264878    -1.310372527699     0.022570002442    12.000000000000
         C           -1.057094735122     2.721433472301    -0.087587997558    12.000000000000
         C           -2.885077735122     0.447014472301     0.087432002442    12.000000000000
         C            1.826746264878     2.275393472301     0.087395002442    12.000000000000
         C           -1.829654735122    -2.273069527699    -0.087593997558    12.000000000000
         C            2.882238264878    -0.444909527699    -0.087528997558    12.000000000000
         C            1.054245264878    -2.719183527699     0.087377002442    12.000000000000
         H           -1.224326735122     3.151902472301     0.908142002442     1.007825032230
         H           -0.374579735122     3.384990472301    -0.622095997558     1.007825032230
         H           -2.008512735122     2.750617472301    -0.622217997558     1.007825032230
         H           -3.118387735122     1.370140472301     0.621520002442     1.007825032230
         H           -3.341609735122     0.516992472301    -0.908275997558     1.007825032230
         H           -3.386008735122    -0.362101527699     0.622478002442     1.007825032230
         H            2.742624264878     2.015752472301     0.621819002442     1.007825032230
         H            1.376631264878     3.114022472301     0.622133002442     1.007825032230
         H            2.116003264878     2.635436472301    -0.908320997558     1.007825032230
         H           -1.379233735122    -3.111910527699    -0.621728997558     1.007825032230
         H           -2.119513735122    -2.632727527699     0.908087002442     1.007825032230
         H           -2.745239735122    -2.013589527699    -0.622618997558     1.007825032230
         H            3.338649264878    -0.514830527699     0.908238002442     1.007825032230
         H            3.115466264878    -1.368114527699    -0.621505997558     1.007825032230
         H            3.383382264878     0.364063472301    -0.622589997558     1.007825032230
         H            0.371498264878    -3.382718527699     0.621619002442     1.007825032230
         H            1.221819264878    -3.149623527699    -0.908305997558     1.007825032230
         H            2.005484264878    -2.748431527699     0.622322002442     1.007825032230

  Basis Set: AUG-CC-PVTZ
    Blend: AUG-CC-PVTZ
  Basis Set: (AUG-CC-PVTZ AUX)
    Blend: AUG-CC-PVTZ-JKFIT
	 Reference Energy          =    -465.0520632333102640 [Eh]
	 Singles Energy            =      -0.0000000000000000 [Eh]
	 Same-Spin Energy          =      -0.5262872784417881 [Eh]
	 Opposite-Spin Energy      =      -1.7662811193661188 [Eh]
	 Correlation Energy        =      -2.2925683978079068 [Eh]
	 Total Energy              =    -467.3446316311181477 [Eh]

	 ================> DF-SCS-MP2 Energies <==================
	-----------------------------------------------------------
	 SCS Same-Spin Scale       =       0.3333333333333333 [-]
	 SCS Opposite-Spin Scale   =       1.2000000000000000 [-]
	 SCS Same-Spin Energy      =      -0.1754290928139294 [Eh]
	 SCS Opposite-Spin Energy  =      -2.1195373432393425 [Eh]
	 SCS Correlation Energy    =      -2.2949664360532718 [Eh]
	 SCS Total Energy          =    -467.3470296693635078 [Eh]
	-----------------------------------------------------------

  Dipole Moment: [D]
     X:     0.0226      Y:     0.0041      Z:    -0.0040     Total:     0.0233

*** Psi4 exiting successfully. Buy a developer a beer!
