                               Psi4 1.3.2 release

  ==> Input File <==

--------------------------------------------------------------------------
#psi4
#
memory 32 gb

molecule  {
0 1
  O       -0.9233460     1.1259790    -0.7064150
  C        0.6908080    -0.2688650     0.3923890
  C        1.1946870    -1.2650980    -0.6685790
  C        1.6030820     0.9446750     0.4967120
  C       -0.7197390     0.1522350     0.0136690
  C       -1.8474620    -0.7594092     0.4481159
  H        0.6514880    -0.7856950     1.3599030
  H        1.2206430    -0.7821580    -1.6480110
  H        2.2053530    -1.6017900    -0.4206070
  H        0.5514890    -2.1461630    -0.7366640
  H        1.2521310     1.6422800     1.2622420
  H        1.6225110     1.4777260    -0.4537380
  H        2.6197860     0.6362020     0.7540910
  H       -1.6800360    -1.7612670     0.2847220
  H       -2.7934900    -0.3633680     0.0910490
  H       -1.9015030    -0.6283060     1.6249380
units angstrom
no_reorient  #important for SAPT in psi4, default
symmetry c1  #important for SAPT in psi4, default
}

set PROPERTIES_ORIGIN ["COM"]
properties('MP2/aug-cc-pvtz', properties = ['dipole'])
--------------------------------------------------------------------------

    Molecular point group: c1
  Charge       = 0
  Multiplicity = 1
  Basis Set: AUG-CC-PVTZ
    Blend: AUG-CC-PVTZ
  Basis Set: (AUG-CC-PVTZ AUX)
    Blend: AUG-CC-PVTZ-JKFIT

    Orbital Energies [Eh]
    ---------------------

    Doubly Occupied:

       1A    -20.542167     2A    -11.329313     3A    -11.243323
       4A    -11.238501     5A    -11.230571     6A    -11.214871
       7A     -1.374236     8A     -1.090821     9A     -1.005213
      10A     -0.939044    11A     -0.851390    12A     -0.724185
      13A     -0.669196    14A     -0.634027    15A     -0.606961
      16A     -0.601543    17A     -0.573937    18A     -0.552059
      19A     -0.540676    20A     -0.517411    21A     -0.496683
      22A     -0.484785    23A     -0.470951    24A     -0.405518

  @DF-RHF Final Energy:  -270.11944368289267

   => Energetics <=

    Nuclear Repulsion Energy =            244.9760484377343062
    One-Electron Energy =                -851.5162151565924660
    Two-Electron Energy =                 336.4207230359654659
    Total Energy =                       -270.1194436828926655
  Basis Set: (AUG-CC-PVTZ AUX)
    Blend: AUG-CC-PVTZ-RI
    Molecular point group: c1

    Geometry (in Angstrom), charge = 0, multiplicity = 1:

       Center              X                  Y                   Z               Mass
    ------------   -----------------  -----------------  -----------------  -----------------
         O           -0.924105524730     1.134040666940    -0.695065737076    15.994914619570
         C            0.690048475270    -0.260803333060     0.403738262924    12.000000000000
         C            1.193927475270    -1.257036333060    -0.657229737076    12.000000000000
         C            1.602322475270     0.952736666940     0.508061262924    12.000000000000
         C           -0.720498524730     0.160296666940     0.025018262924    12.000000000000
         C           -1.848221524730    -0.751347533060     0.459465162924    12.000000000000
         H            0.650728475270    -0.777633333060     1.371252262924     1.007825032230
         H            1.219883475270    -0.774096333060    -1.636661737076     1.007825032230
         H            2.204593475270    -1.593728333060    -0.409257737076     1.007825032230
         H            0.550729475270    -2.138101333060    -0.725314737076     1.007825032230
         H            1.251371475270     1.650341666940     1.273591262924     1.007825032230
         H            1.621751475270     1.485787666940    -0.442388737076     1.007825032230
         H            2.619026475270     0.644263666940     0.765440262924     1.007825032230
         H           -1.680795524730    -1.753205333060     0.296071262924     1.007825032230
         H           -2.794249524730    -0.355306333060     0.102398262924     1.007825032230
         H           -1.902262524730    -0.620244333060     1.636287262924     1.007825032230

  Basis Set: AUG-CC-PVTZ
    Blend: AUG-CC-PVTZ
  Basis Set: (AUG-CC-PVTZ AUX)
    Blend: AUG-CC-PVTZ-JKFIT
	 Reference Energy          =    -270.1194436828926655 [Eh]
	 Singles Energy            =      -0.0000000000000000 [Eh]
	 Same-Spin Energy          =      -0.2743472930800323 [Eh]
	 Opposite-Spin Energy      =      -0.9494113214937786 [Eh]
	 Correlation Energy        =      -1.2237586145738109 [Eh]
	 Total Energy              =    -271.3432022974664619 [Eh]

	 ================> DF-SCS-MP2 Energies <==================
	-----------------------------------------------------------
	 SCS Same-Spin Scale       =       0.3333333333333333 [-]
	 SCS Opposite-Spin Scale   =       1.2000000000000000 [-]
	 SCS Same-Spin Energy      =      -0.0914490976933441 [Eh]
	 SCS Opposite-Spin Energy  =      -1.1392935857925344 [Eh]
	 SCS Correlation Energy    =      -1.2307426834858783 [Eh]
	 SCS Total Energy          =    -271.3501863663785230 [Eh]
	-----------------------------------------------------------

  Dipole Moment: [D]
     X:     0.6129      Y:    -2.3037      Z:     1.5325     Total:     2.8340

*** Psi4 exiting successfully. Buy a developer a beer!
