                               Psi4 1.3.2 release

  ==> Input File <==

--------------------------------------------------------------------------
#psi4
#
memory 32 gb

molecule  {
0 1
  O       -0.9233460     1.1259790    -0.7064150
  C        0.6908080    -0.2688650     0.3923890
  C        1.1946870    -1.2650980    -0.6685790
  C        1.6030820     0.9446750     0.4967120
  C       -0.7197390     0.1522350     0.0136690
  C       -1.8501860    -0.7304976     0.4888184
  H        0.6514880    -0.7856950     1.3599030
  H        1.2206430    -0.7821580    -1.6480110
  H        2.2053530    -1.6017900    -0.4206070
  H        0.5514890    -2.1461630    -0.7366640
  H        1.2521310     1.6422800     1.2622420
  H        1.6225110     1.4777260    -0.4537380
  H        2.6197860     0.6362020     0.7540910
  H       -1.6800360    -1.7612670     0.2847220
  H       -2.7934900    -0.3633680     0.0910490
  H       -1.9015030    -0.6283060     1.6249380
units angstrom
no_reorient  #important for SAPT in psi4, default
symmetry c1  #important for SAPT in psi4, default
}

set PROPERTIES_ORIGIN ["COM"]
properties('MP2/aug-cc-pvtz', properties = ['dipole'])
--------------------------------------------------------------------------

    Molecular point group: c1
  Charge       = 0
  Multiplicity = 1
  Basis Set: AUG-CC-PVTZ
    Blend: AUG-CC-PVTZ
  Basis Set: (AUG-CC-PVTZ AUX)
    Blend: AUG-CC-PVTZ-JKFIT

    Orbital Energies [Eh]
    ---------------------

    Doubly Occupied:

       1A    -20.542100     2A    -11.328606     3A    -11.243185
       4A    -11.237341     5A    -11.230249     6A    -11.214999
       7A     -1.374129     8A     -1.090695     9A     -1.004972
      10A     -0.938985    11A     -0.850939    12A     -0.723492
      13A     -0.666111    14A     -0.633537    15A     -0.608714
      16A     -0.596894    17A     -0.573431    18A     -0.553324
      19A     -0.543946    20A     -0.516878    21A     -0.499073
      22A     -0.485356    23A     -0.471360    24A     -0.405482

  @DF-RHF Final Energy:  -270.12627717793345

   => Energetics <=

    Nuclear Repulsion Energy =            244.9732796931976395
    One-Electron Energy =                -851.5315138370175418
    Two-Electron Energy =                 336.4319569658863998
    Total Energy =                       -270.1262771779334457
  Basis Set: (AUG-CC-PVTZ AUX)
    Blend: AUG-CC-PVTZ-RI
    Molecular point group: c1

    Geometry (in Angstrom), charge = 0, multiplicity = 1:

       Center              X                  Y                   Z               Mass
    ------------   -----------------  -----------------  -----------------  -----------------
         O           -0.923725754798     1.130009919375    -0.700740327994    15.994914619570
         C            0.690428245202    -0.264834080625     0.398063672006    12.000000000000
         C            1.194307245202    -1.261067080625    -0.662904327994    12.000000000000
         C            1.602702245202     0.948705919375     0.502386672006    12.000000000000
         C           -0.720118754798     0.156265919375     0.019343672006    12.000000000000
         C           -1.850565754798    -0.726466680625     0.494493072006    12.000000000000
         H            0.651108245202    -0.781664080625     1.365577672006     1.007825032230
         H            1.220263245202    -0.778127080625    -1.642336327994     1.007825032230
         H            2.204973245202    -1.597759080625    -0.414932327994     1.007825032230
         H            0.551109245202    -2.142132080625    -0.730989327994     1.007825032230
         H            1.251751245202     1.646310919375     1.267916672006     1.007825032230
         H            1.622131245202     1.481756919375    -0.448063327994     1.007825032230
         H            2.619406245202     0.640232919375     0.759765672006     1.007825032230
         H           -1.680415754798    -1.757236080625     0.290396672006     1.007825032230
         H           -2.793869754798    -0.359337080625     0.096723672006     1.007825032230
         H           -1.901882754798    -0.624275080625     1.630612672006     1.007825032230

  Basis Set: AUG-CC-PVTZ
    Blend: AUG-CC-PVTZ
  Basis Set: (AUG-CC-PVTZ AUX)
    Blend: AUG-CC-PVTZ-JKFIT
	 Reference Energy          =    -270.1262771779334457 [Eh]
	 Singles Energy            =      -0.0000000000000000 [Eh]
	 Same-Spin Energy          =      -0.2742449748185778 [Eh]
	 Opposite-Spin Energy      =      -0.9491107614024761 [Eh]
	 Correlation Energy        =      -1.2233557362210539 [Eh]
	 Total Energy              =    -271.3496329141544834 [Eh]

	 ================> DF-SCS-MP2 Energies <==================
	-----------------------------------------------------------
	 SCS Same-Spin Scale       =       0.3333333333333333 [-]
	 SCS Opposite-Spin Scale   =       1.2000000000000000 [-]
	 SCS Same-Spin Energy      =      -0.0914149916061926 [Eh]
	 SCS Opposite-Spin Energy  =      -1.1389329136829713 [Eh]
	 SCS Correlation Energy    =      -1.2303479052891639 [Eh]
	 SCS Total Energy          =    -271.3566250832225819 [Eh]
	-----------------------------------------------------------

  Dipole Moment: [D]
     X:     0.6108      Y:    -2.2936      Z:     1.5505     Total:     2.8351

*** Psi4 exiting successfully. Buy a developer a beer!
