                               Psi4 1.3.2 release

  ==> Input File <==

--------------------------------------------------------------------------
#psi4
#
memory 32 gb

molecule  {
0 1
  O       -0.9233460     1.1259790    -0.7064150
  C        0.6908080    -0.2688650     0.3923890
  C        1.1946870    -1.2650980    -0.6685790
  C        1.6030820     0.9446750     0.4967120
  C       -0.7197390     0.1522350     0.0136690
  C       -1.8392901    -0.8461441     0.3260082
  H        0.6514880    -0.7856950     1.3599030
  H        1.2206430    -0.7821580    -1.6480110
  H        2.2053530    -1.6017900    -0.4206070
  H        0.5514890    -2.1461630    -0.7366640
  H        1.2521310     1.6422800     1.2622420
  H        1.6225110     1.4777260    -0.4537380
  H        2.6197860     0.6362020     0.7540910
  H       -1.6800360    -1.7612670     0.2847220
  H       -2.7934900    -0.3633680     0.0910490
  H       -1.9015030    -0.6283060     1.6249380
units angstrom
no_reorient  #important for SAPT in psi4, default
symmetry c1  #important for SAPT in psi4, default
}

set PROPERTIES_ORIGIN ["COM"]
properties('MP2/aug-cc-pvtz', properties = ['dipole'])
--------------------------------------------------------------------------

    Molecular point group: c1
  Charge       = 0
  Multiplicity = 1
  Basis Set: AUG-CC-PVTZ
    Blend: AUG-CC-PVTZ
  Basis Set: (AUG-CC-PVTZ AUX)
    Blend: AUG-CC-PVTZ-JKFIT

    Orbital Energies [Eh]
    ---------------------

    Doubly Occupied:

       1A    -20.543083     2A    -11.333855     3A    -11.246087
       4A    -11.244146     5A    -11.231569     6A    -11.214738
       7A     -1.375224     8A     -1.091440     9A     -1.007550
      10A     -0.939406    11A     -0.854034    12A     -0.730615
      13A     -0.684424    14A     -0.634427    15A     -0.615439
      16A     -0.605527    17A     -0.570925    18A     -0.551112
      19A     -0.531210    20A     -0.517274    21A     -0.490744
      22A     -0.480153    23A     -0.461124    24A     -0.405447

  @DF-RHF Final Energy:  -270.07286934615240

   => Energetics <=

    Nuclear Repulsion Energy =            244.8662025184753759
    One-Electron Energy =                -851.1590377189563696
    Two-Electron Energy =                 336.2199658543286205
    Total Energy =                       -270.0728693461524017
  Basis Set: (AUG-CC-PVTZ AUX)
    Blend: AUG-CC-PVTZ-RI
    Molecular point group: c1

    Geometry (in Angstrom), charge = 0, multiplicity = 1:

       Center              X                  Y                   Z               Mass
    ------------   -----------------  -----------------  -----------------  -----------------
         O           -0.925244820585     1.146132923577    -0.678041936441    15.994914619570
         C            0.688909179415    -0.248711076423     0.420762063559    12.000000000000
         C            1.192788179415    -1.244944076423    -0.640205936441    12.000000000000
         C            1.601183179415     0.964828923577     0.525085063559    12.000000000000
         C           -0.721637820585     0.172388923577     0.042042063559    12.000000000000
         C           -1.841188920585    -0.825990176423     0.354381263559    12.000000000000
         H            0.649589179415    -0.765541076423     1.388276063559     1.007825032230
         H            1.218744179415    -0.762004076423    -1.619637936441     1.007825032230
         H            2.203454179415    -1.581636076423    -0.392233936441     1.007825032230
         H            0.549590179415    -2.126009076423    -0.708290936441     1.007825032230
         H            1.250232179415     1.662433923577     1.290615063559     1.007825032230
         H            1.620612179415     1.497879923577    -0.425364936441     1.007825032230
         H            2.617887179415     0.656355923577     0.782464063559     1.007825032230
         H           -1.681934820585    -1.741113076423     0.313095063559     1.007825032230
         H           -2.795388820585    -0.343214076423     0.119422063559     1.007825032230
         H           -1.903401820585    -0.608152076423     1.653311063559     1.007825032230

  Basis Set: AUG-CC-PVTZ
    Blend: AUG-CC-PVTZ
  Basis Set: (AUG-CC-PVTZ AUX)
    Blend: AUG-CC-PVTZ-JKFIT
	 Reference Energy          =    -270.0728693461524017 [Eh]
	 Singles Energy            =      -0.0000000000000000 [Eh]
	 Same-Spin Energy          =      -0.2750252615216342 [Eh]
	 Opposite-Spin Energy      =      -0.9516375569977803 [Eh]
	 Correlation Energy        =      -1.2266628185194146 [Eh]
	 Total Energy              =    -271.2995321646718025 [Eh]

	 ================> DF-SCS-MP2 Energies <==================
	-----------------------------------------------------------
	 SCS Same-Spin Scale       =       0.3333333333333333 [-]
	 SCS Opposite-Spin Scale   =       1.2000000000000000 [-]
	 SCS Same-Spin Energy      =      -0.0916750871738781 [Eh]
	 SCS Opposite-Spin Energy  =      -1.1419650683973364 [Eh]
	 SCS Correlation Energy    =      -1.2336401555712144 [Eh]
	 SCS Total Energy          =    -271.3065095017236104 [Eh]
	-----------------------------------------------------------

  Dipole Moment: [D]
     X:     0.6303      Y:    -2.3079      Z:     1.4703     Total:     2.8081

*** Psi4 exiting successfully. Buy a developer a beer!
