                               Psi4 1.3.2 release

  ==> Input File <==

--------------------------------------------------------------------------
#psi4
#
memory 32 gb

molecule  {
0 1
  O       -0.9233460     1.1259790    -0.7064150
  C        0.6908080    -0.2688650     0.3923890
  C        1.1946870    -1.2650980    -0.6685790
  C        1.6030820     0.9446750     0.4967120
  C       -0.7197390     0.1522350     0.0136690
  C       -1.8447381    -0.7883209     0.4074133
  H        0.6514880    -0.7856950     1.3599030
  H        1.2206430    -0.7821580    -1.6480110
  H        2.2053530    -1.6017900    -0.4206070
  H        0.5514890    -2.1461630    -0.7366640
  H        1.2521310     1.6422800     1.2622420
  H        1.6225110     1.4777260    -0.4537380
  H        2.6197860     0.6362020     0.7540910
  H       -1.6800360    -1.7612670     0.2847220
  H       -2.7934900    -0.3633680     0.0910490
  H       -1.9015030    -0.6283060     1.6249380
units angstrom
no_reorient  #important for SAPT in psi4, default
symmetry c1  #important for SAPT in psi4, default
}

set PROPERTIES_ORIGIN ["COM"]
properties('MP2/aug-cc-pvtz', properties = ['dipole'])
--------------------------------------------------------------------------

    Molecular point group: c1
  Charge       = 0
  Multiplicity = 1
  Basis Set: AUG-CC-PVTZ
    Blend: AUG-CC-PVTZ
  Basis Set: (AUG-CC-PVTZ AUX)
    Blend: AUG-CC-PVTZ-JKFIT

    Orbital Energies [Eh]
    ---------------------

    Doubly Occupied:

       1A    -20.542357     2A    -11.330440     3A    -11.243530
       4A    -11.240359     5A    -11.230899     6A    -11.214785
       7A     -1.374460     8A     -1.090988     9A     -1.005713
      10A     -0.939134    11A     -0.852055    12A     -0.725522
      13A     -0.673611    14A     -0.634393    15A     -0.607269
      16A     -0.605616    17A     -0.573387    18A     -0.551392
      19A     -0.536793    20A     -0.517549    21A     -0.493971
      22A     -0.483599    23A     -0.469698    24A     -0.405532

  @DF-RHF Final Energy:  -270.10817265177258

   => Energetics <=

    Nuclear Repulsion Energy =            244.9594412710561642
    One-Electron Energy =                -851.4491243888228382
    Two-Electron Energy =                 336.3815104659940403
    Total Energy =                       -270.1081726517725770
  Basis Set: (AUG-CC-PVTZ AUX)
    Blend: AUG-CC-PVTZ-RI
    Molecular point group: c1

    Geometry (in Angstrom), charge = 0, multiplicity = 1:

       Center              X                  Y                   Z               Mass
    ------------   -----------------  -----------------  -----------------  -----------------
         O           -0.924485280721     1.138071428447    -0.689391132217    15.994914619570
         C            0.689668719279    -0.256772571553     0.409412867783    12.000000000000
         C            1.193547719279    -1.253005571553    -0.651555132217    12.000000000000
         C            1.601942719279     0.956767428447     0.513735867783    12.000000000000
         C           -0.720878280721     0.164327428447     0.030692867783    12.000000000000
         C           -1.845877380721    -0.776228471553     0.424437167783    12.000000000000
         H            0.650348719279    -0.773602571553     1.376926867783     1.007825032230
         H            1.219503719279    -0.770065571553    -1.630987132217     1.007825032230
         H            2.204213719279    -1.589697571553    -0.403583132217     1.007825032230
         H            0.550349719279    -2.134070571553    -0.719640132217     1.007825032230
         H            1.250991719279     1.654372428447     1.279265867783     1.007825032230
         H            1.621371719279     1.489818428447    -0.436714132217     1.007825032230
         H            2.618646719279     0.648294428447     0.771114867783     1.007825032230
         H           -1.681175280721    -1.749174571553     0.301745867783     1.007825032230
         H           -2.794629280721    -0.351275571553     0.108072867783     1.007825032230
         H           -1.902642280721    -0.616213571553     1.641961867783     1.007825032230

  Basis Set: AUG-CC-PVTZ
    Blend: AUG-CC-PVTZ
  Basis Set: (AUG-CC-PVTZ AUX)
    Blend: AUG-CC-PVTZ-JKFIT
	 Reference Energy          =    -270.1081726517725770 [Eh]
	 Singles Energy            =      -0.0000000000000000 [Eh]
	 Same-Spin Energy          =      -0.2745105676477392 [Eh]
	 Opposite-Spin Energy      =      -0.9499280516514819 [Eh]
	 Correlation Energy        =      -1.2244386192992209 [Eh]
	 Total Energy              =    -271.3326112710718121 [Eh]

	 ================> DF-SCS-MP2 Energies <==================
	-----------------------------------------------------------
	 SCS Same-Spin Scale       =       0.3333333333333333 [-]
	 SCS Opposite-Spin Scale   =       1.2000000000000000 [-]
	 SCS Same-Spin Energy      =      -0.0915035225492464 [Eh]
	 SCS Opposite-Spin Energy  =      -1.1399136619817782 [Eh]
	 SCS Correlation Energy    =      -1.2314171845310247 [Eh]
	 SCS Total Energy          =    -271.3395898363036167 [Eh]
	-----------------------------------------------------------

  Dipole Moment: [D]
     X:     0.6168      Y:    -2.3095      Z:     1.5123     Total:     2.8287

*** Psi4 exiting successfully. Buy a developer a beer!
