                               Psi4 1.3.2 release

  ==> Input File <==

--------------------------------------------------------------------------
#psi4
#
memory 32 gb

molecule  {
0 1
  O       -0.9233460     1.1259790    -0.7064150
  C        0.6908080    -0.2688650     0.3923890
  C        1.1946870    -1.2650980    -0.6685790
  C        1.6030820     0.9446750     0.4967120
  C       -0.7197390     0.1522350     0.0136690
  C       -1.8365661    -0.8750557     0.2853057
  H        0.6514880    -0.7856950     1.3599030
  H        1.2206430    -0.7821580    -1.6480110
  H        2.2053530    -1.6017900    -0.4206070
  H        0.5514890    -2.1461630    -0.7366640
  H        1.2521310     1.6422800     1.2622420
  H        1.6225110     1.4777260    -0.4537380
  H        2.6197860     0.6362020     0.7540910
  H       -1.6800360    -1.7612670     0.2847220
  H       -2.7934900    -0.3633680     0.0910490
  H       -1.9015030    -0.6283060     1.6249380
units angstrom
no_reorient  #important for SAPT in psi4, default
symmetry c1  #important for SAPT in psi4, default
}

set PROPERTIES_ORIGIN ["COM"]
properties('MP2/aug-cc-pvtz', properties = ['dipole'])
--------------------------------------------------------------------------

    Molecular point group: c1
  Charge       = 0
  Multiplicity = 1
  Basis Set: AUG-CC-PVTZ
    Blend: AUG-CC-PVTZ
  Basis Set: (AUG-CC-PVTZ AUX)
    Blend: AUG-CC-PVTZ-JKFIT

    Orbital Energies [Eh]
    ---------------------

    Doubly Occupied:

       1A    -20.543603     2A    -11.336075     3A    -11.249877
       4A    -11.244553     5A    -11.231906     6A    -11.214778
       7A     -1.375745     8A     -1.091721     9A     -1.008926
      10A     -0.939588    11A     -0.855350    12A     -0.734525
      13A     -0.689365    14A     -0.634031    15A     -0.618416
      16A     -0.605435    17A     -0.569410    18A     -0.551192
      19A     -0.529777    20A     -0.517127    21A     -0.490286
      22A     -0.479316    23A     -0.453335    24A     -0.405311

  @DF-RHF Final Energy:  -270.04915236098219

   => Energetics <=

    Nuclear Repulsion Energy =            244.7887318975996038
    One-Electron Energy =                -850.9364700219738324
    Two-Electron Energy =                 336.0985857633920091
    Total Energy =                       -270.0491523609821911
  Basis Set: (AUG-CC-PVTZ AUX)
    Blend: AUG-CC-PVTZ-RI
    Molecular point group: c1

    Geometry (in Angstrom), charge = 0, multiplicity = 1:

       Center              X                  Y                   Z               Mass
    ------------   -----------------  -----------------  -----------------  -----------------
         O           -0.925624590517     1.150163671142    -0.672367345524    15.994914619570
         C            0.688529409483    -0.244680328858     0.426436654476    12.000000000000
         C            1.192408409483    -1.240913328858    -0.634531345524    12.000000000000
         C            1.600803409483     0.968859671142     0.530759654476    12.000000000000
         C           -0.722017590517     0.176419671142     0.047716654476    12.000000000000
         C           -1.838844690517    -0.850871028858     0.319353354476    12.000000000000
         H            0.649209409483    -0.761510328858     1.393950654476     1.007825032230
         H            1.218364409483    -0.757973328858    -1.613963345524     1.007825032230
         H            2.203074409483    -1.577605328858    -0.386559345524     1.007825032230
         H            0.549210409483    -2.121978328858    -0.702616345524     1.007825032230
         H            1.249852409483     1.666464671142     1.296289654476     1.007825032230
         H            1.620232409483     1.501910671142    -0.419690345524     1.007825032230
         H            2.617507409483     0.660386671142     0.788138654476     1.007825032230
         H           -1.682314590517    -1.737082328858     0.318769654476     1.007825032230
         H           -2.795768590517    -0.339183328858     0.125096654476     1.007825032230
         H           -1.903781590517    -0.604121328858     1.658985654476     1.007825032230

  Basis Set: AUG-CC-PVTZ
    Blend: AUG-CC-PVTZ
  Basis Set: (AUG-CC-PVTZ AUX)
    Blend: AUG-CC-PVTZ-JKFIT
	 Reference Energy          =    -270.0491523609821911 [Eh]
	 Singles Energy            =      -0.0000000000000000 [Eh]
	 Same-Spin Energy          =      -0.2753819239920741 [Eh]
	 Opposite-Spin Energy      =      -0.9528470563103136 [Eh]
	 Correlation Energy        =      -1.2282289803023878 [Eh]
	 Total Energy              =    -271.2773813412845811 [Eh]

	 ================> DF-SCS-MP2 Energies <==================
	-----------------------------------------------------------
	 SCS Same-Spin Scale       =       0.3333333333333333 [-]
	 SCS Opposite-Spin Scale   =       1.2000000000000000 [-]
	 SCS Same-Spin Energy      =      -0.0917939746640247 [Eh]
	 SCS Opposite-Spin Energy  =      -1.1434164675723764 [Eh]
	 SCS Correlation Energy    =      -1.2352104422364010 [Eh]
	 SCS Total Energy          =    -271.2843628032185848 [Eh]
	-----------------------------------------------------------

  Dipole Moment: [D]
     X:     0.6401      Y:    -2.3007      Z:     1.4516     Total:     2.7946

*** Psi4 exiting successfully. Buy a developer a beer!
