                               Psi4 1.3.2 release

  ==> Input File <==

--------------------------------------------------------------------------
#psi4
#
memory 32 gb

molecule  {
0 1
  O       -0.9233460     1.1259790    -0.7064150
  C        0.6908080    -0.2688650     0.3923890
  C        1.1946870    -1.2650980    -0.6685790
  C        1.6030820     0.9446750     0.4967120
  C       -0.7197390     0.1522350     0.0136690
  C       -1.8420141    -0.8172325     0.3667108
  H        0.6514880    -0.7856950     1.3599030
  H        1.2206430    -0.7821580    -1.6480110
  H        2.2053530    -1.6017900    -0.4206070
  H        0.5514890    -2.1461630    -0.7366640
  H        1.2521310     1.6422800     1.2622420
  H        1.6225110     1.4777260    -0.4537380
  H        2.6197860     0.6362020     0.7540910
  H       -1.6800360    -1.7612670     0.2847220
  H       -2.7934900    -0.3633680     0.0910490
  H       -1.9015030    -0.6283060     1.6249380
units angstrom
no_reorient  #important for SAPT in psi4, default
symmetry c1  #important for SAPT in psi4, default
}

set PROPERTIES_ORIGIN ["COM"]
properties('MP2/aug-cc-pvtz', properties = ['dipole'])
--------------------------------------------------------------------------

    Molecular point group: c1
  Charge       = 0
  Multiplicity = 1
  Basis Set: AUG-CC-PVTZ
    Blend: AUG-CC-PVTZ
  Basis Set: (AUG-CC-PVTZ AUX)
    Blend: AUG-CC-PVTZ-JKFIT

    Orbital Energies [Eh]
    ---------------------

    Doubly Occupied:

       1A    -20.542665     2A    -11.331964     3A    -11.243805
       4A    -11.242898     5A    -11.231232     6A    -11.214741
       7A     -1.374792     8A     -1.091195     9A     -1.006485
      10A     -0.939254    11A     -0.852935    12A     -0.727620
      13A     -0.678922    14A     -0.634546    15A     -0.611645
      16A     -0.605619    17A     -0.572285    18A     -0.551145
      19A     -0.533501    20A     -0.517453    21A     -0.491857
      22A     -0.481766    23A     -0.466711    24A     -0.405513

  @DF-RHF Final Energy:  -270.09260180384780

   => Energetics <=

    Nuclear Repulsion Energy =            244.9229679542391125
    One-Electron Energy =                -851.3300378363906020
    Two-Electron Energy =                 336.3144680783037188
    Total Energy =                       -270.0926018038477991
  Basis Set: (AUG-CC-PVTZ AUX)
    Blend: AUG-CC-PVTZ-RI
    Molecular point group: c1

    Geometry (in Angstrom), charge = 0, multiplicity = 1:

       Center              X                  Y                   Z               Mass
    ------------   -----------------  -----------------  -----------------  -----------------
         O           -0.924865050653     1.142102176012    -0.683716541300    15.994914619570
         C            0.689288949347    -0.252741823988     0.415087458700    12.000000000000
         C            1.193167949347    -1.248974823988    -0.645880541300    12.000000000000
         C            1.601562949347     0.960798176012     0.519410458700    12.000000000000
         C           -0.721258050653     0.168358176012     0.036367458700    12.000000000000
         C           -1.843533150653    -0.801109323988     0.389409258700    12.000000000000
         H            0.649968949347    -0.769571823988     1.382601458700     1.007825032230
         H            1.219123949347    -0.766034823988    -1.625312541300     1.007825032230
         H            2.203833949347    -1.585666823988    -0.397908541300     1.007825032230
         H            0.549969949347    -2.130039823988    -0.713965541300     1.007825032230
         H            1.250611949347     1.658403176012     1.284940458700     1.007825032230
         H            1.620991949347     1.493849176012    -0.431039541300     1.007825032230
         H            2.618266949347     0.652325176012     0.776789458700     1.007825032230
         H           -1.681555050653    -1.745143823988     0.307420458700     1.007825032230
         H           -2.795009050653    -0.347244823988     0.113747458700     1.007825032230
         H           -1.903022050653    -0.612182823988     1.647636458700     1.007825032230

  Basis Set: AUG-CC-PVTZ
    Blend: AUG-CC-PVTZ
  Basis Set: (AUG-CC-PVTZ AUX)
    Blend: AUG-CC-PVTZ-JKFIT
	 Reference Energy          =    -270.0926018038477991 [Eh]
	 Singles Energy            =      -0.0000000000000000 [Eh]
	 Same-Spin Energy          =      -0.2747358404245187 [Eh]
	 Opposite-Spin Energy      =      -0.9506674228490007 [Eh]
	 Correlation Energy        =      -1.2254032632735194 [Eh]
	 Total Energy              =    -271.3180050671213053 [Eh]

	 ================> DF-SCS-MP2 Energies <==================
	-----------------------------------------------------------
	 SCS Same-Spin Scale       =       0.3333333333333333 [-]
	 SCS Opposite-Spin Scale   =       1.2000000000000000 [-]
	 SCS Same-Spin Energy      =      -0.0915786134748395 [Eh]
	 SCS Opposite-Spin Energy  =      -1.1408009074188008 [Eh]
	 SCS Correlation Energy    =      -1.2323795208936403 [Eh]
	 SCS Total Energy          =    -271.3249813247414295 [Eh]
	-----------------------------------------------------------

  Dipole Moment: [D]
     X:     0.6226      Y:    -2.3108      Z:     1.4911     Total:     2.8198

*** Psi4 exiting successfully. Buy a developer a beer!
