                               Psi4 1.3.2 release

  ==> Input File <==

--------------------------------------------------------------------------
#psi4
#
memory 32 gb

molecule  {
0 1
  O       -2.0777727    -0.2688806     0.0000153
  N        1.4061120    -0.6270640    -0.0000300
  C       -0.7219210    -0.0216290     0.0000200
  C        0.1198800    -1.1197570     0.0000420
  C        0.0727050     1.1512910    -0.0000190
  C        1.3966620     0.7411570    -0.0000480
  H       -0.0987760    -2.1768520     0.0000580
  H       -0.2751800     2.1769580    -0.0000470
  H        2.2384780    -1.1997090     0.0000240
  H        2.3139960     1.3126250    -0.0000890
  H       -2.4557400     0.7764670     0.0001920
units angstrom
no_reorient  #important for SAPT in psi4, default
symmetry c1  #important for SAPT in psi4, default
}

set PROPERTIES_ORIGIN ["COM"]
properties('MP2/aug-cc-pvtz', properties = ['dipole'])
--------------------------------------------------------------------------

    Molecular point group: c1
  Charge       = 0
  Multiplicity = 1
  Basis Set: AUG-CC-PVTZ
    Blend: AUG-CC-PVTZ
  Basis Set: (AUG-CC-PVTZ AUX)
    Blend: AUG-CC-PVTZ-JKFIT

    Orbital Energies [Eh]
    ---------------------

    Doubly Occupied:

       1A    -20.592065     2A    -15.608905     3A    -11.274034
       4A    -11.263677     5A    -11.238527     6A    -11.219149
       7A     -1.364535     8A     -1.287078     9A     -1.036492
      10A     -0.973818    11A     -0.802330    12A     -0.760767
      13A     -0.740966    14A     -0.633244    15A     -0.606792
      16A     -0.592176    17A     -0.586947    18A     -0.567867
      19A     -0.533295    20A     -0.509634    21A     -0.338907
      22A     -0.286188

  @DF-RHF Final Energy:  -283.74002955195914

   => Energetics <=

    Nuclear Repulsion Energy =            221.5239651839172836
    One-Electron Energy =                -824.8932070420343052
    Two-Electron Energy =                 319.6292123061578536
    Total Energy =                       -283.7400295519591396
  Basis Set: (AUG-CC-PVTZ AUX)
    Blend: AUG-CC-PVTZ-RI
    Molecular point group: c1

    Geometry (in Angstrom), charge = 0, multiplicity = 1:

       Center              X                  Y                   Z               Mass
    ------------   -----------------  -----------------  -----------------  -----------------
         O           -2.060915951449    -0.230676567939     0.000016459604    15.994914619570
         N            1.422968748551    -0.588859967939    -0.000028840396    14.003074004430
         C           -0.705064251449     0.016575032061     0.000021159604    12.000000000000
         C            0.136736748551    -1.081552967939     0.000043159604    12.000000000000
         C            0.089561748551     1.189495032061    -0.000017840396    12.000000000000
         C            1.413518748551     0.779361032061    -0.000046840396    12.000000000000
         H           -0.081919251449    -2.138647967939     0.000059159604     1.007825032230
         H           -0.258323251449     2.215162032061    -0.000045840396     1.007825032230
         H            2.255334748551    -1.161504967939     0.000025159604     1.007825032230
         H            2.330852748551     1.350829032061    -0.000087840396     1.007825032230
         H           -2.438883251449     0.814671032061     0.000193159604     1.007825032230

  Basis Set: AUG-CC-PVTZ
    Blend: AUG-CC-PVTZ
  Basis Set: (AUG-CC-PVTZ AUX)
    Blend: AUG-CC-PVTZ-JKFIT
	 Reference Energy          =    -283.7400295519591396 [Eh]
	 Singles Energy            =      -0.0000000000000000 [Eh]
	 Same-Spin Energy          =      -0.3018365776049103 [Eh]
	 Opposite-Spin Energy      =      -0.9166871717199410 [Eh]
	 Correlation Energy        =      -1.2185237493248513 [Eh]
	 Total Energy              =    -284.9585533012839846 [Eh]

	 ================> DF-SCS-MP2 Energies <==================
	-----------------------------------------------------------
	 SCS Same-Spin Scale       =       0.3333333333333333 [-]
	 SCS Opposite-Spin Scale   =       1.2000000000000000 [-]
	 SCS Same-Spin Energy      =      -0.1006121925349701 [Eh]
	 SCS Opposite-Spin Energy  =      -1.1000246060639292 [Eh]
	 SCS Correlation Energy    =      -1.2006367985988993 [Eh]
	 SCS Total Energy          =    -284.9406663505580468 [Eh]
	-----------------------------------------------------------

  Dipole Moment: [D]
     X:     1.7538      Y:     0.4939      Z:     0.0003     Total:     1.8220

*** Psi4 exiting successfully. Buy a developer a beer!
