                               Psi4 1.3.2 release

  ==> Input File <==

--------------------------------------------------------------------------
#psi4
#
memory 32 gb

molecule  {
0 1
  O       -2.0961900    -0.1258010     0.0000130
  N        1.4061120    -0.6270640    -0.0000300
  C       -0.7403383     0.1214506     0.0000480
  C        0.1198800    -1.1197570     0.0000420
  C        0.0727050     1.1512910    -0.0000190
  C        1.3966620     0.7411570    -0.0000480
  H       -0.0987760    -2.1768520     0.0000580
  H       -0.2751800     2.1769580    -0.0000470
  H        2.2384780    -1.1997090     0.0000240
  H        2.3139960     1.3126250    -0.0000890
  H       -2.4557400     0.7764670     0.0001920
units angstrom
no_reorient  #important for SAPT in psi4, default
symmetry c1  #important for SAPT in psi4, default
}

set PROPERTIES_ORIGIN ["COM"]
properties('MP2/aug-cc-pvtz', properties = ['dipole'])
--------------------------------------------------------------------------

    Molecular point group: c1
  Charge       = 0
  Multiplicity = 1
  Basis Set: AUG-CC-PVTZ
    Blend: AUG-CC-PVTZ
  Basis Set: (AUG-CC-PVTZ AUX)
    Blend: AUG-CC-PVTZ-JKFIT

    Orbital Energies [Eh]
    ---------------------

    Doubly Occupied:

       1A    -20.585124     2A    -15.622301     3A    -11.279668
       4A    -11.256711     5A    -11.250616     6A    -11.210664
       7A     -1.390087     8A     -1.289629     9A     -1.059225
      10A     -0.957414    11A     -0.816562    12A     -0.777028
      13A     -0.741605    14A     -0.653999    15A     -0.616950
      16A     -0.593890    17A     -0.587507    18A     -0.561117
      19A     -0.537870    20A     -0.508668    21A     -0.356539
      22A     -0.265887

  @DF-RHF Final Energy:  -283.73517140090502

   => Energetics <=

    Nuclear Repulsion Energy =            221.7376190104364753
    One-Electron Energy =                -825.1074581975728961
    Two-Electron Energy =                 319.6346677862314323
    Total Energy =                       -283.7351714009050170
  Basis Set: (AUG-CC-PVTZ AUX)
    Blend: AUG-CC-PVTZ-RI
    Molecular point group: c1

    Geometry (in Angstrom), charge = 0, multiplicity = 1:

       Center              X                  Y                   Z               Mass
    ------------   -----------------  -----------------  -----------------  -----------------
         O           -2.073124091261    -0.135834448786     0.000010556255    15.994914619570
         N            1.429177908739    -0.637097448786    -0.000032443745    14.003074004430
         C           -0.717272391261     0.111417151214     0.000045556255    12.000000000000
         C            0.142945908739    -1.129790448786     0.000039556255    12.000000000000
         C            0.095770908739     1.141257551214    -0.000021443745    12.000000000000
         C            1.419727908739     0.731123551214    -0.000050443745    12.000000000000
         H           -0.075710091261    -2.186885448786     0.000055556255     1.007825032230
         H           -0.252114091261     2.166924551214    -0.000049443745     1.007825032230
         H            2.261543908739    -1.209742448786     0.000021556255     1.007825032230
         H            2.337061908739     1.302591551214    -0.000091443745     1.007825032230
         H           -2.432674091261     0.766433551214     0.000189556255     1.007825032230

  Basis Set: AUG-CC-PVTZ
    Blend: AUG-CC-PVTZ
  Basis Set: (AUG-CC-PVTZ AUX)
    Blend: AUG-CC-PVTZ-JKFIT
	 Reference Energy          =    -283.7351714009050170 [Eh]
	 Singles Energy            =      -0.0000000000000000 [Eh]
	 Same-Spin Energy          =      -0.3029189146571166 [Eh]
	 Opposite-Spin Energy      =      -0.9163889779522731 [Eh]
	 Correlation Energy        =      -1.2193078926093897 [Eh]
	 Total Energy              =    -284.9544792935143960 [Eh]

	 ================> DF-SCS-MP2 Energies <==================
	-----------------------------------------------------------
	 SCS Same-Spin Scale       =       0.3333333333333333 [-]
	 SCS Opposite-Spin Scale   =       1.2000000000000000 [-]
	 SCS Same-Spin Energy      =      -0.1009729715523722 [Eh]
	 SCS Opposite-Spin Energy  =      -1.0996667735427277 [Eh]
	 SCS Correlation Energy    =      -1.2006397450950999 [Eh]
	 SCS Total Energy          =    -284.9358111460001055 [Eh]
	-----------------------------------------------------------

  Dipole Moment: [D]
     X:     1.7016      Y:     0.4685      Z:     0.0003     Total:     1.7649

*** Psi4 exiting successfully. Buy a developer a beer!
