                               Psi4 1.3.2 release

  ==> Input File <==

--------------------------------------------------------------------------
#psi4
#
memory 32 gb

molecule  {
0 1
  O       -2.0961900    -0.1258010     0.0000130
  N        1.4061120    -0.6270640    -0.0000300
  C       -0.7219210    -0.0216290     0.0000200
  C        0.1286746    -1.1421298     0.0000444
  C        0.0727050     1.1512910    -0.0000190
  C        1.3966620     0.7411570    -0.0000480
  H       -0.0987760    -2.1768520     0.0000580
  H       -0.2751800     2.1769580    -0.0000470
  H        2.2384780    -1.1997090     0.0000240
  H        2.3139960     1.3126250    -0.0000890
  H       -2.4557400     0.7764670     0.0001920
units angstrom
no_reorient  #important for SAPT in psi4, default
symmetry c1  #important for SAPT in psi4, default
}

set PROPERTIES_ORIGIN ["COM"]
properties('MP2/aug-cc-pvtz', properties = ['dipole'])
--------------------------------------------------------------------------

    Molecular point group: c1
  Charge       = 0
  Multiplicity = 1
  Basis Set: AUG-CC-PVTZ
    Blend: AUG-CC-PVTZ
  Basis Set: (AUG-CC-PVTZ AUX)
    Blend: AUG-CC-PVTZ-JKFIT

    Orbital Energies [Eh]
    ---------------------

    Doubly Occupied:

       1A    -20.578509     2A    -15.610779     3A    -11.279404
       4A    -11.263916     5A    -11.243539     6A    -11.216536
       7A     -1.382744     8A     -1.288347     9A     -1.036721
      10A     -0.976208    11A     -0.801249    12A     -0.781777
      13A     -0.745713    14A     -0.652728    15A     -0.609087
      16A     -0.592531    17A     -0.591483    18A     -0.569590
      19A     -0.535041    20A     -0.510309    21A     -0.337995
      22A     -0.286078

  @DF-RHF Final Energy:  -283.76543450826364

   => Energetics <=

    Nuclear Repulsion Energy =            221.5375391732484331
    One-Electron Energy =                -824.8253829651814613
    Two-Electron Energy =                 319.5224092836693899
    Total Energy =                       -283.7654345082636382
  Basis Set: (AUG-CC-PVTZ AUX)
    Blend: AUG-CC-PVTZ-RI
    Molecular point group: c1

    Geometry (in Angstrom), charge = 0, multiplicity = 1:

       Center              X                  Y                   Z               Mass
    ------------   -----------------  -----------------  -----------------  -----------------
         O           -2.077056583434    -0.111924311385     0.000014255806    15.994914619570
         N            1.425245416566    -0.613187311385    -0.000028744194    14.003074004430
         C           -0.702787583434    -0.007752311385     0.000021255806    12.000000000000
         C            0.147808016566    -1.128253111385     0.000045655806    12.000000000000
         C            0.091838416566     1.165167688615    -0.000017744194    12.000000000000
         C            1.415795416566     0.755033688615    -0.000046744194    12.000000000000
         H           -0.079642583434    -2.162975311385     0.000059255806     1.007825032230
         H           -0.256046583434     2.190834688615    -0.000045744194     1.007825032230
         H            2.257611416566    -1.185832311385     0.000025255806     1.007825032230
         H            2.333129416566     1.326501688615    -0.000087744194     1.007825032230
         H           -2.436606583434     0.790343688615     0.000193255806     1.007825032230

  Basis Set: AUG-CC-PVTZ
    Blend: AUG-CC-PVTZ
  Basis Set: (AUG-CC-PVTZ AUX)
    Blend: AUG-CC-PVTZ-JKFIT
	 Reference Energy          =    -283.7654345082636382 [Eh]
	 Singles Energy            =      -0.0000000000000000 [Eh]
	 Same-Spin Energy          =      -0.2997577136943287 [Eh]
	 Opposite-Spin Energy      =      -0.9112332116910735 [Eh]
	 Correlation Energy        =      -1.2109909253854023 [Eh]
	 Total Energy              =    -284.9764254336490126 [Eh]

	 ================> DF-SCS-MP2 Energies <==================
	-----------------------------------------------------------
	 SCS Same-Spin Scale       =       0.3333333333333333 [-]
	 SCS Opposite-Spin Scale   =       1.2000000000000000 [-]
	 SCS Same-Spin Energy      =      -0.0999192378981096 [Eh]
	 SCS Opposite-Spin Energy  =      -1.0934798540292883 [Eh]
	 SCS Correlation Energy    =      -1.1933990919273978 [Eh]
	 SCS Total Energy          =    -284.9588336001910420 [Eh]
	-----------------------------------------------------------

  Dipole Moment: [D]
     X:     1.8133      Y:     0.3857      Z:     0.0003     Total:     1.8539

*** Psi4 exiting successfully. Buy a developer a beer!
