                               Psi4 1.3.2 release

  ==> Input File <==

--------------------------------------------------------------------------
#psi4
#
memory 32 gb

molecule  {
0 1
  O       -2.0989884    -0.0777762     0.0000123
  N        1.4061120    -0.6270640    -0.0000300
  C       -0.7219210    -0.0216290     0.0000200
  C        0.1198800    -1.1197570     0.0000420
  C        0.0727050     1.1512910    -0.0000190
  C        1.3966620     0.7411570    -0.0000480
  H       -0.0987760    -2.1768520     0.0000580
  H       -0.2751800     2.1769580    -0.0000470
  H        2.2384780    -1.1997090     0.0000240
  H        2.3139960     1.3126250    -0.0000890
  H       -2.4557400     0.7764670     0.0001920
units angstrom
no_reorient  #important for SAPT in psi4, default
symmetry c1  #important for SAPT in psi4, default
}

set PROPERTIES_ORIGIN ["COM"]
properties('MP2/aug-cc-pvtz', properties = ['dipole'])
--------------------------------------------------------------------------

    Molecular point group: c1
  Charge       = 0
  Multiplicity = 1
  Basis Set: AUG-CC-PVTZ
    Blend: AUG-CC-PVTZ
  Basis Set: (AUG-CC-PVTZ AUX)
    Blend: AUG-CC-PVTZ-JKFIT

    Orbital Energies [Eh]
    ---------------------

    Doubly Occupied:

       1A    -20.572954     2A    -15.609490     3A    -11.277752
       4A    -11.263708     5A    -11.244372     6A    -11.215069
       7A     -1.391151     8A     -1.289869     9A     -1.039399
      10A     -0.978796    11A     -0.801422    12A     -0.792401
      13A     -0.743195    14A     -0.658440    15A     -0.613335
      16A     -0.593252    17A     -0.587591    18A     -0.569485
      19A     -0.535612    20A     -0.509831    21A     -0.337414
      22A     -0.290376

  @DF-RHF Final Energy:  -283.76833416930930

   => Energetics <=

    Nuclear Repulsion Energy =            222.1213818222221903
    One-Electron Energy =                -825.9496041678023630
    Two-Electron Energy =                 320.0598881762708174
    Total Energy =                       -283.7683341693092984
  Basis Set: (AUG-CC-PVTZ AUX)
    Blend: AUG-CC-PVTZ-RI
    Molecular point group: c1

    Geometry (in Angstrom), charge = 0, multiplicity = 1:

       Center              X                  Y                   Z               Mass
    ------------   -----------------  -----------------  -----------------  -----------------
         O           -2.078045005194    -0.076383401159     0.000014037475    15.994914619570
         N            1.427055394806    -0.625671201159    -0.000028262525    14.003074004430
         C           -0.700977605194    -0.020236201159     0.000021737475    12.000000000000
         C            0.140823394806    -1.118364201159     0.000043737475    12.000000000000
         C            0.093648394806     1.152683798841    -0.000017262525    12.000000000000
         C            1.417605394806     0.742549798841    -0.000046262525    12.000000000000
         H           -0.077832605194    -2.175459201159     0.000059737475     1.007825032230
         H           -0.254236605194     2.178350798841    -0.000045262525     1.007825032230
         H            2.259421394806    -1.198316201159     0.000025737475     1.007825032230
         H            2.334939394806     1.314017798841    -0.000087262525     1.007825032230
         H           -2.434796605194     0.777859798841     0.000193737475     1.007825032230

  Basis Set: AUG-CC-PVTZ
    Blend: AUG-CC-PVTZ
  Basis Set: (AUG-CC-PVTZ AUX)
    Blend: AUG-CC-PVTZ-JKFIT
	 Reference Energy          =    -283.7683341693092984 [Eh]
	 Singles Energy            =      -0.0000000000000000 [Eh]
	 Same-Spin Energy          =      -0.2986847200976470 [Eh]
	 Opposite-Spin Energy      =      -0.9089092995483494 [Eh]
	 Correlation Energy        =      -1.2075940196459964 [Eh]
	 Total Energy              =    -284.9759281889553222 [Eh]

	 ================> DF-SCS-MP2 Energies <==================
	-----------------------------------------------------------
	 SCS Same-Spin Scale       =       0.3333333333333333 [-]
	 SCS Opposite-Spin Scale   =       1.2000000000000000 [-]
	 SCS Same-Spin Energy      =      -0.0995615733658823 [Eh]
	 SCS Opposite-Spin Energy  =      -1.0906911594580193 [Eh]
	 SCS Correlation Energy    =      -1.1902527328239016 [Eh]
	 SCS Total Energy          =    -284.9585869021332201 [Eh]
	-----------------------------------------------------------

  Dipole Moment: [D]
     X:     1.8456      Y:     0.3264      Z:     0.0003     Total:     1.8742

*** Psi4 exiting successfully. Buy a developer a beer!
