                               Psi4 1.3.2 release

  ==> Input File <==

--------------------------------------------------------------------------
#psi4
#
memory 32 gb

molecule  {
0 1
  O       -2.0855757    -0.2214114     0.0000168
  N        1.4061120    -0.6270640    -0.0000300
  C       -0.7219210    -0.0216290     0.0000200
  C        0.1198800    -1.1197570     0.0000420
  C        0.0727050     1.1512910    -0.0000190
  C        1.3966620     0.7411570    -0.0000480
  H       -0.0987760    -2.1768520     0.0000580
  H       -0.2751800     2.1769580    -0.0000470
  H        2.2384780    -1.1997090     0.0000240
  H        2.3139960     1.3126250    -0.0000890
  H       -2.4557400     0.7764670     0.0001920
units angstrom
no_reorient  #important for SAPT in psi4, default
symmetry c1  #important for SAPT in psi4, default
}

set PROPERTIES_ORIGIN ["COM"]
properties('MP2/aug-cc-pvtz', properties = ['dipole'])
--------------------------------------------------------------------------

    Molecular point group: c1
  Charge       = 0
  Multiplicity = 1
  Basis Set: AUG-CC-PVTZ
    Blend: AUG-CC-PVTZ
  Basis Set: (AUG-CC-PVTZ AUX)
    Blend: AUG-CC-PVTZ-JKFIT

    Orbital Energies [Eh]
    ---------------------

    Doubly Occupied:

       1A    -20.587960     2A    -15.608994     3A    -11.274630
       4A    -11.263694     5A    -11.239812     6A    -11.218104
       7A     -1.369641     8A     -1.287740     9A     -1.036880
      10A     -0.974940    11A     -0.802055    12A     -0.765986
      13A     -0.741789    14A     -0.639522    15A     -0.608925
      16A     -0.592287    17A     -0.587052    18A     -0.568263
      19A     -0.533738    20A     -0.511369    21A     -0.338477
      22A     -0.287145

  @DF-RHF Final Energy:  -283.75229145256486

   => Energetics <=

    Nuclear Repulsion Energy =            221.6265381632818503
    One-Electron Energy =                -825.0796607989682343
    Two-Electron Energy =                 319.7008311831215792
    Total Energy =                       -283.7522914525648616
  Basis Set: (AUG-CC-PVTZ AUX)
    Blend: AUG-CC-PVTZ-RI
    Molecular point group: c1

    Geometry (in Angstrom), charge = 0, multiplicity = 1:

       Center              X                  Y                   Z               Mass
    ------------   -----------------  -----------------  -----------------  -----------------
         O           -2.067215908856    -0.192351060036     0.000017670669    15.994914619570
         N            1.424471791144    -0.598003660036    -0.000029129331    14.003074004430
         C           -0.703561208856     0.007431339964     0.000020870669    12.000000000000
         C            0.138239791144    -1.090696660036     0.000042870669    12.000000000000
         C            0.091064791144     1.180351339964    -0.000018129331    12.000000000000
         C            1.415021791144     0.770217339964    -0.000047129331    12.000000000000
         H           -0.080416208856    -2.147791660036     0.000058870669     1.007825032230
         H           -0.256820208856     2.206018339964    -0.000046129331     1.007825032230
         H            2.256837791144    -1.170648660036     0.000024870669     1.007825032230
         H            2.332355791144     1.341685339964    -0.000088129331     1.007825032230
         H           -2.437380208856     0.805527339964     0.000192870669     1.007825032230

  Basis Set: AUG-CC-PVTZ
    Blend: AUG-CC-PVTZ
  Basis Set: (AUG-CC-PVTZ AUX)
    Blend: AUG-CC-PVTZ-JKFIT
	 Reference Energy          =    -283.7522914525648616 [Eh]
	 Singles Energy            =      -0.0000000000000000 [Eh]
	 Same-Spin Energy          =      -0.3009936902892034 [Eh]
	 Opposite-Spin Energy      =      -0.9145008299069115 [Eh]
	 Correlation Energy        =      -1.2154945201961149 [Eh]
	 Total Energy              =    -284.9677859727609643 [Eh]

	 ================> DF-SCS-MP2 Energies <==================
	-----------------------------------------------------------
	 SCS Same-Spin Scale       =       0.3333333333333333 [-]
	 SCS Opposite-Spin Scale   =       1.2000000000000000 [-]
	 SCS Same-Spin Energy      =      -0.1003312300964011 [Eh]
	 SCS Opposite-Spin Energy  =      -1.0974009958882938 [Eh]
	 SCS Correlation Energy    =      -1.1977322259846950 [Eh]
	 SCS Total Energy          =    -284.9500236785495417 [Eh]
	-----------------------------------------------------------

  Dipole Moment: [D]
     X:     1.7712      Y:     0.4585      Z:     0.0003     Total:     1.8295

*** Psi4 exiting successfully. Buy a developer a beer!
