                               Psi4 1.4a3.dev225

  ==> Input File <==

--------------------------------------------------------------------------
#psi4
#
memory 32 gb

molecule  {
0 1
  O       -2.0961900    -0.1258010     0.0000130
  N        1.4061120    -0.6270640    -0.0000300
  C       -0.7418638    -0.0231407     0.0000199
  C        0.1198800    -1.1197570     0.0000420
  C        0.0727050     1.1512910    -0.0000190
  C        1.3966620     0.7411570    -0.0000480
  H       -0.0987760    -2.1768520     0.0000580
  H       -0.2751800     2.1769580    -0.0000470
  H        2.2384780    -1.1997090     0.0000240
  H        2.3139960     1.3126250    -0.0000890
  H       -2.4557400     0.7764670     0.0001920
units angstrom
no_reorient  #important for SAPT in psi4, default
symmetry c1  #important for SAPT in psi4, default
}

set PROPERTIES_ORIGIN ["COM"]
properties('MP2/aug-cc-pvtz', properties = ['dipole'])
--------------------------------------------------------------------------

    Molecular point group: c1
  Charge       = 0
  Multiplicity = 1
  Basis Set: AUG-CC-PVTZ
    Blend: AUG-CC-PVTZ
  Basis Set: (AUG-CC-PVTZ AUX)
    Blend: AUG-CC-PVTZ-JKFIT

    Orbital Energies [Eh]
    ---------------------

    Doubly Occupied:

       1A    -20.581571     2A    -15.608565     3A    -11.278540
       4A    -11.263062     5A    -11.242662     6A    -11.216374
       7A     -1.392848     8A     -1.287158     9A     -1.034768
      10A     -0.975416    11A     -0.800257    12A     -0.786303
      13A     -0.741382    14A     -0.655892    15A     -0.616370
      16A     -0.594660    17A     -0.586210    18A     -0.568495
      19A     -0.537705    20A     -0.507167    21A     -0.335345
      22A     -0.286683

  @DF-RHF Final Energy:  -283.76684972384834

   => Energetics <=

    Nuclear Repulsion Energy =            221.8106674298762471
    One-Electron Energy =                -825.3601691997422449
    Two-Electron Energy =                 319.7826520460176312
    Total Energy =                       -283.7668497238483383
  Basis Set: (AUG-CC-PVTZ AUX)
    Blend: AUG-CC-PVTZ-RI
    Molecular point group: c1

    Geometry (in Angstrom), charge = 0, multiplicity = 1:

       Center              X                  Y                   Z               Mass
    ------------   -----------------  -----------------  -----------------  -----------------
         O           -2.072903635622    -0.114939025994     0.000014617090    15.994914619570
         N            1.429398364378    -0.616202025994    -0.000028382910    14.003074004430
         C           -0.718577435622    -0.012278725994     0.000021517090    12.000000000000
         C            0.143166364378    -1.108895025994     0.000043617090    12.000000000000
         C            0.095991364378     1.162152974006    -0.000017382910    12.000000000000
         C            1.419948364378     0.752018974006    -0.000046382910    12.000000000000
         H           -0.075489635622    -2.165990025994     0.000059617090     1.007825032230
         H           -0.251893635622     2.187819974006    -0.000045382910     1.007825032230
         H            2.261764364378    -1.188847025994     0.000025617090     1.007825032230
         H            2.337282364378     1.323486974006    -0.000087382910     1.007825032230
         H           -2.432453635622     0.787328974006     0.000193617090     1.007825032230

  Basis Set: AUG-CC-PVTZ
    Blend: AUG-CC-PVTZ
  Basis Set: (AUG-CC-PVTZ AUX)
    Blend: AUG-CC-PVTZ-JKFIT
	 Reference Energy          =    -283.7668497238483383 [Eh]
	 Singles Energy            =      -0.0000000000000000 [Eh]
	 Same-Spin Energy          =      -0.2994393108470284 [Eh]
	 Opposite-Spin Energy      =      -0.9105120688387116 [Eh]
	 Correlation Energy        =      -1.2099513796857400 [Eh]
	 Total Energy              =    -284.9768011035340578 [Eh]

	 ================> DF-SCS-MP2 Energies <==================
	-----------------------------------------------------------
	 SCS Same-Spin Scale       =       0.3333333333333333 [-]
	 SCS Opposite-Spin Scale   =       1.2000000000000000 [-]
	 SCS Same-Spin Energy      =      -0.0998131036156761 [Eh]
	 SCS Opposite-Spin Energy  =      -1.0926144826064539 [Eh]
	 SCS Correlation Energy    =      -1.1924275862221301 [Eh]
	 SCS Total Energy          =    -284.9592773100704903 [Eh]
	-----------------------------------------------------------

  Dipole Moment: [D]
     X:     1.6948      Y:     0.3773      Z:     0.0003     Total:     1.7363

*** Psi4 exiting successfully. Buy a developer a beer!
