                               Psi4 1.3.2 release

  ==> Input File <==

--------------------------------------------------------------------------
#psi4
#
memory 32 gb

molecule  {
0 1
  O       -2.0941626    -0.1497694     0.0000139
  N        1.4061120    -0.6270640    -0.0000300
  C       -0.7219210    -0.0216290     0.0000200
  C        0.1198800    -1.1197570     0.0000420
  C        0.0727050     1.1512910    -0.0000190
  C        1.3966620     0.7411570    -0.0000480
  H       -0.0987760    -2.1768520     0.0000580
  H       -0.2751800     2.1769580    -0.0000470
  H        2.2384780    -1.1997090     0.0000240
  H        2.3139960     1.3126250    -0.0000890
  H       -2.4557400     0.7764670     0.0001920
units angstrom
no_reorient  #important for SAPT in psi4, default
symmetry c1  #important for SAPT in psi4, default
}

set PROPERTIES_ORIGIN ["COM"]
properties('MP2/aug-cc-pvtz', properties = ['dipole'])
--------------------------------------------------------------------------

    Molecular point group: c1
  Charge       = 0
  Multiplicity = 1
  Basis Set: AUG-CC-PVTZ
    Blend: AUG-CC-PVTZ
  Basis Set: (AUG-CC-PVTZ AUX)
    Blend: AUG-CC-PVTZ-JKFIT

    Orbital Energies [Eh]
    ---------------------

    Doubly Occupied:

       1A    -20.580981     2A    -15.609196     3A    -11.275919
       4A    -11.263708     5A    -11.241960     6A    -11.216565
       7A     -1.379174     8A     -1.288778     9A     -1.037838
      10A     -0.976779    11A     -0.801668    12A     -0.777210
      13A     -0.742639    14A     -0.649355    15A     -0.611482
      16A     -0.592656    17A     -0.587277    18A     -0.568884
      19A     -0.534584    20A     -0.511712    21A     -0.337901
      22A     -0.288694

  @DF-RHF Final Energy:  -283.76505138040034

   => Energetics <=

    Nuclear Repulsion Energy =            221.8378581104188072
    One-Electron Energy =                -825.4559017404918677
    Two-Electron Energy =                 319.8529922496727522
    Total Energy =                       -283.7650513804003367
  Basis Set: (AUG-CC-PVTZ AUX)
    Blend: AUG-CC-PVTZ-RI
    Molecular point group: c1

    Geometry (in Angstrom), charge = 0, multiplicity = 1:

       Center              X                  Y                   Z               Mass
    ------------   -----------------  -----------------  -----------------  -----------------
         O           -2.074148768559    -0.134509005879     0.000015329277    15.994914619570
         N            1.426125831441    -0.611803605879    -0.000028570723    14.003074004430
         C           -0.701907168559    -0.006368605879     0.000021429277    12.000000000000
         C            0.139893831441    -1.104496605879     0.000043429277    12.000000000000
         C            0.092718831441     1.166551394121    -0.000017570723    12.000000000000
         C            1.416675831441     0.756417394121    -0.000046570723    12.000000000000
         H           -0.078762168559    -2.161591605879     0.000059429277     1.007825032230
         H           -0.255166168559     2.192218394121    -0.000045570723     1.007825032230
         H            2.258491831441    -1.184448605879     0.000025429277     1.007825032230
         H            2.334009831441     1.327885394121    -0.000087570723     1.007825032230
         H           -2.435726168559     0.791727394121     0.000193429277     1.007825032230

  Basis Set: AUG-CC-PVTZ
    Blend: AUG-CC-PVTZ
  Basis Set: (AUG-CC-PVTZ AUX)
    Blend: AUG-CC-PVTZ-JKFIT
	 Reference Energy          =    -283.7650513804003367 [Eh]
	 Singles Energy            =      -0.0000000000000000 [Eh]
	 Same-Spin Energy          =      -0.2997895440080321 [Eh]
	 Opposite-Spin Energy      =      -0.9115145701527592 [Eh]
	 Correlation Energy        =      -1.2113041141607912 [Eh]
	 Total Energy              =    -284.9763554945611190 [Eh]

	 ================> DF-SCS-MP2 Energies <==================
	-----------------------------------------------------------
	 SCS Same-Spin Scale       =       0.3333333333333333 [-]
	 SCS Opposite-Spin Scale   =       1.2000000000000000 [-]
	 SCS Same-Spin Energy      =      -0.0999298480026774 [Eh]
	 SCS Opposite-Spin Energy  =      -1.0938174841833110 [Eh]
	 SCS Correlation Energy    =      -1.1937473321859884 [Eh]
	 SCS Total Energy          =    -284.9587987125863151 [Eh]
	-----------------------------------------------------------

  Dipole Moment: [D]
     X:     1.8041      Y:     0.3975      Z:     0.0003     Total:     1.8474

*** Psi4 exiting successfully. Buy a developer a beer!
