                               Psi4 1.3.2 release

  ==> Input File <==

--------------------------------------------------------------------------
#psi4
#
memory 32 gb

molecule  {
0 1
  O       -2.0961900    -0.1258010     0.0000130
  N        1.4061120    -0.6270640    -0.0000300
  C       -0.7325353     0.0739814     0.0000387
  C        0.1198800    -1.1197570     0.0000420
  C        0.0727050     1.1512910    -0.0000190
  C        1.3966620     0.7411570    -0.0000480
  H       -0.0987760    -2.1768520     0.0000580
  H       -0.2751800     2.1769580    -0.0000470
  H        2.2384780    -1.1997090     0.0000240
  H        2.3139960     1.3126250    -0.0000890
  H       -2.4557400     0.7764670     0.0001920
units angstrom
no_reorient  #important for SAPT in psi4, default
symmetry c1  #important for SAPT in psi4, default
}

set PROPERTIES_ORIGIN ["COM"]
properties('MP2/aug-cc-pvtz', properties = ['dipole'])
--------------------------------------------------------------------------

    Molecular point group: c1
  Charge       = 0
  Multiplicity = 1
  Basis Set: AUG-CC-PVTZ
    Blend: AUG-CC-PVTZ
  Basis Set: (AUG-CC-PVTZ AUX)
    Blend: AUG-CC-PVTZ-JKFIT

    Orbital Energies [Eh]
    ---------------------

    Doubly Occupied:

       1A    -20.582555     2A    -15.617928     3A    -11.278599
       4A    -11.259382     5A    -11.248252     6A    -11.212531
       7A     -1.387429     8A     -1.289527     9A     -1.051703
      10A     -0.963524    11A     -0.811205    12A     -0.779100
      13A     -0.742290    14A     -0.653007    15A     -0.614041
      16A     -0.593185    17A     -0.587366    18A     -0.561361
      19A     -0.536827    20A     -0.515824    21A     -0.349894
      22A     -0.273013

  @DF-RHF Final Energy:  -283.75102289700271

   => Energetics <=

    Nuclear Repulsion Energy =            221.8071620460520137
    One-Electron Energy =                -825.2992846363243871
    Two-Electron Energy =                 319.7410996932696889
    Total Energy =                       -283.7510228970027129
  Basis Set: (AUG-CC-PVTZ AUX)
    Blend: AUG-CC-PVTZ-RI
    Molecular point group: c1

    Geometry (in Angstrom), charge = 0, multiplicity = 1:

       Center              X                  Y                   Z               Mass
    ------------   -----------------  -----------------  -----------------  -----------------
         O           -2.074251731611    -0.128974499373     0.000011900232    15.994914619570
         N            1.428050268389    -0.630237499373    -0.000031099768    14.003074004430
         C           -0.710597031611     0.070807900627     0.000037600232    12.000000000000
         C            0.141818268389    -1.122930499373     0.000040900232    12.000000000000
         C            0.094643268389     1.148117500627    -0.000020099768    12.000000000000
         C            1.418600268389     0.737983500627    -0.000049099768    12.000000000000
         H           -0.076837731611    -2.180025499373     0.000056900232     1.007825032230
         H           -0.253241731611     2.173784500627    -0.000048099768     1.007825032230
         H            2.260416268389    -1.202882499373     0.000022900232     1.007825032230
         H            2.335934268389     1.309451500627    -0.000090099768     1.007825032230
         H           -2.433801731611     0.773293500627     0.000190900232     1.007825032230

  Basis Set: AUG-CC-PVTZ
    Blend: AUG-CC-PVTZ
  Basis Set: (AUG-CC-PVTZ AUX)
    Blend: AUG-CC-PVTZ-JKFIT
	 Reference Energy          =    -283.7510228970027129 [Eh]
	 Singles Energy            =      -0.0000000000000000 [Eh]
	 Same-Spin Energy          =      -0.3017742543997740 [Eh]
	 Opposite-Spin Energy      =      -0.9142789925159385 [Eh]
	 Correlation Energy        =      -1.2160532469157124 [Eh]
	 Total Energy              =    -284.9670761439184048 [Eh]

	 ================> DF-SCS-MP2 Energies <==================
	-----------------------------------------------------------
	 SCS Same-Spin Scale       =       0.3333333333333333 [-]
	 SCS Opposite-Spin Scale   =       1.2000000000000000 [-]
	 SCS Same-Spin Energy      =      -0.1005914181332580 [Eh]
	 SCS Opposite-Spin Energy  =      -1.0971347910191260 [Eh]
	 SCS Correlation Energy    =      -1.1977262091523841 [Eh]
	 SCS Total Energy          =    -284.9487491061551054 [Eh]
	-----------------------------------------------------------

  Dipole Moment: [D]
     X:     1.7531      Y:     0.4336      Z:     0.0003     Total:     1.8060

*** Psi4 exiting successfully. Buy a developer a beer!
