                               Psi4 1.3.2 release

  ==> Input File <==

--------------------------------------------------------------------------
#psi4
#
memory 32 gb

molecule  {
0 1
  O       -2.0961900    -0.1258010     0.0000130
  N        1.4373473    -0.7179872    -0.0000314
  C       -0.7219210    -0.0216290     0.0000200
  C        0.1198800    -1.1197570     0.0000420
  C        0.0727050     1.1512910    -0.0000190
  C        1.3966620     0.7411570    -0.0000480
  H       -0.0987760    -2.1768520     0.0000580
  H       -0.2751800     2.1769580    -0.0000470
  H        2.2384780    -1.1997090     0.0000240
  H        2.3139960     1.3126250    -0.0000890
  H       -2.4557400     0.7764670     0.0001920
units angstrom
no_reorient  #important for SAPT in psi4, default
symmetry c1  #important for SAPT in psi4, default
}

set PROPERTIES_ORIGIN ["COM"]
properties('MP2/aug-cc-pvtz', properties = ['dipole'])
--------------------------------------------------------------------------

    Molecular point group: c1
  Charge       = 0
  Multiplicity = 1
  Basis Set: AUG-CC-PVTZ
    Blend: AUG-CC-PVTZ
  Basis Set: (AUG-CC-PVTZ AUX)
    Blend: AUG-CC-PVTZ-JKFIT

    Orbital Energies [Eh]
    ---------------------

    Doubly Occupied:

       1A    -20.580421     2A    -15.601071     3A    -11.277870
       4A    -11.270316     5A    -11.249629     6A    -11.226300
       7A     -1.384644     8A     -1.271113     9A     -1.051616
      10A     -0.968215    11A     -0.813692    12A     -0.784475
      13A     -0.737235    14A     -0.654720    15A     -0.629533
      16A     -0.588731    17A     -0.575517    18A     -0.561303
      19A     -0.527528    20A     -0.516107    21A     -0.347901
      22A     -0.284961

  @DF-RHF Final Energy:  -283.75319668602265

   => Energetics <=

    Nuclear Repulsion Energy =            220.3865292669617304
    One-Electron Energy =                -822.4736543114586311
    Two-Electron Energy =                 318.3339283584742816
    Total Energy =                       -283.7531966860226476
  Basis Set: (AUG-CC-PVTZ AUX)
    Blend: AUG-CC-PVTZ-RI
    Molecular point group: c1

    Geometry (in Angstrom), charge = 0, multiplicity = 1:

       Center              X                  Y                   Z               Mass
    ------------   -----------------  -----------------  -----------------  -----------------
         O           -2.081053049620    -0.099824532714     0.000014838729    15.994914619570
         N            1.452484250380    -0.692010732714    -0.000029561271    14.003074004430
         C           -0.706784049620     0.004347467286     0.000021838729    12.000000000000
         C            0.135016950380    -1.093780532714     0.000043838729    12.000000000000
         C            0.087841950380     1.177267467286    -0.000017161271    12.000000000000
         C            1.411798950380     0.767133467286    -0.000046161271    12.000000000000
         H           -0.083639049620    -2.150875532714     0.000059838729     1.007825032230
         H           -0.260043049620     2.202934467286    -0.000045161271     1.007825032230
         H            2.253614950380    -1.173732532714     0.000025838729     1.007825032230
         H            2.329132950380     1.338601467286    -0.000087161271     1.007825032230
         H           -2.440603049620     0.802443467286     0.000193838729     1.007825032230

  Basis Set: AUG-CC-PVTZ
    Blend: AUG-CC-PVTZ
  Basis Set: (AUG-CC-PVTZ AUX)
    Blend: AUG-CC-PVTZ-JKFIT
	 Reference Energy          =    -283.7531966860226476 [Eh]
	 Singles Energy            =      -0.0000000000000000 [Eh]
	 Same-Spin Energy          =      -0.2988264167486447 [Eh]
	 Opposite-Spin Energy      =      -0.9115602165340182 [Eh]
	 Correlation Energy        =      -1.2103866332826629 [Eh]
	 Total Energy              =    -284.9635833193053145 [Eh]

	 ================> DF-SCS-MP2 Energies <==================
	-----------------------------------------------------------
	 SCS Same-Spin Scale       =       0.3333333333333333 [-]
	 SCS Opposite-Spin Scale   =       1.2000000000000000 [-]
	 SCS Same-Spin Energy      =      -0.0996088055828816 [Eh]
	 SCS Opposite-Spin Energy  =      -1.0938722598408217 [Eh]
	 SCS Correlation Energy    =      -1.1934810654237034 [Eh]
	 SCS Total Energy          =    -284.9466777514463729 [Eh]
	-----------------------------------------------------------

  Dipole Moment: [D]
     X:     1.5913      Y:     0.5863      Z:     0.0003     Total:     1.6959

*** Psi4 exiting successfully. Buy a developer a beer!
