                               Psi4 1.3.2 release

  ==> Input File <==

--------------------------------------------------------------------------
#psi4
#
memory 32 gb

molecule  {
0 1
  O       -2.0961900    -0.1258010     0.0000130
  N        1.4225232    -0.6722530    -0.0000284
  C       -0.7219210    -0.0216290     0.0000200
  C        0.1198800    -1.1197570     0.0000420
  C        0.0727050     1.1512910    -0.0000190
  C        1.3966620     0.7411570    -0.0000480
  H       -0.0987760    -2.1768520     0.0000580
  H       -0.2751800     2.1769580    -0.0000470
  H        2.2384780    -1.1997090     0.0000240
  H        2.3139960     1.3126250    -0.0000890
  H       -2.4557400     0.7764670     0.0001920
units angstrom
no_reorient  #important for SAPT in psi4, default
symmetry c1  #important for SAPT in psi4, default
}

set PROPERTIES_ORIGIN ["COM"]
properties('MP2/aug-cc-pvtz', properties = ['dipole'])
--------------------------------------------------------------------------

    Molecular point group: c1
  Charge       = 0
  Multiplicity = 1
  Basis Set: AUG-CC-PVTZ
    Blend: AUG-CC-PVTZ
  Basis Set: (AUG-CC-PVTZ AUX)
    Blend: AUG-CC-PVTZ-JKFIT

    Orbital Energies [Eh]
    ---------------------

    Doubly Occupied:

       1A    -20.579409     2A    -15.605152     3A    -11.277117
       4A    -11.267072     5A    -11.246049     6A    -11.221233
       7A     -1.383731     8A     -1.279263     9A     -1.044873
      10A     -0.972146    11A     -0.806689    12A     -0.783975
      13A     -0.740063    14A     -0.653147    15A     -0.621542
      16A     -0.590321    17A     -0.576400    18A     -0.570941
      19A     -0.531188    20A     -0.513838    21A     -0.342760
      22A     -0.287031

  @DF-RHF Final Energy:  -283.76377682008842

   => Energetics <=

    Nuclear Repulsion Energy =            221.1305979464742393
    One-Electron Energy =                -824.0008662816081824
    Two-Electron Energy =                 319.1064915150454908
    Total Energy =                       -283.7637768200884238
  Basis Set: (AUG-CC-PVTZ AUX)
    Blend: AUG-CC-PVTZ-RI
    Molecular point group: c1

    Geometry (in Angstrom), charge = 0, multiplicity = 1:

       Center              X                  Y                   Z               Mass
    ------------   -----------------  -----------------  -----------------  -----------------
         O           -2.078553167822    -0.107536980292     0.000014332820    15.994914619570
         N            1.440160032178    -0.653988980292    -0.000027067180    14.003074004430
         C           -0.704284167822    -0.003364980292     0.000021332820    12.000000000000
         C            0.137516832178    -1.101492980292     0.000043332820    12.000000000000
         C            0.090341832178     1.169555019708    -0.000017667180    12.000000000000
         C            1.414298832178     0.759421019708    -0.000046667180    12.000000000000
         H           -0.081139167822    -2.158587980292     0.000059332820     1.007825032230
         H           -0.257543167822     2.195222019708    -0.000045667180     1.007825032230
         H            2.256114832178    -1.181444980292     0.000025332820     1.007825032230
         H            2.331632832178     1.330889019708    -0.000087667180     1.007825032230
         H           -2.438103167822     0.794731019708     0.000193332820     1.007825032230

  Basis Set: AUG-CC-PVTZ
    Blend: AUG-CC-PVTZ
  Basis Set: (AUG-CC-PVTZ AUX)
    Blend: AUG-CC-PVTZ-JKFIT
	 Reference Energy          =    -283.7637768200884238 [Eh]
	 Singles Energy            =      -0.0000000000000000 [Eh]
	 Same-Spin Energy          =      -0.2990658434377089 [Eh]
	 Opposite-Spin Energy      =      -0.9109235796103717 [Eh]
	 Correlation Energy        =      -1.2099894230480808 [Eh]
	 Total Energy              =    -284.9737662431364811 [Eh]

	 ================> DF-SCS-MP2 Energies <==================
	-----------------------------------------------------------
	 SCS Same-Spin Scale       =       0.3333333333333333 [-]
	 SCS Opposite-Spin Scale   =       1.2000000000000000 [-]
	 SCS Same-Spin Energy      =      -0.0996886144792363 [Eh]
	 SCS Opposite-Spin Energy  =      -1.0931082955324460 [Eh]
	 SCS Correlation Energy    =      -1.1927969100116824 [Eh]
	 SCS Total Energy          =    -284.9565737301001036 [Eh]
	-----------------------------------------------------------

  Dipole Moment: [D]
     X:     1.7031      Y:     0.4770      Z:     0.0003     Total:     1.7686

*** Psi4 exiting successfully. Buy a developer a beer!
