                               Psi4 1.3.2 release

  ==> Input File <==

--------------------------------------------------------------------------
#psi4
#
memory 32 gb

molecule  {
0 1
  O       -2.1001090    -0.0296831     0.0000092
  N        1.4061120    -0.6270640    -0.0000300
  C       -0.7219210    -0.0216290     0.0000200
  C        0.1198800    -1.1197570     0.0000420
  C        0.0727050     1.1512910    -0.0000190
  C        1.3966620     0.7411570    -0.0000480
  H       -0.0987760    -2.1768520     0.0000580
  H       -0.2751800     2.1769580    -0.0000470
  H        2.2384780    -1.1997090     0.0000240
  H        2.3139960     1.3126250    -0.0000890
  H       -2.4557400     0.7764670     0.0001920
units angstrom
no_reorient  #important for SAPT in psi4, default
symmetry c1  #important for SAPT in psi4, default
}

set PROPERTIES_ORIGIN ["COM"]
properties('MP2/aug-cc-pvtz', properties = ['dipole'])
--------------------------------------------------------------------------

    Molecular point group: c1
  Charge       = 0
  Multiplicity = 1
  Basis Set: AUG-CC-PVTZ
    Blend: AUG-CC-PVTZ
  Basis Set: (AUG-CC-PVTZ AUX)
    Blend: AUG-CC-PVTZ-JKFIT

    Orbital Energies [Eh]
    ---------------------

    Doubly Occupied:

       1A    -20.567029     2A    -15.609739     3A    -11.279316
       4A    -11.263699     5A    -11.246124     6A    -11.214098
       7A     -1.400553     8A     -1.290622     9A     -1.040878
      10A     -0.980220    11A     -0.805379    12A     -0.800370
      13A     -0.743483    14A     -0.663653    15A     -0.614212
      16A     -0.593761    17A     -0.587850    18A     -0.569853
      19A     -0.536370    20A     -0.507565    21A     -0.337138
      22A     -0.291567

  @DF-RHF Final Energy:  -283.76335139046432

   => Energetics <=

    Nuclear Repulsion Energy =            222.3522721595842313
    One-Electron Energy =                -826.3442870478618261
    Two-Electron Energy =                 320.2286634978132724
    Total Energy =                       -283.7633513904643223
  Basis Set: (AUG-CC-PVTZ AUX)
    Blend: AUG-CC-PVTZ-RI
    Molecular point group: c1

    Geometry (in Angstrom), charge = 0, multiplicity = 1:

       Center              X                  Y                   Z               Mass
    ------------   -----------------  -----------------  -----------------  -----------------
         O           -2.078949751095    -0.037554171171     0.000011534608    15.994914619570
         N            1.427271248905    -0.634935071171    -0.000027665392    14.003074004430
         C           -0.700761751095    -0.029500071171     0.000022334608    12.000000000000
         C            0.141039248905    -1.127628071171     0.000044334608    12.000000000000
         C            0.093864248905     1.143419928829    -0.000016665392    12.000000000000
         C            1.417821248905     0.733285928829    -0.000045665392    12.000000000000
         H           -0.077616751095    -2.184723071171     0.000060334608     1.007825032230
         H           -0.254020751095     2.169086928829    -0.000044665392     1.007825032230
         H            2.259637248905    -1.207580071171     0.000026334608     1.007825032230
         H            2.335155248905     1.304753928829    -0.000086665392     1.007825032230
         H           -2.434580751095     0.768595928829     0.000194334608     1.007825032230

  Basis Set: AUG-CC-PVTZ
    Blend: AUG-CC-PVTZ
  Basis Set: (AUG-CC-PVTZ AUX)
    Blend: AUG-CC-PVTZ-JKFIT
	 Reference Energy          =    -283.7633513904643223 [Eh]
	 Singles Energy            =      -0.0000000000000000 [Eh]
	 Same-Spin Energy          =      -0.2980245889258479 [Eh]
	 Opposite-Spin Energy      =      -0.9074021812495958 [Eh]
	 Correlation Energy        =      -1.2054267701754438 [Eh]
	 Total Energy              =    -284.9687781606397721 [Eh]

	 ================> DF-SCS-MP2 Energies <==================
	-----------------------------------------------------------
	 SCS Same-Spin Scale       =       0.3333333333333333 [-]
	 SCS Opposite-Spin Scale   =       1.2000000000000000 [-]
	 SCS Same-Spin Energy      =      -0.0993415296419493 [Eh]
	 SCS Opposite-Spin Energy  =      -1.0888826174995150 [Eh]
	 SCS Correlation Energy    =      -1.1882241471414643 [Eh]
	 SCS Total Energy          =    -284.9515755376057768 [Eh]
	-----------------------------------------------------------

  Dipole Moment: [D]
     X:     1.8777      Y:     0.2728      Z:     0.0003     Total:     1.8974

*** Psi4 exiting successfully. Buy a developer a beer!
