                               Psi4 1.3.2 release

  ==> Input File <==

--------------------------------------------------------------------------
#psi4
#
memory 32 gb

molecule  {
0 1
  O       -2.0961900    -0.1258010     0.0000130
  N        1.4061120    -0.6270640    -0.0000300
  C       -0.7219210    -0.0216290     0.0000200
  C        0.0810431    -1.1484665     0.0000431
  C        0.0727050     1.1512910    -0.0000190
  C        1.3966620     0.7411570    -0.0000480
  H       -0.0987760    -2.1768520     0.0000580
  H       -0.2751800     2.1769580    -0.0000470
  H        2.2384780    -1.1997090     0.0000240
  H        2.3139960     1.3126250    -0.0000890
  H       -2.4557400     0.7764670     0.0001920
units angstrom
no_reorient  #important for SAPT in psi4, default
symmetry c1  #important for SAPT in psi4, default
}

set PROPERTIES_ORIGIN ["COM"]
properties('MP2/aug-cc-pvtz', properties = ['dipole'])
--------------------------------------------------------------------------

    Molecular point group: c1
  Charge       = 0
  Multiplicity = 1
  Basis Set: AUG-CC-PVTZ
    Blend: AUG-CC-PVTZ
  Basis Set: (AUG-CC-PVTZ AUX)
    Blend: AUG-CC-PVTZ-JKFIT

    Orbital Energies [Eh]
    ---------------------

    Doubly Occupied:

       1A    -20.578568     2A    -15.607163     3A    -11.280385
       4A    -11.268080     5A    -11.242002     6A    -11.216110
       7A     -1.383686     8A     -1.276699     9A     -1.035685
      10A     -0.977997    11A     -0.801524    12A     -0.779339
      13A     -0.745872    14A     -0.650280    15A     -0.609509
      16A     -0.589525    17A     -0.587739    18A     -0.571739
      19A     -0.530869    20A     -0.515248    21A     -0.335880
      22A     -0.292049

  @DF-RHF Final Energy:  -283.76385839490803

   => Energetics <=

    Nuclear Repulsion Energy =            221.2842947069411537
    One-Electron Energy =                -824.3444067589649649
    Two-Electron Energy =                 319.2962536571157557
    Total Energy =                       -283.7638583949080271
  Basis Set: (AUG-CC-PVTZ AUX)
    Blend: AUG-CC-PVTZ-RI
    Molecular point group: c1

    Geometry (in Angstrom), charge = 0, multiplicity = 1:

       Center              X                  Y                   Z               Mass
    ------------   -----------------  -----------------  -----------------  -----------------
         O           -2.070173179448    -0.111008571464     0.000014443673    15.994914619570
         N            1.432128820552    -0.612271571464    -0.000028556327    14.003074004430
         C           -0.695904179448    -0.006836571464     0.000021443673    12.000000000000
         C            0.107059920552    -1.133674071464     0.000044543673    12.000000000000
         C            0.098721820552     1.166083428536    -0.000017556327    12.000000000000
         C            1.422678820552     0.755949428536    -0.000046556327    12.000000000000
         H           -0.072759179448    -2.162059571464     0.000059443673     1.007825032230
         H           -0.249163179448     2.191750428536    -0.000045556327     1.007825032230
         H            2.264494820552    -1.184916571464     0.000025443673     1.007825032230
         H            2.340012820552     1.327417428536    -0.000087556327     1.007825032230
         H           -2.429723179448     0.791259428536     0.000193443673     1.007825032230

  Basis Set: AUG-CC-PVTZ
    Blend: AUG-CC-PVTZ
  Basis Set: (AUG-CC-PVTZ AUX)
    Blend: AUG-CC-PVTZ-JKFIT
	 Reference Energy          =    -283.7638583949080271 [Eh]
	 Singles Energy            =      -0.0000000000000000 [Eh]
	 Same-Spin Energy          =      -0.2992232322385038 [Eh]
	 Opposite-Spin Energy      =      -0.9111588868011404 [Eh]
	 Correlation Energy        =      -1.2103821190396442 [Eh]
	 Total Energy              =    -284.9742405139476773 [Eh]

	 ================> DF-SCS-MP2 Energies <==================
	-----------------------------------------------------------
	 SCS Same-Spin Scale       =       0.3333333333333333 [-]
	 SCS Opposite-Spin Scale   =       1.2000000000000000 [-]
	 SCS Same-Spin Energy      =      -0.0997410774128346 [Eh]
	 SCS Opposite-Spin Energy  =      -1.0933906641613684 [Eh]
	 SCS Correlation Energy    =      -1.1931317415742031 [Eh]
	 SCS Total Energy          =    -284.9569901364822044 [Eh]
	-----------------------------------------------------------

  Dipole Moment: [D]
     X:     1.7831      Y:     0.4275      Z:     0.0003     Total:     1.8336

*** Psi4 exiting successfully. Buy a developer a beer!
