                               Psi4 1.3.2 release

  ==> Input File <==

--------------------------------------------------------------------------
#psi4
#
memory 32 gb

molecule  {
0 1
  O       -2.0961900    -0.1258010     0.0000130
  N        1.4061120    -0.6270640    -0.0000300
  C       -0.7219210    -0.0216290     0.0000200
  C        0.1378583    -1.1643457     0.0000468
  C        0.0727050     1.1512910    -0.0000190
  C        1.3966620     0.7411570    -0.0000480
  H       -0.0987760    -2.1768520     0.0000580
  H       -0.2751800     2.1769580    -0.0000470
  H        2.2384780    -1.1997090     0.0000240
  H        2.3139960     1.3126250    -0.0000890
  H       -2.4557400     0.7764670     0.0001920
units angstrom
no_reorient  #important for SAPT in psi4, default
symmetry c1  #important for SAPT in psi4, default
}

set PROPERTIES_ORIGIN ["COM"]
properties('MP2/aug-cc-pvtz', properties = ['dipole'])
--------------------------------------------------------------------------

    Molecular point group: c1
  Charge       = 0
  Multiplicity = 1
  Basis Set: AUG-CC-PVTZ
    Blend: AUG-CC-PVTZ
  Basis Set: (AUG-CC-PVTZ AUX)
    Blend: AUG-CC-PVTZ-JKFIT

    Orbital Energies [Eh]
    ---------------------

    Doubly Occupied:

       1A    -20.578639     2A    -15.612359     3A    -11.282258
       4A    -11.264168     5A    -11.244365     6A    -11.217047
       7A     -1.382642     8A     -1.287664     9A     -1.035607
      10A     -0.974919    11A     -0.801065    12A     -0.781894
      13A     -0.748491    14A     -0.653517    15A     -0.606398
      16A     -0.597298    17A     -0.590259    18A     -0.569472
      19A     -0.535218    20A     -0.508919    21A     -0.338416
      22A     -0.282972

  @DF-RHF Final Energy:  -283.76177872289298

   => Energetics <=

    Nuclear Repulsion Energy =            221.1608678877300633
    One-Electron Energy =                -824.0581125232121167
    Two-Electron Energy =                 319.1354659125890407
    Total Energy =                       -283.7617787228929842
  Basis Set: (AUG-CC-PVTZ AUX)
    Blend: AUG-CC-PVTZ-RI
    Molecular point group: c1

    Geometry (in Angstrom), charge = 0, multiplicity = 1:

       Center              X                  Y                   Z               Mass
    ------------   -----------------  -----------------  -----------------  -----------------
         O           -2.078383753840    -0.108713809625     0.000013908973    15.994914619570
         N            1.423918246160    -0.609976809625    -0.000029091027    14.003074004430
         C           -0.704114753840    -0.004541809625     0.000020908973    12.000000000000
         C            0.155664546160    -1.147258509625     0.000047708973    12.000000000000
         C            0.090511246160     1.168378190375    -0.000018091027    12.000000000000
         C            1.414468246160     0.758244190375    -0.000047091027    12.000000000000
         H           -0.080969753840    -2.159764809625     0.000058908973     1.007825032230
         H           -0.257373753840     2.194045190375    -0.000046091027     1.007825032230
         H            2.256284246160    -1.182621809625     0.000024908973     1.007825032230
         H            2.331802246160     1.329712190375    -0.000088091027     1.007825032230
         H           -2.437933753840     0.793554190375     0.000192908973     1.007825032230

  Basis Set: AUG-CC-PVTZ
    Blend: AUG-CC-PVTZ
  Basis Set: (AUG-CC-PVTZ AUX)
    Blend: AUG-CC-PVTZ-JKFIT
	 Reference Energy          =    -283.7617787228929842 [Eh]
	 Singles Energy            =      -0.0000000000000000 [Eh]
	 Same-Spin Energy          =      -0.3001347776029386 [Eh]
	 Opposite-Spin Energy      =      -0.9119528579421380 [Eh]
	 Correlation Energy        =      -1.2120876355450765 [Eh]
	 Total Energy              =    -284.9738663584380447 [Eh]

	 ================> DF-SCS-MP2 Energies <==================
	-----------------------------------------------------------
	 SCS Same-Spin Scale       =       0.3333333333333333 [-]
	 SCS Opposite-Spin Scale   =       1.2000000000000000 [-]
	 SCS Same-Spin Energy      =      -0.1000449258676462 [Eh]
	 SCS Opposite-Spin Energy  =      -1.0943434295305656 [Eh]
	 SCS Correlation Energy    =      -1.1943883553982118 [Eh]
	 SCS Total Energy          =    -284.9561670782911733 [Eh]
	-----------------------------------------------------------

  Dipole Moment: [D]
     X:     1.8102      Y:     0.3989      Z:     0.0003     Total:     1.8537

*** Psi4 exiting successfully. Buy a developer a beer!
