                               Psi4 1.3.2 release

  ==> Input File <==

--------------------------------------------------------------------------
#psi4
#
memory 32 gb

molecule  {
0 1
  O       -2.0961900    -0.1258010     0.0000130
  N        1.4061120    -0.6270640    -0.0000300
  C       -0.7219210    -0.0216290     0.0000200
  C        0.1005868    -1.1342812     0.0000426
  C        0.0727050     1.1512910    -0.0000190
  C        1.3966620     0.7411570    -0.0000480
  H       -0.0987760    -2.1768520     0.0000580
  H       -0.2751800     2.1769580    -0.0000470
  H        2.2384780    -1.1997090     0.0000240
  H        2.3139960     1.3126250    -0.0000890
  H       -2.4557400     0.7764670     0.0001920
units angstrom
no_reorient  #important for SAPT in psi4, default
symmetry c1  #important for SAPT in psi4, default
}

set PROPERTIES_ORIGIN ["COM"]
properties('MP2/aug-cc-pvtz', properties = ['dipole'])
--------------------------------------------------------------------------

    Molecular point group: c1
  Charge       = 0
  Multiplicity = 1
  Basis Set: AUG-CC-PVTZ
    Blend: AUG-CC-PVTZ
  Basis Set: (AUG-CC-PVTZ AUX)
    Blend: AUG-CC-PVTZ-JKFIT

    Orbital Energies [Eh]
    ---------------------

    Doubly Occupied:

       1A    -20.578486     2A    -15.608266     3A    -11.278388
       4A    -11.265915     5A    -11.242301     6A    -11.216073
       7A     -1.383264     8A     -1.282713     9A     -1.036917
      10A     -0.977705    11A     -0.801453    12A     -0.780301
      13A     -0.744522    14A     -0.651167    15A     -0.610044
      16A     -0.591035    17A     -0.588484    18A     -0.570640
      19A     -0.532892    20A     -0.513432    21A     -0.336754
      22A     -0.290670

  @DF-RHF Final Energy:  -283.76634108010751

   => Energetics <=

    Nuclear Repulsion Energy =            221.5980921191381867
    One-Electron Energy =                -824.9660176528537932
    Two-Electron Energy =                 319.6015844536080976
    Total Energy =                       -283.7663410801075088
  Basis Set: (AUG-CC-PVTZ AUX)
    Blend: AUG-CC-PVTZ-RI
    Molecular point group: c1

    Geometry (in Angstrom), charge = 0, multiplicity = 1:

       Center              X                  Y                   Z               Mass
    ------------   -----------------  -----------------  -----------------  -----------------
         O           -2.072997511717    -0.113058541559     0.000014515930    15.994914619570
         N            1.429304488283    -0.614321541559    -0.000028484070    14.003074004430
         C           -0.698728511717    -0.008886541559     0.000021515930    12.000000000000
         C            0.123779288283    -1.121538741559     0.000044115930    12.000000000000
         C            0.095897488283     1.164033458441    -0.000017484070    12.000000000000
         C            1.419854488283     0.753899458441    -0.000046484070    12.000000000000
         H           -0.075583511717    -2.164109541559     0.000059515930     1.007825032230
         H           -0.251987511717     2.189700458441    -0.000045484070     1.007825032230
         H            2.261670488283    -1.186966541559     0.000025515930     1.007825032230
         H            2.337188488283     1.325367458441    -0.000087484070     1.007825032230
         H           -2.432547511717     0.789209458441     0.000193515930     1.007825032230

  Basis Set: AUG-CC-PVTZ
    Blend: AUG-CC-PVTZ
  Basis Set: (AUG-CC-PVTZ AUX)
    Blend: AUG-CC-PVTZ-JKFIT
	 Reference Energy          =    -283.7663410801075088 [Eh]
	 Singles Energy            =      -0.0000000000000000 [Eh]
	 Same-Spin Energy          =      -0.2993085455497761 [Eh]
	 Opposite-Spin Energy      =      -0.9108604405971630 [Eh]
	 Correlation Energy        =      -1.2101689861469391 [Eh]
	 Total Energy              =    -284.9765100662544342 [Eh]

	 ================> DF-SCS-MP2 Energies <==================
	-----------------------------------------------------------
	 SCS Same-Spin Scale       =       0.3333333333333333 [-]
	 SCS Opposite-Spin Scale   =       1.2000000000000000 [-]
	 SCS Same-Spin Energy      =      -0.0997695151832587 [Eh]
	 SCS Opposite-Spin Energy  =      -1.0930325287165956 [Eh]
	 SCS Correlation Energy    =      -1.1928020438998543 [Eh]
	 SCS Total Energy          =    -284.9591431240073689 [Eh]
	-----------------------------------------------------------

  Dipole Moment: [D]
     X:     1.8001      Y:     0.4012      Z:     0.0003     Total:     1.8442

*** Psi4 exiting successfully. Buy a developer a beer!
