                               Psi4 1.3.2 release

  ==> Input File <==

--------------------------------------------------------------------------
#psi4
#
memory 32 gb

molecule  {
0 1
  O       -2.0961900    -0.1258010     0.0000130
  N        1.4061120    -0.6270640    -0.0000300
  C       -0.7239484     0.0023394     0.0000247
  C        0.1198800    -1.1197570     0.0000420
  C        0.0727050     1.1512910    -0.0000190
  C        1.3966620     0.7411570    -0.0000480
  H       -0.0987760    -2.1768520     0.0000580
  H       -0.2751800     2.1769580    -0.0000470
  H        2.2384780    -1.1997090     0.0000240
  H        2.3139960     1.3126250    -0.0000890
  H       -2.4557400     0.7764670     0.0001920
units angstrom
no_reorient  #important for SAPT in psi4, default
symmetry c1  #important for SAPT in psi4, default
}

set PROPERTIES_ORIGIN ["COM"]
properties('MP2/aug-cc-pvtz', properties = ['dipole'])
--------------------------------------------------------------------------

    Molecular point group: c1
  Charge       = 0
  Multiplicity = 1
  Basis Set: AUG-CC-PVTZ
    Blend: AUG-CC-PVTZ
  Basis Set: (AUG-CC-PVTZ AUX)
    Blend: AUG-CC-PVTZ-JKFIT

    Orbital Energies [Eh]
    ---------------------

    Doubly Occupied:

       1A    -20.579333     2A    -15.611392     3A    -11.277006
       4A    -11.262760     5A    -11.244190     6A    -11.215233
       7A     -1.383931     8A     -1.289247     9A     -1.041321
      10A     -0.973832    11A     -0.803697    12A     -0.781425
      13A     -0.742812    14A     -0.652319    15A     -0.612081
      16A     -0.592789    17A     -0.587343    18A     -0.566977
      19A     -0.535357    20A     -0.514308    21A     -0.340612
      22A     -0.284955

  @DF-RHF Final Energy:  -283.76529973566369

   => Energetics <=

    Nuclear Repulsion Energy =            221.8971485388221652
    One-Electron Energy =                -825.5390567671063309
    Two-Electron Energy =                 319.8766084926204485
    Total Energy =                       -283.7652997356636888
  Basis Set: (AUG-CC-PVTZ AUX)
    Blend: AUG-CC-PVTZ-RI
    Molecular point group: c1

    Geometry (in Angstrom), charge = 0, multiplicity = 1:

       Center              X                  Y                   Z               Mass
    ------------   -----------------  -----------------  -----------------  -----------------
         O           -2.075492656244    -0.118621249352     0.000013923424    15.994914619570
         N            1.426809343756    -0.619884249352    -0.000029076576    14.003074004430
         C           -0.703251056244     0.009519150648     0.000025623424    12.000000000000
         C            0.140577343756    -1.112577249352     0.000042923424    12.000000000000
         C            0.093402343756     1.158470750648    -0.000018076576    12.000000000000
         C            1.417359343756     0.748336750648    -0.000047076576    12.000000000000
         H           -0.078078656244    -2.169672249352     0.000058923424     1.007825032230
         H           -0.254482656244     2.184137750648    -0.000046076576     1.007825032230
         H            2.259175343756    -1.192529249352     0.000024923424     1.007825032230
         H            2.334693343756     1.319804750648    -0.000088076576     1.007825032230
         H           -2.435042656244     0.783646750648     0.000192923424     1.007825032230

  Basis Set: AUG-CC-PVTZ
    Blend: AUG-CC-PVTZ
  Basis Set: (AUG-CC-PVTZ AUX)
    Blend: AUG-CC-PVTZ-JKFIT
	 Reference Energy          =    -283.7652997356636888 [Eh]
	 Singles Energy            =      -0.0000000000000000 [Eh]
	 Same-Spin Energy          =      -0.2999984981181656 [Eh]
	 Opposite-Spin Energy      =      -0.9114377737041374 [Eh]
	 Correlation Energy        =      -1.2114362718223028 [Eh]
	 Total Energy              =    -284.9767360074860107 [Eh]

	 ================> DF-SCS-MP2 Energies <==================
	-----------------------------------------------------------
	 SCS Same-Spin Scale       =       0.3333333333333333 [-]
	 SCS Opposite-Spin Scale   =       1.2000000000000000 [-]
	 SCS Same-Spin Energy      =      -0.0999994993727219 [Eh]
	 SCS Opposite-Spin Energy  =      -1.0937253284449648 [Eh]
	 SCS Correlation Energy    =      -1.1937248278176866 [Eh]
	 SCS Total Energy          =    -284.9590245634813641 [Eh]
	-----------------------------------------------------------

  Dipole Moment: [D]
     X:     1.8061      Y:     0.3887      Z:     0.0003     Total:     1.8475

*** Psi4 exiting successfully. Buy a developer a beer!
