                               Psi4 1.3.2 release

  ==> Input File <==

--------------------------------------------------------------------------
#psi4
#
memory 32 gb

molecule  {
0 1
  O       -2.0961900    -0.1258010     0.0000130
  N        1.4061120    -0.6270640    -0.0000300
  C       -0.7191226    -0.0696538     0.0000106
  C        0.1198800    -1.1197570     0.0000420
  C        0.0727050     1.1512910    -0.0000190
  C        1.3966620     0.7411570    -0.0000480
  H       -0.0987760    -2.1768520     0.0000580
  H       -0.2751800     2.1769580    -0.0000470
  H        2.2384780    -1.1997090     0.0000240
  H        2.3139960     1.3126250    -0.0000890
  H       -2.4557400     0.7764670     0.0001920
units angstrom
no_reorient  #important for SAPT in psi4, default
symmetry c1  #important for SAPT in psi4, default
}

set PROPERTIES_ORIGIN ["COM"]
properties('MP2/aug-cc-pvtz', properties = ['dipole'])
--------------------------------------------------------------------------

    Molecular point group: c1
  Charge       = 0
  Multiplicity = 1
  Basis Set: AUG-CC-PVTZ
    Blend: AUG-CC-PVTZ
  Basis Set: (AUG-CC-PVTZ AUX)
    Blend: AUG-CC-PVTZ-JKFIT

    Orbital Energies [Eh]
    ---------------------

    Doubly Occupied:

       1A    -20.576849     2A    -15.605254     3A    -11.275392
       4A    -11.265337     5A    -11.239735     6A    -11.217553
       7A     -1.380971     8A     -1.288903     9A     -1.033279
      10A     -0.984448    11A     -0.798234    12A     -0.781989
      13A     -0.742716    14A     -0.654038    15A     -0.613137
      16A     -0.593174    17A     -0.587461    18A     -0.572045
      19A     -0.534094    20A     -0.503015    21A     -0.332300
      22A     -0.298194

  @DF-RHF Final Energy:  -283.76731229674789

   => Energetics <=

    Nuclear Repulsion Energy =            221.9741903146599498
    One-Electron Energy =                -825.7267688873787392
    Two-Electron Energy =                 319.9852662759709006
    Total Energy =                       -283.7673122967478889
  Basis Set: (AUG-CC-PVTZ AUX)
    Blend: AUG-CC-PVTZ-RI
    Molecular point group: c1

    Geometry (in Angstrom), charge = 0, multiplicity = 1:

       Center              X                  Y                   Z               Mass
    ------------   -----------------  -----------------  -----------------  -----------------
         O           -2.076190050426    -0.108217246123     0.000015961067    15.994914619570
         N            1.426111949574    -0.609480246123    -0.000027038933    14.003074004430
         C           -0.699122650426    -0.052070046123     0.000013561067    12.000000000000
         C            0.139879949574    -1.102173246123     0.000044961067    12.000000000000
         C            0.092704949574     1.168874753877    -0.000016038933    12.000000000000
         C            1.416661949574     0.758740753877    -0.000045038933    12.000000000000
         H           -0.078776050426    -2.159268246123     0.000060961067     1.007825032230
         H           -0.255180050426     2.194541753877    -0.000044038933     1.007825032230
         H            2.258477949574    -1.182125246123     0.000026961067     1.007825032230
         H            2.333995949574     1.330208753877    -0.000086038933     1.007825032230
         H           -2.435740050426     0.794050753877     0.000194961067     1.007825032230

  Basis Set: AUG-CC-PVTZ
    Blend: AUG-CC-PVTZ
  Basis Set: (AUG-CC-PVTZ AUX)
    Blend: AUG-CC-PVTZ-JKFIT
	 Reference Energy          =    -283.7673122967478889 [Eh]
	 Singles Energy            =      -0.0000000000000000 [Eh]
	 Same-Spin Energy          =      -0.2982676907403780 [Eh]
	 Opposite-Spin Energy      =      -0.9091315064834891 [Eh]
	 Correlation Energy        =      -1.2073991972238671 [Eh]
	 Total Energy              =    -284.9747114939717676 [Eh]

	 ================> DF-SCS-MP2 Energies <==================
	-----------------------------------------------------------
	 SCS Same-Spin Scale       =       0.3333333333333333 [-]
	 SCS Opposite-Spin Scale   =       1.2000000000000000 [-]
	 SCS Same-Spin Energy      =      -0.0994225635801260 [Eh]
	 SCS Opposite-Spin Energy  =      -1.0909578077801869 [Eh]
	 SCS Correlation Energy    =      -1.1903803713603129 [Eh]
	 SCS Total Energy          =    -284.9576926681082227 [Eh]
	-----------------------------------------------------------

  Dipole Moment: [D]
     X:     1.8281      Y:     0.3485      Z:     0.0003     Total:     1.8610

*** Psi4 exiting successfully. Buy a developer a beer!
