                               Psi4 1.3.2 release

  ==> Input File <==

--------------------------------------------------------------------------
#psi4
#
memory 32 gb

molecule  {
0 1
  O       -2.0961900    -0.1258010     0.0000130
  N        1.4061120    -0.6270640    -0.0000300
  C       -0.7180020    -0.1177469     0.0000013
  C        0.1198800    -1.1197570     0.0000420
  C        0.0727050     1.1512910    -0.0000190
  C        1.3966620     0.7411570    -0.0000480
  H       -0.0987760    -2.1768520     0.0000580
  H       -0.2751800     2.1769580    -0.0000470
  H        2.2384780    -1.1997090     0.0000240
  H        2.3139960     1.3126250    -0.0000890
  H       -2.4557400     0.7764670     0.0001920
units angstrom
no_reorient  #important for SAPT in psi4, default
symmetry c1  #important for SAPT in psi4, default
}

set PROPERTIES_ORIGIN ["COM"]
properties('MP2/aug-cc-pvtz', properties = ['dipole'])
--------------------------------------------------------------------------

    Molecular point group: c1
  Charge       = 0
  Multiplicity = 1
  Basis Set: AUG-CC-PVTZ
    Blend: AUG-CC-PVTZ
  Basis Set: (AUG-CC-PVTZ AUX)
    Blend: AUG-CC-PVTZ-JKFIT

    Orbital Energies [Eh]
    ---------------------

    Doubly Occupied:

       1A    -20.575617     2A    -15.601530     3A    -11.274396
       4A    -11.266601     5A    -11.236699     6A    -11.218776
       7A     -1.379295     8A     -1.288656     9A     -1.030568
      10A     -0.990312    11A     -0.796527    12A     -0.780927
      13A     -0.742331    14A     -0.657429    15A     -0.614147
      16A     -0.593868    17A     -0.587557    18A     -0.573053
      19A     -0.533410    20A     -0.492523    21A     -0.327342
      22A     -0.307540

  @DF-RHF Final Energy:  -283.76150644335263

   => Energetics <=

    Nuclear Repulsion Energy =            222.0185422403392863
    One-Electron Energy =                -825.8218870008669228
    Two-Electron Energy =                 320.0418383171749497
    Total Energy =                       -283.7615064433526300
  Basis Set: (AUG-CC-PVTZ AUX)
    Blend: AUG-CC-PVTZ-RI
    Molecular point group: c1

    Geometry (in Angstrom), charge = 0, multiplicity = 1:

       Center              X                  Y                   Z               Mass
    ------------   -----------------  -----------------  -----------------  -----------------
         O           -2.076351992470    -0.101267134616     0.000017305045    15.994914619570
         N            1.425950007530    -0.602530134616    -0.000025694955    14.003074004430
         C           -0.698163992470    -0.093213034616     0.000005605045    12.000000000000
         C            0.139718007530    -1.095223134616     0.000046305045    12.000000000000
         C            0.092543007530     1.175824865384    -0.000014694955    12.000000000000
         C            1.416500007530     0.765690865384    -0.000043694955    12.000000000000
         H           -0.078937992470    -2.152318134616     0.000062305045     1.007825032230
         H           -0.255341992470     2.201491865384    -0.000042694955     1.007825032230
         H            2.258316007530    -1.175175134616     0.000028305045     1.007825032230
         H            2.333834007530     1.337158865384    -0.000084694955     1.007825032230
         H           -2.435901992470     0.801000865384     0.000196305045     1.007825032230

  Basis Set: AUG-CC-PVTZ
    Blend: AUG-CC-PVTZ
  Basis Set: (AUG-CC-PVTZ AUX)
    Blend: AUG-CC-PVTZ-JKFIT
	 Reference Energy          =    -283.7615064433526300 [Eh]
	 Singles Energy            =      -0.0000000000000000 [Eh]
	 Same-Spin Energy          =      -0.2972268626083544 [Eh]
	 Opposite-Spin Energy      =      -0.9079576151621198 [Eh]
	 Correlation Energy        =      -1.2051844777704743 [Eh]
	 Total Energy              =    -284.9666909211231314 [Eh]

	 ================> DF-SCS-MP2 Energies <==================
	-----------------------------------------------------------
	 SCS Same-Spin Scale       =       0.3333333333333333 [-]
	 SCS Opposite-Spin Scale   =       1.2000000000000000 [-]
	 SCS Same-Spin Energy      =      -0.0990756208694515 [Eh]
	 SCS Opposite-Spin Energy  =      -1.0895491381945437 [Eh]
	 SCS Correlation Energy    =      -1.1886247590639951 [Eh]
	 SCS Total Energy          =    -284.9501312024166282 [Eh]
	-----------------------------------------------------------

  Dipole Moment: [D]
     X:     1.8253      Y:     0.3220      Z:     0.0003     Total:     1.8535

*** Psi4 exiting successfully. Buy a developer a beer!
