                               Psi4 1.4a3.dev225

  ==> Input File <==

--------------------------------------------------------------------------
#psi4
#
memory 32 gb

molecule  {
0 1
  O       -2.0961900    -0.1258010     0.0000130
  N        1.4061120    -0.6270640    -0.0000300
  C       -0.6720640    -0.0178498     0.0000203
  C        0.1198800    -1.1197570     0.0000420
  C        0.0727050     1.1512910    -0.0000190
  C        1.3966620     0.7411570    -0.0000480
  H       -0.0987760    -2.1768520     0.0000580
  H       -0.2751800     2.1769580    -0.0000470
  H        2.2384780    -1.1997090     0.0000240
  H        2.3139960     1.3126250    -0.0000890
  H       -2.4557400     0.7764670     0.0001920
units angstrom
no_reorient  #important for SAPT in psi4, default
symmetry c1  #important for SAPT in psi4, default
}

set PROPERTIES_ORIGIN ["COM"]
properties('MP2/aug-cc-pvtz', properties = ['dipole'])
--------------------------------------------------------------------------

    Molecular point group: c1
  Charge       = 0
  Multiplicity = 1
  Basis Set: AUG-CC-PVTZ
    Blend: AUG-CC-PVTZ
  Basis Set: (AUG-CC-PVTZ AUX)
    Blend: AUG-CC-PVTZ-JKFIT

    Orbital Energies [Eh]
    ---------------------

    Doubly Occupied:

       1A    -20.570718     2A    -15.611003     3A    -11.271925
       4A    -11.265447     5A    -11.242665     6A    -11.215284
       7A     -1.360517     8A     -1.293999     9A     -1.047040
      10A     -0.982619    11A     -0.805851    12A     -0.771802
      13A     -0.746328    14A     -0.643620    15A     -0.604431
      16A     -0.591321    17A     -0.589528    18A     -0.571772
      19A     -0.526229    20A     -0.517324    21A     -0.343986
      22A     -0.295045

  @DF-RHF Final Energy:  -283.76359206681559

   => Energetics <=

    Nuclear Repulsion Energy =            222.2532583285399710
    One-Electron Energy =                -826.2967918740745290
    Two-Electron Energy =                 320.2799414787189107
    Total Energy =                       -283.7635920668155904
  Basis Set: (AUG-CC-PVTZ AUX)
    Blend: AUG-CC-PVTZ-RI
    Molecular point group: c1

    Geometry (in Angstrom), charge = 0, multiplicity = 1:

       Center              X                  Y                   Z               Mass
    ------------   -----------------  -----------------  -----------------  -----------------
         O           -2.082990662517    -0.115703633494     0.000014559284    15.994914619570
         N            1.419311337483    -0.616966633494    -0.000028440716    14.003074004430
         C           -0.658864662517    -0.007752433494     0.000021859284    12.000000000000
         C            0.133079337483    -1.109659633494     0.000043559284    12.000000000000
         C            0.085904337483     1.161388366506    -0.000017440716    12.000000000000
         C            1.409861337483     0.751254366506    -0.000046440716    12.000000000000
         H           -0.085576662517    -2.166754633494     0.000059559284     1.007825032230
         H           -0.261980662517     2.187055366506    -0.000045440716     1.007825032230
         H            2.251677337483    -1.189611633494     0.000025559284     1.007825032230
         H            2.327195337483     1.322722366506    -0.000087440716     1.007825032230
         H           -2.442540662517     0.786564366506     0.000193559284     1.007825032230

  Basis Set: AUG-CC-PVTZ
    Blend: AUG-CC-PVTZ
  Basis Set: (AUG-CC-PVTZ AUX)
    Blend: AUG-CC-PVTZ-JKFIT
	 Reference Energy          =    -283.7635920668155904 [Eh]
	 Singles Energy            =      -0.0000000000000000 [Eh]
	 Same-Spin Energy          =      -0.2994828347960456 [Eh]
	 Opposite-Spin Energy      =      -0.9110687640549699 [Eh]
	 Correlation Energy        =      -1.2105515988510156 [Eh]
	 Total Energy              =    -284.9741436656665883 [Eh]

	 ================> DF-SCS-MP2 Energies <==================
	-----------------------------------------------------------
	 SCS Same-Spin Scale       =       0.3333333333333333 [-]
	 SCS Opposite-Spin Scale   =       1.2000000000000000 [-]
	 SCS Same-Spin Energy      =      -0.0998276115986819 [Eh]
	 SCS Opposite-Spin Energy  =      -1.0932825168659639 [Eh]
	 SCS Correlation Energy    =      -1.1931101284646457 [Eh]
	 SCS Total Energy          =    -284.9567021952802293 [Eh]
	-----------------------------------------------------------

  Dipole Moment: [D]
     X:     2.1080      Y:     0.3710      Z:     0.0003     Total:     2.1404

*** Psi4 exiting successfully. Buy a developer a beer!
