                               Psi4 1.3.2 release

  ==> Input File <==

--------------------------------------------------------------------------
#psi4
#
memory 32 gb

molecule  {
0 1
  O       -2.0961900    -0.1258010     0.0000130
  N        1.4061120    -0.6270640    -0.0000300
  C       -0.7219210    -0.0216290     0.0000200
  C        0.2300542    -1.0257492     0.0000384
  C        0.0727050     1.1512910    -0.0000190
  C        1.3966620     0.7411570    -0.0000480
  H       -0.0987760    -2.1768520     0.0000580
  H       -0.2751800     2.1769580    -0.0000470
  H        2.2384780    -1.1997090     0.0000240
  H        2.3139960     1.3126250    -0.0000890
  H       -2.4557400     0.7764670     0.0001920
units angstrom
no_reorient  #important for SAPT in psi4, default
symmetry c1  #important for SAPT in psi4, default
}

set PROPERTIES_ORIGIN ["COM"]
properties('MP2/aug-cc-pvtz', properties = ['dipole'])
--------------------------------------------------------------------------

    Molecular point group: c1
  Charge       = 0
  Multiplicity = 1
  Basis Set: AUG-CC-PVTZ
    Blend: AUG-CC-PVTZ
  Basis Set: (AUG-CC-PVTZ AUX)
    Blend: AUG-CC-PVTZ-JKFIT

    Orbital Energies [Eh]
    ---------------------

    Doubly Occupied:

       1A    -20.578381     2A    -15.614182     3A    -11.266582
       4A    -11.250288     5A    -11.248080     6A    -11.216804
       7A     -1.381938     8A     -1.336670     9A     -1.049773
      10A     -0.976019    11A     -0.806378    12A     -0.799607
      13A     -0.730672    14A     -0.670589    15A     -0.623337
      16A     -0.611538    17A     -0.579605    18A     -0.548951
      19A     -0.545935    20A     -0.490355    21A     -0.345565
      22A     -0.280096

  @DF-RHF Final Energy:  -283.73777678761064

   => Energetics <=

    Nuclear Repulsion Energy =            224.1532659823397751
    One-Electron Energy =                -829.8793994216362080
    Two-Electron Energy =                 321.9883566516857627
    Total Energy =                       -283.7377767876106418
  Basis Set: (AUG-CC-PVTZ AUX)
    Blend: AUG-CC-PVTZ-RI
    Molecular point group: c1

    Geometry (in Angstrom), charge = 0, multiplicity = 1:

       Center              X                  Y                   Z               Mass
    ------------   -----------------  -----------------  -----------------  -----------------
         O           -2.091707323862    -0.128742901728     0.000015122888    15.994914619570
         N            1.410594676138    -0.630005901728    -0.000027877112    14.003074004430
         C           -0.717438323862    -0.024570901728     0.000022122888    12.000000000000
         C            0.234536876138    -1.028691101728     0.000040522888    12.000000000000
         C            0.077187676138     1.148349098272    -0.000016877112    12.000000000000
         C            1.401144676138     0.738215098272    -0.000045877112    12.000000000000
         H           -0.094293323862    -2.179793901728     0.000060122888     1.007825032230
         H           -0.270697323862     2.174016098272    -0.000044877112     1.007825032230
         H            2.242960676138    -1.202650901728     0.000026122888     1.007825032230
         H            2.318478676138     1.309683098272    -0.000086877112     1.007825032230
         H           -2.451257323862     0.773525098272     0.000194122888     1.007825032230

  Basis Set: AUG-CC-PVTZ
    Blend: AUG-CC-PVTZ
  Basis Set: (AUG-CC-PVTZ AUX)
    Blend: AUG-CC-PVTZ-JKFIT
	 Reference Energy          =    -283.7377767876106418 [Eh]
	 Singles Energy            =      -0.0000000000000000 [Eh]
	 Same-Spin Energy          =      -0.3002652796275625 [Eh]
	 Opposite-Spin Energy      =      -0.9099510617788577 [Eh]
	 Correlation Energy        =      -1.2102163414064202 [Eh]
	 Total Energy              =    -284.9479931290170498 [Eh]

	 ================> DF-SCS-MP2 Energies <==================
	-----------------------------------------------------------
	 SCS Same-Spin Scale       =       0.3333333333333333 [-]
	 SCS Opposite-Spin Scale   =       1.2000000000000000 [-]
	 SCS Same-Spin Energy      =      -0.1000884265425208 [Eh]
	 SCS Opposite-Spin Energy  =      -1.0919412741346290 [Eh]
	 SCS Correlation Energy    =      -1.1920297006771499 [Eh]
	 SCS Total Energy          =    -284.9298064882877952 [Eh]
	-----------------------------------------------------------

  Dipole Moment: [D]
     X:     1.9252      Y:     0.2326      Z:     0.0003     Total:     1.9392

*** Psi4 exiting successfully. Buy a developer a beer!
