                               Psi4 1.3.2 release

  ==> Input File <==

--------------------------------------------------------------------------
#psi4
#
memory 32 gb

molecule  {
0 1
  O       -2.0961900    -0.1258010     0.0000130
  N        1.4145148    -0.6495869    -0.0000304
  C       -0.7219210    -0.0216290     0.0000200
  C        0.1198800    -1.1197570     0.0000420
  C        0.0727050     1.1512910    -0.0000190
  C        1.3966620     0.7411570    -0.0000480
  H       -0.0987760    -2.1768520     0.0000580
  H       -0.2751800     2.1769580    -0.0000470
  H        2.2384780    -1.1997090     0.0000240
  H        2.3139960     1.3126250    -0.0000890
  H       -2.4557400     0.7764670     0.0001920
units angstrom
no_reorient  #important for SAPT in psi4, default
symmetry c1  #important for SAPT in psi4, default
}

set PROPERTIES_ORIGIN ["COM"]
properties('MP2/aug-cc-pvtz', properties = ['dipole'])
--------------------------------------------------------------------------

    Molecular point group: c1
  Charge       = 0
  Multiplicity = 1
  Basis Set: AUG-CC-PVTZ
    Blend: AUG-CC-PVTZ
  Basis Set: (AUG-CC-PVTZ AUX)
    Blend: AUG-CC-PVTZ-JKFIT

    Orbital Energies [Eh]
    ---------------------

    Doubly Occupied:

       1A    -20.578912     2A    -15.607216     3A    -11.276778
       4A    -11.265402     5A    -11.244357     6A    -11.218655
       7A     -1.383298     8A     -1.283979     9A     -1.041544
      10A     -0.974630    11A     -0.803800    12A     -0.783206
      13A     -0.741459    14A     -0.652740    15A     -0.616977
      16A     -0.591444    17A     -0.581642    18A     -0.570458
      19A     -0.533052    20A     -0.512607    21A     -0.340222
      22A     -0.288123

  @DF-RHF Final Energy:  -283.76647297651834

   => Energetics <=

    Nuclear Repulsion Energy =            221.5210312238368431
    One-Electron Energy =                -824.7940039742895806
    Two-Electron Energy =                 319.5064997739343653
    Total Energy =                       -283.7664729765183438
  Basis Set: (AUG-CC-PVTZ AUX)
    Blend: AUG-CC-PVTZ-RI
    Molecular point group: c1

    Geometry (in Angstrom), charge = 0, multiplicity = 1:

       Center              X                  Y                   Z               Mass
    ------------   -----------------  -----------------  -----------------  -----------------
         O           -2.077202660648    -0.111359308179     0.000014670093    15.994914619570
         N            1.433502139352    -0.635145208179    -0.000028729907    14.003074004430
         C           -0.702933660648    -0.007187308179     0.000021670093    12.000000000000
         C            0.138867339352    -1.105315308179     0.000043670093    12.000000000000
         C            0.091692339352     1.165732691821    -0.000017329907    12.000000000000
         C            1.415649339352     0.755598691821    -0.000046329907    12.000000000000
         H           -0.079788660648    -2.162410308179     0.000059670093     1.007825032230
         H           -0.256192660648     2.191399691821    -0.000045329907     1.007825032230
         H            2.257465339352    -1.185267308179     0.000025670093     1.007825032230
         H            2.332983339352     1.327066691821    -0.000087329907     1.007825032230
         H           -2.436752660648     0.790908691821     0.000193670093     1.007825032230

  Basis Set: AUG-CC-PVTZ
    Blend: AUG-CC-PVTZ
  Basis Set: (AUG-CC-PVTZ AUX)
    Blend: AUG-CC-PVTZ-JKFIT
	 Reference Energy          =    -283.7664729765183438 [Eh]
	 Singles Energy            =      -0.0000000000000000 [Eh]
	 Same-Spin Energy          =      -0.2992253142003165 [Eh]
	 Opposite-Spin Energy      =      -0.9107244703850375 [Eh]
	 Correlation Energy        =      -1.2099497845853540 [Eh]
	 Total Energy              =    -284.9764227611037199 [Eh]

	 ================> DF-SCS-MP2 Energies <==================
	-----------------------------------------------------------
	 SCS Same-Spin Scale       =       0.3333333333333333 [-]
	 SCS Opposite-Spin Scale   =       1.2000000000000000 [-]
	 SCS Same-Spin Energy      =      -0.0997417714001055 [Eh]
	 SCS Opposite-Spin Energy  =      -1.0928693644620449 [Eh]
	 SCS Correlation Energy    =      -1.1926111358621503 [Eh]
	 SCS Total Energy          =    -284.9590841123804807 [Eh]
	-----------------------------------------------------------

  Dipole Moment: [D]
     X:     1.7598      Y:     0.4249      Z:     0.0003     Total:     1.8104

*** Psi4 exiting successfully. Buy a developer a beer!
