                               Psi4 1.3.2 release

  ==> Input File <==

--------------------------------------------------------------------------
#psi4
#
memory 32 gb

molecule  {
0 1
  O       -2.0961900    -0.1258010     0.0000130
  N        1.4061120    -0.6270640    -0.0000300
  C       -0.7219210    -0.0216290     0.0000200
  C        0.1784266    -1.2515058     0.0000408
  C        0.0727050     1.1512910    -0.0000190
  C        1.3966620     0.7411570    -0.0000480
  H       -0.0987760    -2.1768520     0.0000580
  H       -0.2751800     2.1769580    -0.0000470
  H        2.2384780    -1.1997090     0.0000240
  H        2.3139960     1.3126250    -0.0000890
  H       -2.4557400     0.7764670     0.0001920
units angstrom
no_reorient  #important for SAPT in psi4, default
symmetry c1  #important for SAPT in psi4, default
}

set PROPERTIES_ORIGIN ["COM"]
properties('MP2/aug-cc-pvtz', properties = ['dipole'])
--------------------------------------------------------------------------

    Molecular point group: c1
  Charge       = 0
  Multiplicity = 1
  Basis Set: AUG-CC-PVTZ
    Blend: AUG-CC-PVTZ
  Basis Set: (AUG-CC-PVTZ AUX)
    Blend: AUG-CC-PVTZ-JKFIT

    Orbital Energies [Eh]
    ---------------------

    Doubly Occupied:

       1A    -20.579510     2A    -15.619455     3A    -11.292611
       4A    -11.265637     5A    -11.247934     6A    -11.219305
       7A     -1.382581     8A     -1.285900     9A     -1.034596
      10A     -0.969983    11A     -0.802831    12A     -0.784179
      13A     -0.757511    14A     -0.661644    15A     -0.615783
      16A     -0.595206    17A     -0.586437    18A     -0.565040
      19A     -0.536323    20A     -0.498878    21A     -0.341143
      22A     -0.271524

  @DF-RHF Final Energy:  -283.73123603290219

   => Energetics <=

    Nuclear Repulsion Energy =            219.7494976272610643
    One-Electron Energy =                -821.1334438918293017
    Two-Electron Energy =                 317.6527102316661058
    Total Energy =                       -283.7312360329021885
  Basis Set: (AUG-CC-PVTZ AUX)
    Blend: AUG-CC-PVTZ-RI
    Molecular point group: c1

    Geometry (in Angstrom), charge = 0, multiplicity = 1:

       Center              X                  Y                   Z               Mass
    ------------   -----------------  -----------------  -----------------  -----------------
         O           -2.084246428706    -0.096117981659     0.000014776055    15.994914619570
         N            1.418055571294    -0.597380981659    -0.000028223945    14.003074004430
         C           -0.709977428706     0.008054018341     0.000021776055    12.000000000000
         C            0.190370171294    -1.221822781659     0.000042576055    12.000000000000
         C            0.084648571294     1.180974018341    -0.000017223945    12.000000000000
         C            1.408605571294     0.770840018341    -0.000046223945    12.000000000000
         H           -0.086832428706    -2.147168981659     0.000059776055     1.007825032230
         H           -0.263236428706     2.206641018341    -0.000045223945     1.007825032230
         H            2.250421571294    -1.170025981659     0.000025776055     1.007825032230
         H            2.325939571294     1.342308018341    -0.000087223945     1.007825032230
         H           -2.443796428706     0.806150018341     0.000193776055     1.007825032230

  Basis Set: AUG-CC-PVTZ
    Blend: AUG-CC-PVTZ
  Basis Set: (AUG-CC-PVTZ AUX)
    Blend: AUG-CC-PVTZ-JKFIT
	 Reference Energy          =    -283.7312360329021885 [Eh]
	 Singles Energy            =      -0.0000000000000000 [Eh]
	 Same-Spin Energy          =      -0.3018969836485673 [Eh]
	 Opposite-Spin Energy      =      -0.9156873882215849 [Eh]
	 Correlation Energy        =      -1.2175843718701522 [Eh]
	 Total Energy              =    -284.9488204047723343 [Eh]

	 ================> DF-SCS-MP2 Energies <==================
	-----------------------------------------------------------
	 SCS Same-Spin Scale       =       0.3333333333333333 [-]
	 SCS Opposite-Spin Scale   =       1.2000000000000000 [-]
	 SCS Same-Spin Energy      =      -0.1006323278828558 [Eh]
	 SCS Opposite-Spin Energy  =      -1.0988248658659019 [Eh]
	 SCS Correlation Energy    =      -1.1994571937487577 [Eh]
	 SCS Total Energy          =    -284.9306932266509307 [Eh]
	-----------------------------------------------------------

  Dipole Moment: [D]
     X:     1.8030      Y:     0.4693      Z:     0.0003     Total:     1.8631

*** Psi4 exiting successfully. Buy a developer a beer!
