                               Psi4 1.3.2 release

  ==> Input File <==

--------------------------------------------------------------------------
#psi4
#
memory 32 gb

molecule  {
0 1
  O       -2.0961900    -0.1258010     0.0000130
  N        1.4061120    -0.6270640    -0.0000300
  C       -0.7219210    -0.0216290     0.0000200
  C        0.1944310    -1.0583609     0.0000397
  C        0.0727050     1.1512910    -0.0000190
  C        1.3966620     0.7411570    -0.0000480
  H       -0.0987760    -2.1768520     0.0000580
  H       -0.2751800     2.1769580    -0.0000470
  H        2.2384780    -1.1997090     0.0000240
  H        2.3139960     1.3126250    -0.0000890
  H       -2.4557400     0.7764670     0.0001920
units angstrom
no_reorient  #important for SAPT in psi4, default
symmetry c1  #important for SAPT in psi4, default
}

set PROPERTIES_ORIGIN ["COM"]
properties('MP2/aug-cc-pvtz', properties = ['dipole'])
--------------------------------------------------------------------------

    Molecular point group: c1
  Charge       = 0
  Multiplicity = 1
  Basis Set: AUG-CC-PVTZ
    Blend: AUG-CC-PVTZ
  Basis Set: (AUG-CC-PVTZ AUX)
    Blend: AUG-CC-PVTZ-JKFIT

    Orbital Energies [Eh]
    ---------------------

    Doubly Occupied:

       1A    -20.578327     2A    -15.612706     3A    -11.269539
       4A    -11.254705     5A    -11.245771     6A    -11.216357
       7A     -1.381890     8A     -1.319166     9A     -1.045255
      10A     -0.976461    11A     -0.803735    12A     -0.792681
      13A     -0.734712    14A     -0.663176    15A     -0.621307
      16A     -0.603568    17A     -0.580952    18A     -0.556955
      19A     -0.542568    20A     -0.499199    21A     -0.342585
      22A     -0.283187

  @DF-RHF Final Energy:  -283.75511479236184

   => Energetics <=

    Nuclear Repulsion Energy =            223.3568910780750230
    One-Electron Energy =                -828.3744041625295722
    Two-Electron Energy =                 321.2623982920927119
    Total Energy =                       -283.7551147923618373
  Basis Set: (AUG-CC-PVTZ AUX)
    Blend: AUG-CC-PVTZ-RI
    Molecular point group: c1

    Geometry (in Angstrom), charge = 0, multiplicity = 1:

       Center              X                  Y                   Z               Mass
    ------------   -----------------  -----------------  -----------------  -----------------
         O           -2.086559283661    -0.124030064514     0.000014935020    15.994914619570
         N            1.415742716339    -0.625293064514    -0.000028064980    14.003074004430
         C           -0.712290283661    -0.019858064514     0.000021935020    12.000000000000
         C            0.204061716339    -1.056589964514     0.000041635020    12.000000000000
         C            0.082335716339     1.153061935486    -0.000017064980    12.000000000000
         C            1.406292716339     0.742927935486    -0.000046064980    12.000000000000
         H           -0.089145283661    -2.175081064514     0.000059935020     1.007825032230
         H           -0.265549283661     2.178728935486    -0.000045064980     1.007825032230
         H            2.248108716339    -1.197938064514     0.000025935020     1.007825032230
         H            2.323626716339     1.314395935486    -0.000087064980     1.007825032230
         H           -2.446109283661     0.778237935486     0.000193935020     1.007825032230

  Basis Set: AUG-CC-PVTZ
    Blend: AUG-CC-PVTZ
  Basis Set: (AUG-CC-PVTZ AUX)
    Blend: AUG-CC-PVTZ-JKFIT
	 Reference Energy          =    -283.7551147923618373 [Eh]
	 Singles Energy            =      -0.0000000000000000 [Eh]
	 Same-Spin Energy          =      -0.2999367979544709 [Eh]
	 Opposite-Spin Energy      =      -0.9099941285556914 [Eh]
	 Correlation Energy        =      -1.2099309265101623 [Eh]
	 Total Energy              =    -284.9650457188719770 [Eh]

	 ================> DF-SCS-MP2 Energies <==================
	-----------------------------------------------------------
	 SCS Same-Spin Scale       =       0.3333333333333333 [-]
	 SCS Opposite-Spin Scale   =       1.2000000000000000 [-]
	 SCS Same-Spin Energy      =      -0.0999789326514903 [Eh]
	 SCS Opposite-Spin Energy  =      -1.0919929542668296 [Eh]
	 SCS Correlation Energy    =      -1.1919718869183200 [Eh]
	 SCS Total Energy          =    -284.9470866792801758 [Eh]
	-----------------------------------------------------------

  Dipole Moment: [D]
     X:     1.8866      Y:     0.2751      Z:     0.0003     Total:     1.9065

*** Psi4 exiting successfully. Buy a developer a beer!
