                               Psi4 1.3.2 release

  ==> Input File <==

--------------------------------------------------------------------------
#psi4
#
memory 32 gb

molecule  {
0 1
  O       -2.0961900    -0.1258010     0.0000130
  N        1.4061120    -0.6270640    -0.0000300
  C       -0.7219210    -0.0216290     0.0000200
  C        0.1034688    -1.0745680     0.0000371
  C        0.0727050     1.1512910    -0.0000190
  C        1.3966620     0.7411570    -0.0000480
  H       -0.0987760    -2.1768520     0.0000580
  H       -0.2751800     2.1769580    -0.0000470
  H        2.2384780    -1.1997090     0.0000240
  H        2.3139960     1.3126250    -0.0000890
  H       -2.4557400     0.7764670     0.0001920
units angstrom
no_reorient  #important for SAPT in psi4, default
symmetry c1  #important for SAPT in psi4, default
}

set PROPERTIES_ORIGIN ["COM"]
properties('MP2/aug-cc-pvtz', properties = ['dipole'])
--------------------------------------------------------------------------

    Molecular point group: c1
  Charge       = 0
  Multiplicity = 1
  Basis Set: AUG-CC-PVTZ
    Blend: AUG-CC-PVTZ
  Basis Set: (AUG-CC-PVTZ AUX)
    Blend: AUG-CC-PVTZ-JKFIT

    Orbital Energies [Eh]
    ---------------------

    Doubly Occupied:

       1A    -20.578393     2A    -15.606561     3A    -11.270397
       4A    -11.263440     5A    -11.241198     6A    -11.215252
       7A     -1.383310     8A     -1.291052     9A     -1.042912
      10A     -0.979533    11A     -0.802395    12A     -0.782626
      13A     -0.737065    14A     -0.654028    15A     -0.618023
      16A     -0.595931    17A     -0.579070    18A     -0.564514
      19A     -0.534786    20A     -0.512098    21A     -0.337809
      22A     -0.295599

  @DF-RHF Final Energy:  -283.76583465019917

   => Energetics <=

    Nuclear Repulsion Energy =            222.7278164992600864
    One-Electron Energy =                -827.2153216036626873
    Two-Electron Energy =                 320.7216704542033767
    Total Energy =                       -283.7658346501991673
  Basis Set: (AUG-CC-PVTZ AUX)
    Blend: AUG-CC-PVTZ-RI
    Molecular point group: c1

    Geometry (in Angstrom), charge = 0, multiplicity = 1:

       Center              X                  Y                   Z               Mass
    ------------   -----------------  -----------------  -----------------  -----------------
         O           -2.073414000181    -0.121687916634     0.000015310756    15.994914619570
         N            1.428887999819    -0.622950916634    -0.000027689244    14.003074004430
         C           -0.699145000181    -0.017515916634     0.000022310756    12.000000000000
         C            0.126244799819    -1.070454916634     0.000039410756    12.000000000000
         C            0.095480999819     1.155404083366    -0.000016689244    12.000000000000
         C            1.419437999819     0.745270083366    -0.000045689244    12.000000000000
         H           -0.076000000181    -2.172738916634     0.000060310756     1.007825032230
         H           -0.252404000181     2.181071083366    -0.000044689244     1.007825032230
         H            2.261253999819    -1.195595916634     0.000026310756     1.007825032230
         H            2.336771999819     1.316738083366    -0.000086689244     1.007825032230
         H           -2.432964000181     0.780580083366     0.000194310756     1.007825032230

  Basis Set: AUG-CC-PVTZ
    Blend: AUG-CC-PVTZ
  Basis Set: (AUG-CC-PVTZ AUX)
    Blend: AUG-CC-PVTZ-JKFIT
	 Reference Energy          =    -283.7658346501991673 [Eh]
	 Singles Energy            =      -0.0000000000000000 [Eh]
	 Same-Spin Energy          =      -0.2987985543276978 [Eh]
	 Opposite-Spin Energy      =      -0.9096047407736344 [Eh]
	 Correlation Energy        =      -1.2084032951013322 [Eh]
	 Total Energy              =    -284.9742379453005015 [Eh]

	 ================> DF-SCS-MP2 Energies <==================
	-----------------------------------------------------------
	 SCS Same-Spin Scale       =       0.3333333333333333 [-]
	 SCS Opposite-Spin Scale   =       1.2000000000000000 [-]
	 SCS Same-Spin Energy      =      -0.0995995181092326 [Eh]
	 SCS Opposite-Spin Energy  =      -1.0915256889283613 [Eh]
	 SCS Correlation Energy    =      -1.1911252070375939 [Eh]
	 SCS Total Energy          =    -284.9569598572367681 [Eh]
	-----------------------------------------------------------

  Dipole Moment: [D]
     X:     1.8256      Y:     0.3621      Z:     0.0003     Total:     1.8612

*** Psi4 exiting successfully. Buy a developer a beer!
