                               Psi4 1.3.2 release

  ==> Input File <==

--------------------------------------------------------------------------
#psi4
#
memory 32 gb

molecule  {
0 1
  O       -2.0961900    -0.1258010     0.0000130
  N        1.3475654    -0.4953152    -0.0000273
  C       -0.7219210    -0.0216290     0.0000200
  C        0.1198800    -1.1197570     0.0000420
  C        0.0727050     1.1512910    -0.0000190
  C        1.3966620     0.7411570    -0.0000480
  H       -0.0987760    -2.1768520     0.0000580
  H       -0.2751800     2.1769580    -0.0000470
  H        2.2384780    -1.1997090     0.0000240
  H        2.3139960     1.3126250    -0.0000890
  H       -2.4557400     0.7764670     0.0001920
units angstrom
no_reorient  #important for SAPT in psi4, default
symmetry c1  #important for SAPT in psi4, default
}

set PROPERTIES_ORIGIN ["COM"]
properties('MP2/aug-cc-pvtz', properties = ['dipole'])
--------------------------------------------------------------------------

    Molecular point group: c1
  Charge       = 0
  Multiplicity = 1
  Basis Set: AUG-CC-PVTZ
    Blend: AUG-CC-PVTZ
  Basis Set: (AUG-CC-PVTZ AUX)
    Blend: AUG-CC-PVTZ-JKFIT

    Orbital Energies [Eh]
    ---------------------

    Doubly Occupied:

       1A    -20.575746     2A    -15.621470     3A    -11.275292
       4A    -11.253664     5A    -11.234718     6A    -11.200954
       7A     -1.381396     8A     -1.329224     9A     -1.024125
      10A     -0.996743    11A     -0.799749    12A     -0.764302
      13A     -0.751448    14A     -0.653635    15A     -0.618641
      16A     -0.608693    17A     -0.584681    18A     -0.552691
      19A     -0.544596    20A     -0.501171    21A     -0.325374
      22A     -0.295334

  @DF-RHF Final Energy:  -283.73226306550629

   => Energetics <=

    Nuclear Repulsion Energy =            224.6200858203823998
    One-Electron Energy =                -830.9174030659436312
    Two-Electron Energy =                 322.5650541800549149
    Total Energy =                       -283.7322630655062881
  Basis Set: (AUG-CC-PVTZ AUX)
    Blend: AUG-CC-PVTZ-RI
    Molecular point group: c1

    Geometry (in Angstrom), charge = 0, multiplicity = 1:

       Center              X                  Y                   Z               Mass
    ------------   -----------------  -----------------  -----------------  -----------------
         O           -2.065912559631    -0.137375121271     0.000014147320    15.994914619570
         N            1.377842840369    -0.506889321271    -0.000026152680    14.003074004430
         C           -0.691643559631    -0.033203121271     0.000021147320    12.000000000000
         C            0.150157440369    -1.131331121271     0.000043147320    12.000000000000
         C            0.102982440369     1.139716878729    -0.000017852680    12.000000000000
         C            1.426939440369     0.729582878729    -0.000046852680    12.000000000000
         H           -0.068498559631    -2.188426121271     0.000059147320     1.007825032230
         H           -0.244902559631     2.165383878729    -0.000045852680     1.007825032230
         H            2.268755440369    -1.211283121271     0.000025147320     1.007825032230
         H            2.344273440369     1.301050878729    -0.000087852680     1.007825032230
         H           -2.425462559631     0.764892878729     0.000193147320     1.007825032230

  Basis Set: AUG-CC-PVTZ
    Blend: AUG-CC-PVTZ
  Basis Set: (AUG-CC-PVTZ AUX)
    Blend: AUG-CC-PVTZ-JKFIT
	 Reference Energy          =    -283.7322630655062881 [Eh]
	 Singles Energy            =      -0.0000000000000000 [Eh]
	 Same-Spin Energy          =      -0.3009071507744169 [Eh]
	 Opposite-Spin Energy      =      -0.9113743253584741 [Eh]
	 Correlation Energy        =      -1.2122814761328908 [Eh]
	 Total Energy              =    -284.9445445416391749 [Eh]

	 ================> DF-SCS-MP2 Energies <==================
	-----------------------------------------------------------
	 SCS Same-Spin Scale       =       0.3333333333333333 [-]
	 SCS Opposite-Spin Scale   =       1.2000000000000000 [-]
	 SCS Same-Spin Energy      =      -0.1003023835914723 [Eh]
	 SCS Opposite-Spin Energy  =      -1.0936491904301688 [Eh]
	 SCS Correlation Energy    =      -1.1939515740216411 [Eh]
	 SCS Total Energy          =    -284.9262146395279274 [Eh]
	-----------------------------------------------------------

  Dipole Moment: [D]
     X:     2.1508      Y:     0.1435      Z:     0.0003     Total:     2.1556

*** Psi4 exiting successfully. Buy a developer a beer!
