                               Psi4 1.3.2 release

  ==> Input File <==

--------------------------------------------------------------------------
#psi4
#
memory 32 gb

molecule  {
0 1
  O       -2.0961900    -0.1258010     0.0000130
  N        1.4061120    -0.6270640    -0.0000300
  C       -0.7219210    -0.0216290     0.0000200
  C        0.0754257    -0.9826101     0.0000424
  C        0.0727050     1.1512910    -0.0000190
  C        1.3966620     0.7411570    -0.0000480
  H       -0.0987760    -2.1768520     0.0000580
  H       -0.2751800     2.1769580    -0.0000470
  H        2.2384780    -1.1997090     0.0000240
  H        2.3139960     1.3126250    -0.0000890
  H       -2.4557400     0.7764670     0.0001920
units angstrom
no_reorient  #important for SAPT in psi4, default
symmetry c1  #important for SAPT in psi4, default
}

set PROPERTIES_ORIGIN ["COM"]
properties('MP2/aug-cc-pvtz', properties = ['dipole'])
--------------------------------------------------------------------------

    Molecular point group: c1
  Charge       = 0
  Multiplicity = 1
  Basis Set: AUG-CC-PVTZ
    Blend: AUG-CC-PVTZ
  Basis Set: (AUG-CC-PVTZ AUX)
    Blend: AUG-CC-PVTZ-JKFIT

    Orbital Energies [Eh]
    ---------------------

    Doubly Occupied:

       1A    -20.579021     2A    -15.602279     3A    -11.263554
       4A    -11.258012     5A    -11.238576     6A    -11.214462
       7A     -1.384813     8A     -1.296381     9A     -1.058614
      10A     -0.981802    11A     -0.804602    12A     -0.785987
      13A     -0.726200    14A     -0.664540    15A     -0.625108
      16A     -0.604038    17A     -0.574941    18A     -0.543999
      19A     -0.535178    20A     -0.505797    21A     -0.342019
      22A     -0.306930

  @DF-RHF Final Energy:  -283.73903612962658

   => Energetics <=

    Nuclear Repulsion Energy =            224.4587630541049919
    One-Electron Energy =                -830.6018938450903306
    Two-Electron Energy =                 322.4040946613587266
    Total Energy =                       -283.7390361296265837
  Basis Set: (AUG-CC-PVTZ AUX)
    Blend: AUG-CC-PVTZ-RI
    Molecular point group: c1

    Geometry (in Angstrom), charge = 0, multiplicity = 1:

       Center              X                  Y                   Z               Mass
    ------------   -----------------  -----------------  -----------------  -----------------
         O           -2.069361388227    -0.134977092398     0.000014544833    15.994914619570
         N            1.432940611773    -0.636240092398    -0.000028455167    14.003074004430
         C           -0.695092388227    -0.030805092398     0.000021544833    12.000000000000
         C            0.102254311773    -0.991786192398     0.000043944833    12.000000000000
         C            0.099533611773     1.142114907602    -0.000017455167    12.000000000000
         C            1.423490611773     0.731980907602    -0.000046455167    12.000000000000
         H           -0.071947388227    -2.186028092398     0.000059544833     1.007825032230
         H           -0.248351388227     2.167781907602    -0.000045455167     1.007825032230
         H            2.265306611773    -1.208885092398     0.000025544833     1.007825032230
         H            2.340824611773     1.303448907602    -0.000087455167     1.007825032230
         H           -2.428911388227     0.767290907602     0.000193544833     1.007825032230

  Basis Set: AUG-CC-PVTZ
    Blend: AUG-CC-PVTZ
  Basis Set: (AUG-CC-PVTZ AUX)
    Blend: AUG-CC-PVTZ-JKFIT
	 Reference Energy          =    -283.7390361296265837 [Eh]
	 Singles Energy            =      -0.0000000000000000 [Eh]
	 Same-Spin Energy          =      -0.2979864607083090 [Eh]
	 Opposite-Spin Energy      =      -0.9086342323451801 [Eh]
	 Correlation Energy        =      -1.2066206930534893 [Eh]
	 Total Energy              =    -284.9456568226800641 [Eh]

	 ================> DF-SCS-MP2 Energies <==================
	-----------------------------------------------------------
	 SCS Same-Spin Scale       =       0.3333333333333333 [-]
	 SCS Opposite-Spin Scale   =       1.2000000000000000 [-]
	 SCS Same-Spin Energy      =      -0.0993288202361030 [Eh]
	 SCS Opposite-Spin Energy  =      -1.0903610788142162 [Eh]
	 SCS Correlation Energy    =      -1.1896898990503191 [Eh]
	 SCS Total Energy          =    -284.9287260286769197 [Eh]
	-----------------------------------------------------------

  Dipole Moment: [D]
     X:     1.8482      Y:     0.3813      Z:     0.0003     Total:     1.8871

*** Psi4 exiting successfully. Buy a developer a beer!
