                               Psi4 1.3.2 release

  ==> Input File <==

--------------------------------------------------------------------------
#psi4
#
memory 32 gb

molecule  {
0 1
  O       -2.0961900    -0.1258010     0.0000130
  N        1.4061120    -0.6270640    -0.0000300
  C       -0.8216349    -0.0291875     0.0000195
  C        0.1198800    -1.1197570     0.0000420
  C        0.0727050     1.1512910    -0.0000190
  C        1.3966620     0.7411570    -0.0000480
  H       -0.0987760    -2.1768520     0.0000580
  H       -0.2751800     2.1769580    -0.0000470
  H        2.2384780    -1.1997090     0.0000240
  H        2.3139960     1.3126250    -0.0000890
  H       -2.4557400     0.7764670     0.0001920
units angstrom
no_reorient  #important for SAPT in psi4, default
symmetry c1  #important for SAPT in psi4, default
}

set PROPERTIES_ORIGIN ["COM"]
properties('MP2/aug-cc-pvtz', properties = ['dipole'])
--------------------------------------------------------------------------

    Molecular point group: c1
  Charge       = 0
  Multiplicity = 1
  Basis Set: AUG-CC-PVTZ
    Blend: AUG-CC-PVTZ
  Basis Set: (AUG-CC-PVTZ AUX)
    Blend: AUG-CC-PVTZ-JKFIT

    Orbital Energies [Eh]
    ---------------------

    Doubly Occupied:

       1A    -20.595166     2A    -15.605343     3A    -11.288206
       4A    -11.260631     5A    -11.241481     6A    -11.217436
       7A     -1.438805     8A     -1.279330     9A     -1.020837
      10A     -0.967575    11A     -0.812269    12A     -0.791730
      13A     -0.735465    14A     -0.667771    15A     -0.636460
      16A     -0.610797    17A     -0.580586    18A     -0.566979
      19A     -0.543721    20A     -0.484916    21A     -0.326645
      22A     -0.274914

  @DF-RHF Final Energy:  -283.75197800383762

   => Energetics <=

    Nuclear Repulsion Energy =            221.4722979292615150
    One-Electron Energy =                -824.5544269988319002
    Two-Electron Energy =                 319.3301510657327071
    Total Energy =                       -283.7519780038376211
  Basis Set: (AUG-CC-PVTZ AUX)
    Blend: AUG-CC-PVTZ-RI
    Molecular point group: c1

    Geometry (in Angstrom), charge = 0, multiplicity = 1:

       Center              X                  Y                   Z               Mass
    ------------   -----------------  -----------------  -----------------  -----------------
         O           -2.061375619337    -0.114065180593     0.000014674895    15.994914619570
         N            1.440926380663    -0.615328180593    -0.000028325105    14.003074004430
         C           -0.786820519337    -0.017451680593     0.000021174895    12.000000000000
         C            0.154694380663    -1.108021180593     0.000043674895    12.000000000000
         C            0.107519380663     1.163026819407    -0.000017325105    12.000000000000
         C            1.431476380663     0.752892819407    -0.000046325105    12.000000000000
         H           -0.063961619337    -2.165116180593     0.000059674895     1.007825032230
         H           -0.240365619337     2.188693819407    -0.000045325105     1.007825032230
         H            2.273292380663    -1.187973180593     0.000025674895     1.007825032230
         H            2.348810380663     1.324360819407    -0.000087325105     1.007825032230
         H           -2.420925619337     0.788202819407     0.000193674895     1.007825032230

  Basis Set: AUG-CC-PVTZ
    Blend: AUG-CC-PVTZ
  Basis Set: (AUG-CC-PVTZ AUX)
    Blend: AUG-CC-PVTZ-JKFIT
	 Reference Energy          =    -283.7519780038376211 [Eh]
	 Singles Energy            =      -0.0000000000000000 [Eh]
	 Same-Spin Energy          =      -0.2998821089094869 [Eh]
	 Opposite-Spin Energy      =      -0.9106899533756236 [Eh]
	 Correlation Energy        =      -1.2105720622851104 [Eh]
	 Total Energy              =    -284.9625500661227306 [Eh]

	 ================> DF-SCS-MP2 Energies <==================
	-----------------------------------------------------------
	 SCS Same-Spin Scale       =       0.3333333333333333 [-]
	 SCS Opposite-Spin Scale   =       1.2000000000000000 [-]
	 SCS Same-Spin Energy      =      -0.0999607029698290 [Eh]
	 SCS Opposite-Spin Energy  =      -1.0928279440507482 [Eh]
	 SCS Correlation Energy    =      -1.1927886470205773 [Eh]
	 SCS Total Energy          =    -284.9447666508581847 [Eh]
	-----------------------------------------------------------

  Dipole Moment: [D]
     X:     1.1633      Y:     0.3886      Z:     0.0003     Total:     1.2265

*** Psi4 exiting successfully. Buy a developer a beer!
