                               Psi4 1.3.2 release

  ==> Input File <==

--------------------------------------------------------------------------
#psi4
#
memory 32 gb

molecule  {
0 1
  O       -2.0961900    -0.1258010     0.0000130
  N        1.3881337    -0.5824753    -0.0000315
  C       -0.7219210    -0.0216290     0.0000200
  C        0.1198800    -1.1197570     0.0000420
  C        0.0727050     1.1512910    -0.0000190
  C        1.3966620     0.7411570    -0.0000480
  H       -0.0987760    -2.1768520     0.0000580
  H       -0.2751800     2.1769580    -0.0000470
  H        2.2384780    -1.1997090     0.0000240
  H        2.3139960     1.3126250    -0.0000890
  H       -2.4557400     0.7764670     0.0001920
units angstrom
no_reorient  #important for SAPT in psi4, default
symmetry c1  #important for SAPT in psi4, default
}

set PROPERTIES_ORIGIN ["COM"]
properties('MP2/aug-cc-pvtz', properties = ['dipole'])
--------------------------------------------------------------------------

    Molecular point group: c1
  Charge       = 0
  Multiplicity = 1
  Basis Set: AUG-CC-PVTZ
    Blend: AUG-CC-PVTZ
  Basis Set: (AUG-CC-PVTZ AUX)
    Blend: AUG-CC-PVTZ-JKFIT

    Orbital Energies [Eh]
    ---------------------

    Doubly Occupied:

       1A    -20.577470     2A    -15.613399     3A    -11.275929
       4A    -11.260293     5A    -11.239715     6A    -11.210874
       7A     -1.382149     8A     -1.300793     9A     -1.032123
      10A     -0.983830    11A     -0.799221    12A     -0.777286
      13A     -0.745638    14A     -0.652515    15A     -0.602844
      16A     -0.597843    17A     -0.596542    18A     -0.565377
      19A     -0.538501    20A     -0.508467    21A     -0.332967
      22A     -0.291492

  @DF-RHF Final Energy:  -283.76359055397620

   => Energetics <=

    Nuclear Repulsion Energy =            222.7694728021239143
    One-Electron Energy =                -827.2955928896321893
    Two-Electron Energy =                 320.7625295335320743
    Total Energy =                       -283.7635905539762007
  Basis Set: (AUG-CC-PVTZ AUX)
    Blend: AUG-CC-PVTZ-RI
    Molecular point group: c1

    Geometry (in Angstrom), charge = 0, multiplicity = 1:

       Center              X                  Y                   Z               Mass
    ------------   -----------------  -----------------  -----------------  -----------------
         O           -2.072753848800    -0.122676762008     0.000014855593    15.994914619570
         N            1.411569851200    -0.579351062008    -0.000029644407    14.003074004430
         C           -0.698484848800    -0.018504762008     0.000021855593    12.000000000000
         C            0.143316151200    -1.116632762008     0.000043855593    12.000000000000
         C            0.096141151200     1.154415237992    -0.000017144407    12.000000000000
         C            1.420098151200     0.744281237992    -0.000046144407    12.000000000000
         H           -0.075339848800    -2.173727762008     0.000059855593     1.007825032230
         H           -0.251743848800     2.180082237992    -0.000045144407     1.007825032230
         H            2.261914151200    -1.196584762008     0.000025855593     1.007825032230
         H            2.337432151200     1.315749237992    -0.000087144407     1.007825032230
         H           -2.432303848800     0.779591237992     0.000193855593     1.007825032230

  Basis Set: AUG-CC-PVTZ
    Blend: AUG-CC-PVTZ
  Basis Set: (AUG-CC-PVTZ AUX)
    Blend: AUG-CC-PVTZ-JKFIT
	 Reference Energy          =    -283.7635905539762007 [Eh]
	 Singles Energy            =      -0.0000000000000000 [Eh]
	 Same-Spin Energy          =      -0.2998369725879094 [Eh]
	 Opposite-Spin Energy      =      -0.9105789031011443 [Eh]
	 Correlation Energy        =      -1.2104158756890537 [Eh]
	 Total Energy              =    -284.9740064296652804 [Eh]

	 ================> DF-SCS-MP2 Energies <==================
	-----------------------------------------------------------
	 SCS Same-Spin Scale       =       0.3333333333333333 [-]
	 SCS Opposite-Spin Scale   =       1.2000000000000000 [-]
	 SCS Same-Spin Energy      =      -0.0999456575293031 [Eh]
	 SCS Opposite-Spin Energy  =      -1.0926946837213731 [Eh]
	 SCS Correlation Energy    =      -1.1926403412506763 [Eh]
	 SCS Total Energy          =    -284.9562308952268950 [Eh]
	-----------------------------------------------------------

  Dipole Moment: [D]
     X:     1.9313      Y:     0.2831      Z:     0.0003     Total:     1.9520

*** Psi4 exiting successfully. Buy a developer a beer!
