                               Psi4 1.3.2 release

  ==> Input File <==

--------------------------------------------------------------------------
#psi4
#
memory 32 gb

molecule  {
0 1
  O       -2.0961900    -0.1258010     0.0000130
  N        1.4061120    -0.6270640    -0.0000300
  C       -0.7219210    -0.0216290     0.0000200
  C        0.0886447    -1.0288338     0.0000321
  C        0.0727050     1.1512910    -0.0000190
  C        1.3966620     0.7411570    -0.0000480
  H       -0.0987760    -2.1768520     0.0000580
  H       -0.2751800     2.1769580    -0.0000470
  H        2.2384780    -1.1997090     0.0000240
  H        2.3139960     1.3126250    -0.0000890
  H       -2.4557400     0.7764670     0.0001920
units angstrom
no_reorient  #important for SAPT in psi4, default
symmetry c1  #important for SAPT in psi4, default
}

set PROPERTIES_ORIGIN ["COM"]
properties('MP2/aug-cc-pvtz', properties = ['dipole'])
--------------------------------------------------------------------------

    Molecular point group: c1
  Charge       = 0
  Multiplicity = 1
  Basis Set: AUG-CC-PVTZ
    Blend: AUG-CC-PVTZ
  Basis Set: (AUG-CC-PVTZ AUX)
    Blend: AUG-CC-PVTZ-JKFIT

    Orbital Energies [Eh]
    ---------------------

    Doubly Occupied:

       1A    -20.578581     2A    -15.604217     3A    -11.264189
       4A    -11.263379     5A    -11.239789     6A    -11.214692
       7A     -1.383943     8A     -1.293453     9A     -1.049703
      10A     -0.980998    11A     -0.803430    12A     -0.784037
      13A     -0.731453    14A     -0.658186    15A     -0.622402
      16A     -0.599638    17A     -0.575900    18A     -0.554349
      19A     -0.534868    20A     -0.510788    21A     -0.339063
      22A     -0.301666

  @DF-RHF Final Energy:  -283.75660036086038

   => Energetics <=

    Nuclear Repulsion Energy =            223.5726202790358172
    One-Electron Energy =                -828.8809977344185427
    Two-Electron Energy =                 321.5517770945223219
    Total Energy =                       -283.7566003608603751
  Basis Set: (AUG-CC-PVTZ AUX)
    Blend: AUG-CC-PVTZ-RI
    Molecular point group: c1

    Geometry (in Angstrom), charge = 0, multiplicity = 1:

       Center              X                  Y                   Z               Mass
    ------------   -----------------  -----------------  -----------------  -----------------
         O           -2.071271714740    -0.128297134789     0.000016033324    15.994914619570
         N            1.431030285260    -0.629560134789    -0.000026966676    14.003074004430
         C           -0.697002714740    -0.024125134789     0.000023033324    12.000000000000
         C            0.113562985260    -1.031329934789     0.000035133324    12.000000000000
         C            0.097623285260     1.148794865211    -0.000015966676    12.000000000000
         C            1.421580285260     0.738660865211    -0.000044966676    12.000000000000
         H           -0.073857714740    -2.179348134789     0.000061033324     1.007825032230
         H           -0.250261714740     2.174461865211    -0.000043966676     1.007825032230
         H            2.263396285260    -1.202205134789     0.000027033324     1.007825032230
         H            2.338914285260     1.310128865211    -0.000085966676     1.007825032230
         H           -2.430821714740     0.773970865211     0.000195033324     1.007825032230

  Basis Set: AUG-CC-PVTZ
    Blend: AUG-CC-PVTZ
  Basis Set: (AUG-CC-PVTZ AUX)
    Blend: AUG-CC-PVTZ-JKFIT
	 Reference Energy          =    -283.7566003608603751 [Eh]
	 Singles Energy            =      -0.0000000000000000 [Eh]
	 Same-Spin Energy          =      -0.2983191477288565 [Eh]
	 Opposite-Spin Energy      =      -0.9089525848045267 [Eh]
	 Correlation Energy        =      -1.2072717325333833 [Eh]
	 Total Energy              =    -284.9638720933937748 [Eh]

	 ================> DF-SCS-MP2 Energies <==================
	-----------------------------------------------------------
	 SCS Same-Spin Scale       =       0.3333333333333333 [-]
	 SCS Opposite-Spin Scale   =       1.2000000000000000 [-]
	 SCS Same-Spin Energy      =      -0.0994397159096188 [Eh]
	 SCS Opposite-Spin Energy  =      -1.0907431017654319 [Eh]
	 SCS Correlation Energy    =      -1.1901828176750506 [Eh]
	 SCS Total Energy          =    -284.9467831785354406 [Eh]
	-----------------------------------------------------------

  Dipole Moment: [D]
     X:     1.8360      Y:     0.3631      Z:     0.0003     Total:     1.8716

*** Psi4 exiting successfully. Buy a developer a beer!
