                               Psi4 1.3.2 release

  ==> Input File <==

--------------------------------------------------------------------------
#psi4
#
memory 32 gb

molecule  {
0 1
  O       -2.0961900    -0.1258010     0.0000130
  N        1.4061120    -0.6270640    -0.0000300
  C       -0.7219210    -0.0216290     0.0000200
  C        0.1389168    -1.1048983     0.0000414
  C        0.0727050     1.1512910    -0.0000190
  C        1.3966620     0.7411570    -0.0000480
  H       -0.0987760    -2.1768520     0.0000580
  H       -0.2751800     2.1769580    -0.0000470
  H        2.2384780    -1.1997090     0.0000240
  H        2.3139960     1.3126250    -0.0000890
  H       -2.4557400     0.7764670     0.0001920
units angstrom
no_reorient  #important for SAPT in psi4, default
symmetry c1  #important for SAPT in psi4, default
}

set PROPERTIES_ORIGIN ["COM"]
properties('MP2/aug-cc-pvtz', properties = ['dipole'])
--------------------------------------------------------------------------

    Molecular point group: c1
  Charge       = 0
  Multiplicity = 1
  Basis Set: AUG-CC-PVTZ
    Blend: AUG-CC-PVTZ
  Basis Set: (AUG-CC-PVTZ AUX)
    Blend: AUG-CC-PVTZ-JKFIT

    Orbital Energies [Eh]
    ---------------------

    Doubly Occupied:

       1A    -20.578375     2A    -15.610227     3A    -11.274617
       4A    -11.261473     5A    -11.243300     6A    -11.216077
       7A     -1.382553     8A     -1.295987     9A     -1.039789
      10A     -0.977175    11A     -0.801825    12A     -0.783964
      13A     -0.740949    14A     -0.654410    15A     -0.614892
      16A     -0.594947    17A     -0.585482    18A     -0.566953
      19A     -0.536902    20A     -0.508858    21A     -0.338801
      22A     -0.287769

  @DF-RHF Final Energy:  -283.76686122782991

   => Energetics <=

    Nuclear Repulsion Energy =            222.2628130207258721
    One-Electron Energy =                -826.2687042382503932
    Two-Electron Energy =                 320.2390299896946431
    Total Energy =                       -283.7668612278299065
  Basis Set: (AUG-CC-PVTZ AUX)
    Blend: AUG-CC-PVTZ-RI
    Molecular point group: c1

    Geometry (in Angstrom), charge = 0, multiplicity = 1:

       Center              X                  Y                   Z               Mass
    ------------   -----------------  -----------------  -----------------  -----------------
         O           -2.078536721584    -0.117304772960     0.000014689347    15.994914619570
         N            1.423765278416    -0.618567772960    -0.000028310653    14.003074004430
         C           -0.704267721584    -0.013132772960     0.000021689347    12.000000000000
         C            0.156570078416    -1.096402072960     0.000043089347    12.000000000000
         C            0.090358278416     1.159787227040    -0.000017310653    12.000000000000
         C            1.414315278416     0.749653227040    -0.000046310653    12.000000000000
         H           -0.081122721584    -2.168355772960     0.000059689347     1.007825032230
         H           -0.257526721584     2.185454227040    -0.000045310653     1.007825032230
         H            2.256131278416    -1.191212772960     0.000025689347     1.007825032230
         H            2.331649278416     1.321121227040    -0.000087310653     1.007825032230
         H           -2.438086721584     0.784963227040     0.000193689347     1.007825032230

  Basis Set: AUG-CC-PVTZ
    Blend: AUG-CC-PVTZ
  Basis Set: (AUG-CC-PVTZ AUX)
    Blend: AUG-CC-PVTZ-JKFIT
	 Reference Energy          =    -283.7668612278299065 [Eh]
	 Singles Energy            =      -0.0000000000000000 [Eh]
	 Same-Spin Energy          =      -0.2995219444948161 [Eh]
	 Opposite-Spin Energy      =      -0.9103855796993089 [Eh]
	 Correlation Energy        =      -1.2099075241941248 [Eh]
	 Total Energy              =    -284.9767687520240429 [Eh]

	 ================> DF-SCS-MP2 Energies <==================
	-----------------------------------------------------------
	 SCS Same-Spin Scale       =       0.3333333333333333 [-]
	 SCS Opposite-Spin Scale   =       1.2000000000000000 [-]
	 SCS Same-Spin Energy      =      -0.0998406481649387 [Eh]
	 SCS Opposite-Spin Energy  =      -1.0924626956391705 [Eh]
	 SCS Correlation Energy    =      -1.1923033438041093 [Eh]
	 SCS Total Energy          =    -284.9591645716340054 [Eh]
	-----------------------------------------------------------

  Dipole Moment: [D]
     X:     1.8339      Y:     0.3490      Z:     0.0003     Total:     1.8668

*** Psi4 exiting successfully. Buy a developer a beer!
