                               Psi4 1.3.2 release

  ==> Input File <==

--------------------------------------------------------------------------
#psi4
#
memory 32 gb

molecule  {
0 1
  O       -2.0961900    -0.1258010     0.0000130
  N        1.3973174    -0.6046912    -0.0000296
  C       -0.7219210    -0.0216290     0.0000200
  C        0.1198800    -1.1197570     0.0000420
  C        0.0727050     1.1512910    -0.0000190
  C        1.3966620     0.7411570    -0.0000480
  H       -0.0987760    -2.1768520     0.0000580
  H       -0.2751800     2.1769580    -0.0000470
  H        2.2384780    -1.1997090     0.0000240
  H        2.3139960     1.3126250    -0.0000890
  H       -2.4557400     0.7764670     0.0001920
units angstrom
no_reorient  #important for SAPT in psi4, default
symmetry c1  #important for SAPT in psi4, default
}

set PROPERTIES_ORIGIN ["COM"]
properties('MP2/aug-cc-pvtz', properties = ['dipole'])
--------------------------------------------------------------------------

    Molecular point group: c1
  Charge       = 0
  Multiplicity = 1
  Basis Set: AUG-CC-PVTZ
    Blend: AUG-CC-PVTZ
  Basis Set: (AUG-CC-PVTZ AUX)
    Blend: AUG-CC-PVTZ-JKFIT

    Orbital Energies [Eh]
    ---------------------

    Doubly Occupied:

       1A    -20.577941     2A    -15.611347     3A    -11.276182
       4A    -11.262003     5A    -11.241186     6A    -11.213462
       7A     -1.382500     8A     -1.294741     9A     -1.035124
      10A     -0.980518    11A     -0.800045    12A     -0.779876
      13A     -0.744238    14A     -0.652457    15A     -0.607284
      16A     -0.594517    17A     -0.592938    18A     -0.567388
      19A     -0.536733    20A     -0.509932    21A     -0.335301
      22A     -0.290369

  @DF-RHF Final Energy:  -283.76642835604326

   => Energetics <=

    Nuclear Repulsion Energy =            222.3402393568327682
    One-Electron Energy =                -826.4411727269347239
    Two-Electron Energy =                 320.3345050140587205
    Total Energy =                       -283.7664283560432636
  Basis Set: (AUG-CC-PVTZ AUX)
    Blend: AUG-CC-PVTZ-RI
    Molecular point group: c1

    Geometry (in Angstrom), charge = 0, multiplicity = 1:

       Center              X                  Y                   Z               Mass
    ------------   -----------------  -----------------  -----------------  -----------------
         O           -2.074302554251    -0.118930354196     0.000014535184    15.994914619570
         N            1.419204845749    -0.597820554196    -0.000028064816    14.003074004430
         C           -0.700033554251    -0.014758354196     0.000021535184    12.000000000000
         C            0.141767445749    -1.112886354196     0.000043535184    12.000000000000
         C            0.094592445749     1.158161645804    -0.000017464816    12.000000000000
         C            1.418549445749     0.748027645804    -0.000046464816    12.000000000000
         H           -0.076888554251    -2.169981354196     0.000059535184     1.007825032230
         H           -0.253292554251     2.183828645804    -0.000045464816     1.007825032230
         H            2.260365445749    -1.192838354196     0.000025535184     1.007825032230
         H            2.335883445749     1.319495645804    -0.000087464816     1.007825032230
         H           -2.433852554251     0.783337645804     0.000193535184     1.007825032230

  Basis Set: AUG-CC-PVTZ
    Blend: AUG-CC-PVTZ
  Basis Set: (AUG-CC-PVTZ AUX)
    Blend: AUG-CC-PVTZ-JKFIT
	 Reference Energy          =    -283.7664283560432636 [Eh]
	 Singles Energy            =      -0.0000000000000000 [Eh]
	 Same-Spin Energy          =      -0.2996128269641264 [Eh]
	 Opposite-Spin Energy      =      -0.9105543421257938 [Eh]
	 Correlation Energy        =      -1.2101671690899203 [Eh]
	 Total Energy              =    -284.9765955251331775 [Eh]

	 ================> DF-SCS-MP2 Energies <==================
	-----------------------------------------------------------
	 SCS Same-Spin Scale       =       0.3333333333333333 [-]
	 SCS Opposite-Spin Scale   =       1.2000000000000000 [-]
	 SCS Same-Spin Energy      =      -0.0998709423213755 [Eh]
	 SCS Opposite-Spin Energy  =      -1.0926652105509524 [Eh]
	 SCS Correlation Energy    =      -1.1925361528723279 [Eh]
	 SCS Total Energy          =    -284.9589645089155852 [Eh]
	-----------------------------------------------------------

  Dipole Moment: [D]
     X:     1.8742      Y:     0.3276      Z:     0.0003     Total:     1.9026

*** Psi4 exiting successfully. Buy a developer a beer!
