                               Psi4 1.4a3.dev225

  ==> Input File <==

--------------------------------------------------------------------------
#psi4
#
memory 32 gb

molecule  {
0 1
  O       -2.0961900    -0.1258010     0.0000130
  N        1.4061120    -0.6270640    -0.0000300
  C       -0.7019782    -0.0201173     0.0000201
  C        0.1198800    -1.1197570     0.0000420
  C        0.0727050     1.1512910    -0.0000190
  C        1.3966620     0.7411570    -0.0000480
  H       -0.0987760    -2.1768520     0.0000580
  H       -0.2751800     2.1769580    -0.0000470
  H        2.2384780    -1.1997090     0.0000240
  H        2.3139960     1.3126250    -0.0000890
  H       -2.4557400     0.7764670     0.0001920
units angstrom
no_reorient  #important for SAPT in psi4, default
symmetry c1  #important for SAPT in psi4, default
}

set PROPERTIES_ORIGIN ["COM"]
properties('MP2/aug-cc-pvtz', properties = ['dipole'])
--------------------------------------------------------------------------

    Molecular point group: c1
  Charge       = 0
  Multiplicity = 1
  Basis Set: AUG-CC-PVTZ
    Blend: AUG-CC-PVTZ
  Basis Set: (AUG-CC-PVTZ AUX)
    Blend: AUG-CC-PVTZ-JKFIT

    Orbital Energies [Eh]
    ---------------------

    Doubly Occupied:

       1A    -20.575324     2A    -15.609981     3A    -11.274536
       4A    -11.264381     5A    -11.242744     6A    -11.215745
       7A     -1.373502     8A     -1.291109     9A     -1.041793
      10A     -0.979479    11A     -0.803158    12A     -0.777602
      13A     -0.744282    14A     -0.649027    15A     -0.608532
      16A     -0.591754    17A     -0.588383    18A     -0.569922
      19A     -0.531684    20A     -0.514552    21A     -0.340184
      22A     -0.291657

  @DF-RHF Final Energy:  -283.76671362428624

   => Energetics <=

    Nuclear Repulsion Energy =            222.0482513944264156
    One-Electron Energy =                -825.8712692390779466
    Two-Electron Energy =                 320.0563042203652913
    Total Energy =                       -283.7667136242862398
  Basis Set: (AUG-CC-PVTZ AUX)
    Blend: AUG-CC-PVTZ-RI
    Molecular point group: c1

    Geometry (in Angstrom), charge = 0, multiplicity = 1:

       Center              X                  Y                   Z               Mass
    ------------   -----------------  -----------------  -----------------  -----------------
         O           -2.078667650990    -0.115375948694     0.000014588187    15.994914619570
         N            1.423634349010    -0.616638948694    -0.000028411813    14.003074004430
         C           -0.684455850990    -0.009692248694     0.000021688187    12.000000000000
         C            0.137402349010    -1.109331948694     0.000043588187    12.000000000000
         C            0.090227349010     1.161716051306    -0.000017411813    12.000000000000
         C            1.414184349010     0.751582051306    -0.000046411813    12.000000000000
         H           -0.081253650990    -2.166426948694     0.000059588187     1.007825032230
         H           -0.257657650990     2.187383051306    -0.000045411813     1.007825032230
         H            2.256000349010    -1.189283948694     0.000025588187     1.007825032230
         H            2.331518349010     1.323050051306    -0.000087411813     1.007825032230
         H           -2.438217650990     0.786892051306     0.000193588187     1.007825032230

  Basis Set: AUG-CC-PVTZ
    Blend: AUG-CC-PVTZ
  Basis Set: (AUG-CC-PVTZ AUX)
    Blend: AUG-CC-PVTZ-JKFIT
	 Reference Energy          =    -283.7667136242862398 [Eh]
	 Singles Energy            =      -0.0000000000000000 [Eh]
	 Same-Spin Energy          =      -0.2994117371034873 [Eh]
	 Opposite-Spin Energy      =      -0.9107474535876381 [Eh]
	 Correlation Energy        =      -1.2101591906911255 [Eh]
	 Total Energy              =    -284.9768728149773551 [Eh]

	 ================> DF-SCS-MP2 Energies <==================
	-----------------------------------------------------------
	 SCS Same-Spin Scale       =       0.3333333333333333 [-]
	 SCS Opposite-Spin Scale   =       1.2000000000000000 [-]
	 SCS Same-Spin Energy      =      -0.0998039123678291 [Eh]
	 SCS Opposite-Spin Energy  =      -1.0928969443051657 [Eh]
	 SCS Correlation Energy    =      -1.1927008566729949 [Eh]
	 SCS Total Energy          =    -284.9594144809592535 [Eh]
	-----------------------------------------------------------

  Dipole Moment: [D]
     X:     1.9356      Y:     0.3731      Z:     0.0003     Total:     1.9712

*** Psi4 exiting successfully. Buy a developer a beer!
