                               Psi4 1.3.2 release

  ==> Input File <==

--------------------------------------------------------------------------
#psi4
#
memory 32 gb

molecule  {
0 1
  O       -2.0961900    -0.1258010     0.0000130
  N        1.4061120    -0.6270640    -0.0000300
  C       -0.5224931    -0.0065120     0.0000210
  C        0.1198800    -1.1197570     0.0000420
  C        0.0727050     1.1512910    -0.0000190
  C        1.3966620     0.7411570    -0.0000480
  H       -0.0987760    -2.1768520     0.0000580
  H       -0.2751800     2.1769580    -0.0000470
  H        2.2384780    -1.1997090     0.0000240
  H        2.3139960     1.3126250    -0.0000890
  H       -2.4557400     0.7764670     0.0001920
units angstrom
no_reorient  #important for SAPT in psi4, default
symmetry c1  #important for SAPT in psi4, default
}

set PROPERTIES_ORIGIN ["COM"]
properties('MP2/aug-cc-pvtz', properties = ['dipole'])
--------------------------------------------------------------------------

    Molecular point group: c1
  Charge       = 0
  Multiplicity = 1
  Basis Set: AUG-CC-PVTZ
    Blend: AUG-CC-PVTZ
  Basis Set: (AUG-CC-PVTZ AUX)
    Blend: AUG-CC-PVTZ-JKFIT

    Orbital Energies [Eh]
    ---------------------

    Doubly Occupied:

       1A    -20.545826     2A    -15.616600     3A    -11.272483
       4A    -11.264666     5A    -11.242080     6A    -11.214286
       7A     -1.329479     8A     -1.290219     9A     -1.072753
      10A     -1.000478    11A     -0.821825    12A     -0.762736
      13A     -0.745784    14A     -0.622387    15A     -0.606811
      16A     -0.602131    17A     -0.601194    18A     -0.575294
      19A     -0.494363    20A     -0.492502    21A     -0.363974
      22A     -0.309293

  @DF-RHF Final Energy:  -283.71318116693323

   => Energetics <=

    Nuclear Repulsion Energy =            223.5686924635819537
    One-Electron Energy =                -828.8694195887460410
    Two-Electron Energy =                 321.5875459582308054
    Total Energy =                       -283.7131811669332251
  Basis Set: (AUG-CC-PVTZ AUX)
    Blend: AUG-CC-PVTZ-RI
    Molecular point group: c1

    Geometry (in Angstrom), charge = 0, multiplicity = 1:

       Center              X                  Y                   Z               Mass
    ------------   -----------------  -----------------  -----------------  -----------------
         O           -2.104605705696    -0.117342100847     0.000014458125    15.994914619570
         N            1.397696294304    -0.618605100847    -0.000028541875    14.003074004430
         C           -0.530908805696     0.001946899153     0.000022458125    12.000000000000
         C            0.111464294304    -1.111298100847     0.000043458125    12.000000000000
         C            0.064289294304     1.159749899153    -0.000017541875    12.000000000000
         C            1.388246294304     0.749615899153    -0.000046541875    12.000000000000
         H           -0.107191705696    -2.168393100847     0.000059458125     1.007825032230
         H           -0.283595705696     2.185416899153    -0.000045541875     1.007825032230
         H            2.230062294304    -1.191250100847     0.000025458125     1.007825032230
         H            2.305580294304     1.321083899153    -0.000087541875     1.007825032230
         H           -2.464155705696     0.784925899153     0.000193458125     1.007825032230

  Basis Set: AUG-CC-PVTZ
    Blend: AUG-CC-PVTZ
  Basis Set: (AUG-CC-PVTZ AUX)
    Blend: AUG-CC-PVTZ-JKFIT
	 Reference Energy          =    -283.7131811669332251 [Eh]
	 Singles Energy            =      -0.0000000000000000 [Eh]
	 Same-Spin Energy          =      -0.3010372137181941 [Eh]
	 Opposite-Spin Energy      =      -0.9144389614339261 [Eh]
	 Correlation Energy        =      -1.2154761751521201 [Eh]
	 Total Energy              =    -284.9286573420853301 [Eh]

	 ================> DF-SCS-MP2 Energies <==================
	-----------------------------------------------------------
	 SCS Same-Spin Scale       =       0.3333333333333333 [-]
	 SCS Opposite-Spin Scale   =       1.2000000000000000 [-]
	 SCS Same-Spin Energy      =      -0.1003457379060647 [Eh]
	 SCS Opposite-Spin Energy  =      -1.0973267537207112 [Eh]
	 SCS Correlation Energy    =      -1.1976724916267760 [Eh]
	 SCS Total Energy          =    -284.9108536585600291 [Eh]
	-----------------------------------------------------------

  Dipole Moment: [D]
     X:     2.9286      Y:     0.3793      Z:     0.0003     Total:     2.9531

*** Psi4 exiting successfully. Buy a developer a beer!
