                               Psi4 1.3.2 release

  ==> Input File <==

--------------------------------------------------------------------------
#psi4
#
memory 32 gb

molecule  {
0 1
  O       -2.0961900    -0.1258010     0.0000130
  N        1.4061120    -0.6270640    -0.0000300
  C       -0.9213489    -0.0367460     0.0000190
  C        0.1198800    -1.1197570     0.0000420
  C        0.0727050     1.1512910    -0.0000190
  C        1.3966620     0.7411570    -0.0000480
  H       -0.0987760    -2.1768520     0.0000580
  H       -0.2751800     2.1769580    -0.0000470
  H        2.2384780    -1.1997090     0.0000240
  H        2.3139960     1.3126250    -0.0000890
  H       -2.4557400     0.7764670     0.0001920
units angstrom
no_reorient  #important for SAPT in psi4, default
symmetry c1  #important for SAPT in psi4, default
}

set PROPERTIES_ORIGIN ["COM"]
properties('MP2/aug-cc-pvtz', properties = ['dipole'])
--------------------------------------------------------------------------

    Molecular point group: c1
  Charge       = 0
  Multiplicity = 1
  Basis Set: AUG-CC-PVTZ
    Blend: AUG-CC-PVTZ
  Basis Set: (AUG-CC-PVTZ AUX)
    Blend: AUG-CC-PVTZ-JKFIT

    Orbital Energies [Eh]
    ---------------------

    Doubly Occupied:

       1A    -20.616205     2A    -15.600161     3A    -11.303075
       4A    -11.257676     5A    -11.237226     6A    -11.217848
       7A     -1.511492     8A     -1.269610     9A     -1.004389
      10A     -0.959063    11A     -0.848615    12A     -0.788356
      13A     -0.729633    14A     -0.681022    15A     -0.660471
      16A     -0.650008    17A     -0.572071    18A     -0.564308
      19A     -0.542147    20A     -0.450899    21A     -0.317607
      22A     -0.256879

  @DF-RHF Final Energy:  -283.69951424345697

   => Energetics <=

    Nuclear Repulsion Energy =            221.3488925966118188
    One-Electron Energy =                -824.0192970757092326
    Two-Electron Energy =                 318.9708902356404678
    Total Energy =                       -283.6995142434569743
  Basis Set: (AUG-CC-PVTZ AUX)
    Blend: AUG-CC-PVTZ-RI
    Molecular point group: c1

    Geometry (in Angstrom), charge = 0, multiplicity = 1:

       Center              X                  Y                   Z               Mass
    ------------   -----------------  -----------------  -----------------  -----------------
         O           -2.046965580916    -0.112972873841     0.000014747152    15.994914619570
         N            1.455336419084    -0.614235873841    -0.000028252848    14.003074004430
         C           -0.872124480916    -0.023917873841     0.000020747152    12.000000000000
         C            0.169104419084    -1.106928873841     0.000043747152    12.000000000000
         C            0.121929419084     1.164119126159    -0.000017252848    12.000000000000
         C            1.445886419084     0.753985126159    -0.000046252848    12.000000000000
         H           -0.049551580916    -2.164023873841     0.000059747152     1.007825032230
         H           -0.225955580916     2.189786126159    -0.000045252848     1.007825032230
         H            2.287702419084    -1.186880873841     0.000025747152     1.007825032230
         H            2.363220419084     1.325453126159    -0.000087252848     1.007825032230
         H           -2.406515580916     0.789295126159     0.000193747152     1.007825032230

  Basis Set: AUG-CC-PVTZ
    Blend: AUG-CC-PVTZ
  Basis Set: (AUG-CC-PVTZ AUX)
    Blend: AUG-CC-PVTZ-JKFIT
	 Reference Energy          =    -283.6995142434569743 [Eh]
	 Singles Energy            =      -0.0000000000000000 [Eh]
	 Same-Spin Energy          =      -0.3009841906259209 [Eh]
	 Opposite-Spin Energy      =      -0.9119326456344898 [Eh]
	 Correlation Energy        =      -1.2129168362604106 [Eh]
	 Total Energy              =    -284.9124310797174076 [Eh]

	 ================> DF-SCS-MP2 Energies <==================
	-----------------------------------------------------------
	 SCS Same-Spin Scale       =       0.3333333333333333 [-]
	 SCS Opposite-Spin Scale   =       1.2000000000000000 [-]
	 SCS Same-Spin Energy      =      -0.1003280635419736 [Eh]
	 SCS Opposite-Spin Energy  =      -1.0943191747613878 [Eh]
	 SCS Correlation Energy    =      -1.1946472383033615 [Eh]
	 SCS Total Energy          =    -284.8941614817603636 [Eh]
	-----------------------------------------------------------

  Dipole Moment: [D]
     X:     0.3790      Y:     0.4015      Z:     0.0003     Total:     0.5521

*** Psi4 exiting successfully. Buy a developer a beer!
