                               Psi4 1.3.2 release

  ==> Input File <==

--------------------------------------------------------------------------
#psi4
#
memory 32 gb

molecule  {
0 1
  O       -2.0961900    -0.1258010     0.0000130
  N        1.4061120    -0.6270640    -0.0000300
  C       -0.7263937     0.0262688     0.0000294
  C        0.1198800    -1.1197570     0.0000420
  C        0.0727050     1.1512910    -0.0000190
  C        1.3966620     0.7411570    -0.0000480
  H       -0.0987760    -2.1768520     0.0000580
  H       -0.2751800     2.1769580    -0.0000470
  H        2.2384780    -1.1997090     0.0000240
  H        2.3139960     1.3126250    -0.0000890
  H       -2.4557400     0.7764670     0.0001920
units angstrom
no_reorient  #important for SAPT in psi4, default
symmetry c1  #important for SAPT in psi4, default
}

set PROPERTIES_ORIGIN ["COM"]
properties('MP2/aug-cc-pvtz', properties = ['dipole'])
--------------------------------------------------------------------------

    Molecular point group: c1
  Charge       = 0
  Multiplicity = 1
  Basis Set: AUG-CC-PVTZ
    Blend: AUG-CC-PVTZ
  Basis Set: (AUG-CC-PVTZ AUX)
    Blend: AUG-CC-PVTZ-JKFIT

    Orbital Energies [Eh]
    ---------------------

    Doubly Occupied:

       1A    -20.580325     2A    -15.613545     3A    -11.277542
       4A    -11.261721     5A    -11.245601     6A    -11.214362
       7A     -1.385036     8A     -1.289351     9A     -1.044607
      10A     -0.970281    11A     -0.806062    12A     -0.780790
      13A     -0.742706    14A     -0.652377    15A     -0.612361
      16A     -0.592834    17A     -0.587331    18A     -0.564737
      19A     -0.535829    20A     -0.516255    21A     -0.343605
      22A     -0.280815

  @DF-RHF Final Energy:  -283.76186107321053

   => Energetics <=

    Nuclear Repulsion Energy =            221.8687429637591322
    One-Electron Energy =                -825.4650585633886521
    Two-Electron Energy =                 319.8344545264189946
    Total Energy =                       -283.7618610732105253
  Basis Set: (AUG-CC-PVTZ AUX)
    Blend: AUG-CC-PVTZ-RI
    Molecular point group: c1

    Geometry (in Angstrom), charge = 0, multiplicity = 1:

       Center              X                  Y                   Z               Mass
    ------------   -----------------  -----------------  -----------------  -----------------
         O           -2.075139276910    -0.122079375327     0.000013244210    15.994914619570
         N            1.427162723090    -0.623342375327    -0.000029755790    14.003074004430
         C           -0.705342976910     0.029990424673     0.000029644210    12.000000000000
         C            0.140930723090    -1.116035375327     0.000042244210    12.000000000000
         C            0.093755723090     1.155012624673    -0.000018755790    12.000000000000
         C            1.417712723090     0.744878624673    -0.000047755790    12.000000000000
         H           -0.077725276910    -2.173130375327     0.000058244210     1.007825032230
         H           -0.254129276910     2.180679624673    -0.000046755790     1.007825032230
         H            2.259528723090    -1.195987375327     0.000024244210     1.007825032230
         H            2.335046723090     1.316346624673    -0.000088755790     1.007825032230
         H           -2.434689276910     0.780188624673     0.000192244210     1.007825032230

  Basis Set: AUG-CC-PVTZ
    Blend: AUG-CC-PVTZ
  Basis Set: (AUG-CC-PVTZ AUX)
    Blend: AUG-CC-PVTZ-JKFIT
	 Reference Energy          =    -283.7618610732105253 [Eh]
	 Singles Energy            =      -0.0000000000000000 [Eh]
	 Same-Spin Energy          =      -0.3005931583078724 [Eh]
	 Opposite-Spin Energy      =      -0.9123331621484805 [Eh]
	 Correlation Energy        =      -1.2129263204563530 [Eh]
	 Total Energy              =    -284.9747873936668725 [Eh]

	 ================> DF-SCS-MP2 Energies <==================
	-----------------------------------------------------------
	 SCS Same-Spin Scale       =       0.3333333333333333 [-]
	 SCS Opposite-Spin Scale   =       1.2000000000000000 [-]
	 SCS Same-Spin Energy      =      -0.1001977194359575 [Eh]
	 SCS Opposite-Spin Energy  =      -1.0947997945781764 [Eh]
	 SCS Correlation Energy    =      -1.1949975140141338 [Eh]
	 SCS Total Energy          =    -284.9568585872246445 [Eh]
	-----------------------------------------------------------

  Dipole Moment: [D]
     X:     1.7918      Y:     0.4029      Z:     0.0003     Total:     1.8366

*** Psi4 exiting successfully. Buy a developer a beer!
