                               Psi4 1.3.2 release

  ==> Input File <==

--------------------------------------------------------------------------
#psi4
#
memory 32 gb

molecule  {
0 1
  O       -2.0961900    -0.1258010     0.0000130
  N        1.4061120    -0.6270640    -0.0000300
  C       -0.7219210    -0.0216290     0.0000200
  C        0.1573817    -1.2082798     0.0000413
  C        0.0727050     1.1512910    -0.0000190
  C        1.3966620     0.7411570    -0.0000480
  H       -0.0987760    -2.1768520     0.0000580
  H       -0.2751800     2.1769580    -0.0000470
  H        2.2384780    -1.1997090     0.0000240
  H        2.3139960     1.3126250    -0.0000890
  H       -2.4557400     0.7764670     0.0001920
units angstrom
no_reorient  #important for SAPT in psi4, default
symmetry c1  #important for SAPT in psi4, default
}

set PROPERTIES_ORIGIN ["COM"]
properties('MP2/aug-cc-pvtz', properties = ['dipole'])
--------------------------------------------------------------------------

    Molecular point group: c1
  Charge       = 0
  Multiplicity = 1
  Basis Set: AUG-CC-PVTZ
    Blend: AUG-CC-PVTZ
  Basis Set: (AUG-CC-PVTZ AUX)
    Blend: AUG-CC-PVTZ-JKFIT

    Orbital Energies [Eh]
    ---------------------

    Doubly Occupied:

       1A    -20.579011     2A    -15.615759     3A    -11.287669
       4A    -11.264810     5A    -11.246089     6A    -11.218148
       7A     -1.382550     8A     -1.286596     9A     -1.034514
      10A     -0.972329    11A     -0.801276    12A     -0.782757
      13A     -0.753538    14A     -0.656688    15A     -0.608861
      16A     -0.598658    17A     -0.588148    18A     -0.567920
      19A     -0.535695    20A     -0.504869    21A     -0.339610
      22A     -0.277025

  @DF-RHF Final Energy:  -283.74956523905780

   => Energetics <=

    Nuclear Repulsion Energy =            220.4366050035976343
    One-Electron Energy =                -822.5672974359387126
    Two-Electron Energy =                 318.3811271932833051
    Total Energy =                       -283.7495652390578016
  Basis Set: (AUG-CC-PVTZ AUX)
    Blend: AUG-CC-PVTZ-RI
    Molecular point group: c1

    Geometry (in Angstrom), charge = 0, multiplicity = 1:

       Center              X                  Y                   Z               Mass
    ------------   -----------------  -----------------  -----------------  -----------------
         O           -2.081205152481    -0.102364730569     0.000014703798    15.994914619570
         N            1.421096847519    -0.603627730569    -0.000028296202    14.003074004430
         C           -0.706936152481     0.001807269431     0.000021703798    12.000000000000
         C            0.172366547519    -1.184843530569     0.000043003798    12.000000000000
         C            0.087689847519     1.174727269431    -0.000017296202    12.000000000000
         C            1.411646847519     0.764593269431    -0.000046296202    12.000000000000
         H           -0.083791152481    -2.153415730569     0.000059703798     1.007825032230
         H           -0.260195152481     2.200394269431    -0.000045296202     1.007825032230
         H            2.253462847519    -1.176272730569     0.000025703798     1.007825032230
         H            2.328980847519     1.336061269431    -0.000087296202     1.007825032230
         H           -2.440755152481     0.799903269431     0.000193703798     1.007825032230

  Basis Set: AUG-CC-PVTZ
    Blend: AUG-CC-PVTZ
  Basis Set: (AUG-CC-PVTZ AUX)
    Blend: AUG-CC-PVTZ-JKFIT
	 Reference Energy          =    -283.7495652390578016 [Eh]
	 Singles Energy            =      -0.0000000000000000 [Eh]
	 Same-Spin Energy          =      -0.3009670810465276 [Eh]
	 Opposite-Spin Energy      =      -0.9136536955872954 [Eh]
	 Correlation Energy        =      -1.2146207766338231 [Eh]
	 Total Energy              =    -284.9641860156916096 [Eh]

	 ================> DF-SCS-MP2 Energies <==================
	-----------------------------------------------------------
	 SCS Same-Spin Scale       =       0.3333333333333333 [-]
	 SCS Opposite-Spin Scale   =       1.2000000000000000 [-]
	 SCS Same-Spin Energy      =      -0.1003223603488425 [Eh]
	 SCS Opposite-Spin Energy  =      -1.0963844347047544 [Eh]
	 SCS Correlation Energy    =      -1.1967067950535970 [Eh]
	 SCS Total Energy          =    -284.9462720341114164 [Eh]
	-----------------------------------------------------------

  Dipole Moment: [D]
     X:     1.8056      Y:     0.4311      Z:     0.0003     Total:     1.8563

*** Psi4 exiting successfully. Buy a developer a beer!
