                               Psi4 1.3.2 release

  ==> Input File <==

--------------------------------------------------------------------------
#psi4
#
memory 32 gb

molecule  {
0 1
  O       -2.0961900    -0.1258010     0.0000130
  N        1.3686103    -0.5385412    -0.0000329
  C       -0.7219210    -0.0216290     0.0000200
  C        0.1198800    -1.1197570     0.0000420
  C        0.0727050     1.1512910    -0.0000190
  C        1.3966620     0.7411570    -0.0000480
  H       -0.0987760    -2.1768520     0.0000580
  H       -0.2751800     2.1769580    -0.0000470
  H        2.2384780    -1.1997090     0.0000240
  H        2.3139960     1.3126250    -0.0000890
  H       -2.4557400     0.7764670     0.0001920
units angstrom
no_reorient  #important for SAPT in psi4, default
symmetry c1  #important for SAPT in psi4, default
}

set PROPERTIES_ORIGIN ["COM"]
properties('MP2/aug-cc-pvtz', properties = ['dipole'])
--------------------------------------------------------------------------

    Molecular point group: c1
  Charge       = 0
  Multiplicity = 1
  Basis Set: AUG-CC-PVTZ
    Blend: AUG-CC-PVTZ
  Basis Set: (AUG-CC-PVTZ AUX)
    Blend: AUG-CC-PVTZ-JKFIT

    Orbital Energies [Eh]
    ---------------------

    Doubly Occupied:

       1A    -20.576570     2A    -15.617461     3A    -11.275527
       4A    -11.256907     5A    -11.237025     6A    -11.205790
       7A     -1.381597     8A     -1.314211     9A     -1.026948
      10A     -0.990749    11A     -0.798996    12A     -0.770998
      13A     -0.748501    14A     -0.652922    15A     -0.609213
      16A     -0.601749    17A     -0.592313    18A     -0.560128
      19A     -0.541775    20A     -0.505183    21A     -0.328724
      22A     -0.293616

  @DF-RHF Final Energy:  -283.75203133759260

   => Energetics <=

    Nuclear Repulsion Energy =            223.6679444354953716
    One-Electron Energy =                -829.0661447652008746
    Two-Electron Energy =                 321.6461689921129619
    Total Energy =                       -283.7520313375925980
  Basis Set: (AUG-CC-PVTZ AUX)
    Blend: AUG-CC-PVTZ-RI
    Molecular point group: c1

    Geometry (in Angstrom), charge = 0, multiplicity = 1:

       Center              X                  Y                   Z               Mass
    ------------   -----------------  -----------------  -----------------  -----------------
         O           -2.069461494303    -0.130085647332     0.000015091684    15.994914619570
         N            1.395338805697    -0.542825847332    -0.000030808316    14.003074004430
         C           -0.695192494303    -0.025913647332     0.000022091684    12.000000000000
         C            0.146608505697    -1.124041647332     0.000044091684    12.000000000000
         C            0.099433505697     1.147006352668    -0.000016908316    12.000000000000
         C            1.423390505697     0.736872352668    -0.000045908316    12.000000000000
         H           -0.072047494303    -2.181136647332     0.000060091684     1.007825032230
         H           -0.248451494303     2.172673352668    -0.000044908316     1.007825032230
         H            2.265206505697    -1.203993647332     0.000026091684     1.007825032230
         H            2.340724505697     1.308340352668    -0.000086908316     1.007825032230
         H           -2.429011494303     0.772182352668     0.000194091684     1.007825032230

  Basis Set: AUG-CC-PVTZ
    Blend: AUG-CC-PVTZ
  Basis Set: (AUG-CC-PVTZ AUX)
    Blend: AUG-CC-PVTZ-JKFIT
	 Reference Energy          =    -283.7520313375925980 [Eh]
	 Singles Energy            =      -0.0000000000000000 [Eh]
	 Same-Spin Energy          =      -0.3003386997942620 [Eh]
	 Opposite-Spin Energy      =      -0.9108386588093482 [Eh]
	 Correlation Energy        =      -1.2111773586036101 [Eh]
	 Total Energy              =    -284.9632086961962045 [Eh]

	 ================> DF-SCS-MP2 Energies <==================
	-----------------------------------------------------------
	 SCS Same-Spin Scale       =       0.3333333333333333 [-]
	 SCS Opposite-Spin Scale   =       1.2000000000000000 [-]
	 SCS Same-Spin Energy      =      -0.1001128999314207 [Eh]
	 SCS Opposite-Spin Energy  =      -1.0930063905712177 [Eh]
	 SCS Correlation Energy    =      -1.1931192905026384 [Eh]
	 SCS Total Energy          =    -284.9451506280952344 [Eh]
	-----------------------------------------------------------

  Dipole Moment: [D]
     X:     2.0438      Y:     0.2047      Z:     0.0003     Total:     2.0540

*** Psi4 exiting successfully. Buy a developer a beer!
