                               Psi4 1.3.2 release

  ==> Input File <==

--------------------------------------------------------------------------
#psi4
#
memory 32 gb

molecule  {
0 1
  O       -2.0961900    -0.1258010     0.0000130
  N        1.4061120    -0.6270640    -0.0000300
  C       -0.6222071    -0.0140705     0.0000205
  C        0.1198800    -1.1197570     0.0000420
  C        0.0727050     1.1512910    -0.0000190
  C        1.3966620     0.7411570    -0.0000480
  H       -0.0987760    -2.1768520     0.0000580
  H       -0.2751800     2.1769580    -0.0000470
  H        2.2384780    -1.1997090     0.0000240
  H        2.3139960     1.3126250    -0.0000890
  H       -2.4557400     0.7764670     0.0001920
units angstrom
no_reorient  #important for SAPT in psi4, default
symmetry c1  #important for SAPT in psi4, default
}

set PROPERTIES_ORIGIN ["COM"]
properties('MP2/aug-cc-pvtz', properties = ['dipole'])
--------------------------------------------------------------------------

    Molecular point group: c1
  Charge       = 0
  Multiplicity = 1
  Basis Set: AUG-CC-PVTZ
    Blend: AUG-CC-PVTZ
  Basis Set: (AUG-CC-PVTZ AUX)
    Blend: AUG-CC-PVTZ-JKFIT

    Orbital Energies [Eh]
    ---------------------

    Doubly Occupied:

       1A    -20.562955     2A    -15.612707     3A    -11.268377
       4A    -11.267424     5A    -11.242398     6A    -11.214629
       7A     -1.342166     8A     -1.298042     9A     -1.055703
      10A     -0.988108    11A     -0.810791    12A     -0.764263
      13A     -0.749053    14A     -0.634533    15A     -0.602009
      16A     -0.592980    17A     -0.590992    18A     -0.575798
      19A     -0.516120    20A     -0.515494    21A     -0.350553
      22A     -0.300172

  @DF-RHF Final Energy:  -283.75298498623556

   => Energetics <=

    Nuclear Repulsion Energy =            222.6415419613085191
    One-Electron Energy =                -827.0785198297481884
    Two-Electron Energy =                 320.6839928822041657
    Total Energy =                       -283.7529849862355604
  Basis Set: (AUG-CC-PVTZ AUX)
    Blend: AUG-CC-PVTZ-RI
    Molecular point group: c1

    Geometry (in Angstrom), charge = 0, multiplicity = 1:

       Center              X                  Y                   Z               Mass
    ------------   -----------------  -----------------  -----------------  -----------------
         O           -2.090195667276    -0.116249794096     0.000014530382    15.994914619570
         N            1.412106332724    -0.617512794096    -0.000028469618    14.003074004430
         C           -0.616212767276    -0.004519294096     0.000022030382    12.000000000000
         C            0.125874332724    -1.110205794096     0.000043530382    12.000000000000
         C            0.078699332724     1.160842205904    -0.000017469618    12.000000000000
         C            1.402656332724     0.750708205904    -0.000046469618    12.000000000000
         H           -0.092781667276    -2.167300794096     0.000059530382     1.007825032230
         H           -0.269185667276     2.186509205904    -0.000045469618     1.007825032230
         H            2.244472332724    -1.190157794096     0.000025530382     1.007825032230
         H            2.319990332724     1.322176205904    -0.000087469618     1.007825032230
         H           -2.449745667276     0.786018205904     0.000193530382     1.007825032230

  Basis Set: AUG-CC-PVTZ
    Blend: AUG-CC-PVTZ
  Basis Set: (AUG-CC-PVTZ AUX)
    Blend: AUG-CC-PVTZ-JKFIT
	 Reference Energy          =    -283.7529849862355604 [Eh]
	 Singles Energy            =      -0.0000000000000000 [Eh]
	 Same-Spin Energy          =      -0.2997801595031456 [Eh]
	 Opposite-Spin Energy      =      -0.9118756414526613 [Eh]
	 Correlation Energy        =      -1.2116558009558069 [Eh]
	 Total Energy              =    -284.9646407871913425 [Eh]

	 ================> DF-SCS-MP2 Energies <==================
	-----------------------------------------------------------
	 SCS Same-Spin Scale       =       0.3333333333333333 [-]
	 SCS Opposite-Spin Scale   =       1.2000000000000000 [-]
	 SCS Same-Spin Energy      =      -0.0999267198343819 [Eh]
	 SCS Opposite-Spin Energy  =      -1.0942507697431936 [Eh]
	 SCS Correlation Energy    =      -1.1941774895775754 [Eh]
	 SCS Total Energy          =    -284.9471624758131156 [Eh]
	-----------------------------------------------------------

  Dipole Moment: [D]
     X:     2.3848      Y:     0.3701      Z:     0.0003     Total:     2.4134

*** Psi4 exiting successfully. Buy a developer a beer!
