                               Psi4 1.3.2 release

  ==> Input File <==

--------------------------------------------------------------------------
#psi4
#
memory 32 gb

molecule  {
0 1
  O       -2.0961900    -0.1258010     0.0000130
  N        1.4505663    -0.7642109    -0.0000250
  C       -0.7219210    -0.0216290     0.0000200
  C        0.1198800    -1.1197570     0.0000420
  C        0.0727050     1.1512910    -0.0000190
  C        1.3966620     0.7411570    -0.0000480
  H       -0.0987760    -2.1768520     0.0000580
  H       -0.2751800     2.1769580    -0.0000470
  H        2.2384780    -1.1997090     0.0000240
  H        2.3139960     1.3126250    -0.0000890
  H       -2.4557400     0.7764670     0.0001920
units angstrom
no_reorient  #important for SAPT in psi4, default
symmetry c1  #important for SAPT in psi4, default
}

set PROPERTIES_ORIGIN ["COM"]
properties('MP2/aug-cc-pvtz', properties = ['dipole'])
--------------------------------------------------------------------------

    Molecular point group: c1
  Charge       = 0
  Multiplicity = 1
  Basis Set: AUG-CC-PVTZ
    Blend: AUG-CC-PVTZ
  Basis Set: (AUG-CC-PVTZ AUX)
    Blend: AUG-CC-PVTZ-JKFIT

    Orbital Energies [Eh]
    ---------------------

    Doubly Occupied:

       1A    -20.581449     2A    -15.597133     3A    -11.278716
       4A    -11.273393     5A    -11.253455     6A    -11.231192
       7A     -1.385601     8A     -1.264573     9A     -1.058316
      10A     -0.965708    11A     -0.821384    12A     -0.784458
      13A     -0.734364    14A     -0.657593    15A     -0.635484
      16A     -0.587822    17A     -0.577579    18A     -0.547666
      19A     -0.524078    20A     -0.518068    21A     -0.353041
      22A     -0.283084

  @DF-RHF Final Energy:  -283.73608012904566

   => Energetics <=

    Nuclear Repulsion Energy =            219.6888633338244290
    One-Electron Energy =                -821.0215725491713101
    Two-Electron Energy =                 317.5966290863012205
    Total Energy =                       -283.7360801290456607
  Basis Set: (AUG-CC-PVTZ AUX)
    Blend: AUG-CC-PVTZ-RI
    Molecular point group: c1

    Geometry (in Angstrom), charge = 0, multiplicity = 1:

       Center              X                  Y                   Z               Mass
    ------------   -----------------  -----------------  -----------------  -----------------
         O           -2.083282253248    -0.092029537652     0.000013759457    15.994914619570
         N            1.463474046752    -0.730439437652    -0.000024240543    14.003074004430
         C           -0.709013253248     0.012142462348     0.000020759457    12.000000000000
         C            0.132787746752    -1.085985537652     0.000042759457    12.000000000000
         C            0.085612746752     1.185062462348    -0.000018240543    12.000000000000
         C            1.409569746752     0.774928462348    -0.000047240543    12.000000000000
         H           -0.085868253248    -2.143080537652     0.000058759457     1.007825032230
         H           -0.262272253248     2.210729462348    -0.000046240543     1.007825032230
         H            2.251385746752    -1.165937537652     0.000024759457     1.007825032230
         H            2.326903746752     1.346396462348    -0.000088240543     1.007825032230
         H           -2.442832253248     0.810238462348     0.000192759457     1.007825032230

  Basis Set: AUG-CC-PVTZ
    Blend: AUG-CC-PVTZ
  Basis Set: (AUG-CC-PVTZ AUX)
    Blend: AUG-CC-PVTZ-JKFIT
	 Reference Energy          =    -283.7360801290456607 [Eh]
	 Singles Energy            =      -0.0000000000000000 [Eh]
	 Same-Spin Energy          =      -0.2987077158388443 [Eh]
	 Opposite-Spin Energy      =      -0.9125218740516321 [Eh]
	 Correlation Energy        =      -1.2112295898904764 [Eh]
	 Total Energy              =    -284.9473097189361397 [Eh]

	 ================> DF-SCS-MP2 Energies <==================
	-----------------------------------------------------------
	 SCS Same-Spin Scale       =       0.3333333333333333 [-]
	 SCS Opposite-Spin Scale   =       1.2000000000000000 [-]
	 SCS Same-Spin Energy      =      -0.0995692386129481 [Eh]
	 SCS Opposite-Spin Energy  =      -1.0950262488619584 [Eh]
	 SCS Correlation Energy    =      -1.1945954874749065 [Eh]
	 SCS Total Energy          =    -284.9306756165205456 [Eh]
	-----------------------------------------------------------

  Dipole Moment: [D]
     X:     1.4827      Y:     0.7006      Z:     0.0003     Total:     1.6399

*** Psi4 exiting successfully. Buy a developer a beer!
