                               Psi4 1.3.2 release

  ==> Input File <==

--------------------------------------------------------------------------
#psi4
#
memory 32 gb

molecule  {
0 1
  O       -2.0961900    -0.1258010     0.0000130
  N        1.4061120    -0.6270640    -0.0000300
  C       -0.7219210    -0.0216290     0.0000200
  C        0.0412279    -1.1758031     0.0000442
  C        0.0727050     1.1512910    -0.0000190
  C        1.3966620     0.7411570    -0.0000480
  H       -0.0987760    -2.1768520     0.0000580
  H       -0.2751800     2.1769580    -0.0000470
  H        2.2384780    -1.1997090     0.0000240
  H        2.3139960     1.3126250    -0.0000890
  H       -2.4557400     0.7764670     0.0001920
units angstrom
no_reorient  #important for SAPT in psi4, default
symmetry c1  #important for SAPT in psi4, default
}

set PROPERTIES_ORIGIN ["COM"]
properties('MP2/aug-cc-pvtz', properties = ['dipole'])
--------------------------------------------------------------------------

    Molecular point group: c1
  Charge       = 0
  Multiplicity = 1
  Basis Set: AUG-CC-PVTZ
    Blend: AUG-CC-PVTZ
  Basis Set: (AUG-CC-PVTZ AUX)
    Blend: AUG-CC-PVTZ-JKFIT

    Orbital Energies [Eh]
    ---------------------

    Doubly Occupied:

       1A    -20.578793     2A    -15.604666     3A    -11.284598
       4A    -11.272253     5A    -11.241823     6A    -11.216231
       7A     -1.384658     8A     -1.265823     9A     -1.033580
      10A     -0.978653    11A     -0.802205    12A     -0.779418
      13A     -0.747293    14A     -0.649596    15A     -0.613521
      16A     -0.587247    17A     -0.580466    18A     -0.572881
      19A     -0.526853    20A     -0.517931    21A     -0.334443
      22A     -0.294635

  @DF-RHF Final Energy:  -283.75491182190746

   => Energetics <=

    Nuclear Repulsion Energy =            220.6920961295817847
    One-Electron Energy =                -823.1588858546699612
    Two-Electron Energy =                 318.7118779031806639
    Total Energy =                       -283.7549118219074558
  Basis Set: (AUG-CC-PVTZ AUX)
    Blend: AUG-CC-PVTZ-RI
    Molecular point group: c1

    Geometry (in Angstrom), charge = 0, multiplicity = 1:

       Center              X                  Y                   Z               Mass
    ------------   -----------------  -----------------  -----------------  -----------------
         O           -2.064419337844    -0.107058058434     0.000014284708    15.994914619570
         N            1.437882662156    -0.608321058434    -0.000028715292    14.003074004430
         C           -0.690150337844    -0.002886058434     0.000021284708    12.000000000000
         C            0.072998562156    -1.157060158434     0.000045484708    12.000000000000
         C            0.104475662156     1.170033941566    -0.000017715292    12.000000000000
         C            1.428432662156     0.759899941566    -0.000046715292    12.000000000000
         H           -0.067005337844    -2.158109058434     0.000059284708     1.007825032230
         H           -0.243409337844     2.195700941566    -0.000045715292     1.007825032230
         H            2.270248662156    -1.180966058434     0.000025284708     1.007825032230
         H            2.345766662156     1.331367941566    -0.000087715292     1.007825032230
         H           -2.423969337844     0.795209941566     0.000193284708     1.007825032230

  Basis Set: AUG-CC-PVTZ
    Blend: AUG-CC-PVTZ
  Basis Set: (AUG-CC-PVTZ AUX)
    Blend: AUG-CC-PVTZ-JKFIT
	 Reference Energy          =    -283.7549118219074558 [Eh]
	 Singles Energy            =      -0.0000000000000000 [Eh]
	 Same-Spin Energy          =      -0.2990972362611463 [Eh]
	 Opposite-Spin Energy      =      -0.9118665684936912 [Eh]
	 Correlation Energy        =      -1.2109638047548374 [Eh]
	 Total Energy              =    -284.9658756266622959 [Eh]

	 ================> DF-SCS-MP2 Energies <==================
	-----------------------------------------------------------
	 SCS Same-Spin Scale       =       0.3333333333333333 [-]
	 SCS Opposite-Spin Scale   =       1.2000000000000000 [-]
	 SCS Same-Spin Energy      =      -0.0996990787537154 [Eh]
	 SCS Opposite-Spin Energy  =      -1.0942398821924293 [Eh]
	 SCS Correlation Energy    =      -1.1939389609461448 [Eh]
	 SCS Total Energy          =    -284.9488507828535830 [Eh]
	-----------------------------------------------------------

  Dipole Moment: [D]
     X:     1.7483      Y:     0.4792      Z:     0.0003     Total:     1.8128

*** Psi4 exiting successfully. Buy a developer a beer!
