                               Psi4 1.4a3.dev225

  ==> Input File <==

--------------------------------------------------------------------------
#psi4
#
memory 32 gb

molecule  {
0 1
  O       -2.0961900    -0.1258010     0.0000130
  N        1.4061120    -0.6270640    -0.0000300
  C       -0.7717780    -0.0254082     0.0000197
  C        0.1198800    -1.1197570     0.0000420
  C        0.0727050     1.1512910    -0.0000190
  C        1.3966620     0.7411570    -0.0000480
  H       -0.0987760    -2.1768520     0.0000580
  H       -0.2751800     2.1769580    -0.0000470
  H        2.2384780    -1.1997090     0.0000240
  H        2.3139960     1.3126250    -0.0000890
  H       -2.4557400     0.7764670     0.0001920
units angstrom
no_reorient  #important for SAPT in psi4, default
symmetry c1  #important for SAPT in psi4, default
}

set PROPERTIES_ORIGIN ["COM"]
properties('MP2/aug-cc-pvtz', properties = ['dipole'])
--------------------------------------------------------------------------

    Molecular point group: c1
  Charge       = 0
  Multiplicity = 1
  Basis Set: AUG-CC-PVTZ
    Blend: AUG-CC-PVTZ
  Basis Set: (AUG-CC-PVTZ AUX)
    Blend: AUG-CC-PVTZ-JKFIT

    Orbital Energies [Eh]
    ---------------------

    Doubly Occupied:

       1A    -20.586443     2A    -15.607432     3A    -11.281915
       4A    -11.262128     5A    -11.242405     6A    -11.216820
       7A     -1.408906     8A     -1.284203     9A     -1.029507
      10A     -0.972434    11A     -0.800321    12A     -0.791853
      13A     -0.739153    14A     -0.660659    15A     -0.623438
      16A     -0.599004    17A     -0.584256    18A     -0.567863
      19A     -0.540950    20A     -0.499676    21A     -0.331921
      22A     -0.282565

  @DF-RHF Final Energy:  -283.76375128312418

   => Energetics <=

    Nuclear Repulsion Energy =            221.6613344254103311
    One-Electron Energy =                -825.0224707295001281
    Two-Electron Energy =                 319.5973850209655893
    Total Energy =                       -283.7637512831241793
  Basis Set: (AUG-CC-PVTZ AUX)
    Blend: AUG-CC-PVTZ-RI
    Molecular point group: c1

    Geometry (in Angstrom), charge = 0, multiplicity = 1:

       Center              X                  Y                   Z               Mass
    ------------   -----------------  -----------------  -----------------  -----------------
         O           -2.068580624096    -0.114611341194     0.000014645993    15.994914619570
         N            1.433721375904    -0.615874341194    -0.000028354007    14.003074004430
         C           -0.744168624096    -0.014218541194     0.000021345993    12.000000000000
         C            0.147489375904    -1.108567341194     0.000043645993    12.000000000000
         C            0.100314375904     1.162480658806    -0.000017354007    12.000000000000
         C            1.424271375904     0.752346658806    -0.000046354007    12.000000000000
         H           -0.071166624096    -2.165662341194     0.000059645993     1.007825032230
         H           -0.247570624096     2.188147658806    -0.000045354007     1.007825032230
         H            2.266087375904    -1.188519341194     0.000025645993     1.007825032230
         H            2.341605375904     1.323814658806    -0.000087354007     1.007825032230
         H           -2.428130624096     0.787656658806     0.000193645993     1.007825032230

  Basis Set: AUG-CC-PVTZ
    Blend: AUG-CC-PVTZ
  Basis Set: (AUG-CC-PVTZ AUX)
    Blend: AUG-CC-PVTZ-JKFIT
	 Reference Energy          =    -283.7637512831241793 [Eh]
	 Singles Energy            =      -0.0000000000000000 [Eh]
	 Same-Spin Energy          =      -0.2995479665918973 [Eh]
	 Opposite-Spin Energy      =      -0.9104796431235607 [Eh]
	 Correlation Energy        =      -1.2100276097154579 [Eh]
	 Total Energy              =    -284.9737788928396185 [Eh]

	 ================> DF-SCS-MP2 Energies <==================
	-----------------------------------------------------------
	 SCS Same-Spin Scale       =       0.3333333333333333 [-]
	 SCS Opposite-Spin Scale   =       1.2000000000000000 [-]
	 SCS Same-Spin Energy      =      -0.0998493221972991 [Eh]
	 SCS Opposite-Spin Energy  =      -1.0925755717482728 [Eh]
	 SCS Correlation Energy    =      -1.1924248939455719 [Eh]
	 SCS Total Energy          =    -284.9561761770697785 [Eh]
	-----------------------------------------------------------

  Dipole Moment: [D]
     X:     1.5042      Y:     0.3812      Z:     0.0003     Total:     1.5517

*** Psi4 exiting successfully. Buy a developer a beer!
