                               Psi4 1.3.2 release

  ==> Input File <==

--------------------------------------------------------------------------
#psi4
#
memory 32 gb

molecule  {
0 1
  O       -2.0961900    -0.1258010     0.0000130
  N        1.4061120    -0.6270640    -0.0000300
  C       -0.7203123    -0.0456292     0.0000153
  C        0.1198800    -1.1197570     0.0000420
  C        0.0727050     1.1512910    -0.0000190
  C        1.3966620     0.7411570    -0.0000480
  H       -0.0987760    -2.1768520     0.0000580
  H       -0.2751800     2.1769580    -0.0000470
  H        2.2384780    -1.1997090     0.0000240
  H        2.3139960     1.3126250    -0.0000890
  H       -2.4557400     0.7764670     0.0001920
units angstrom
no_reorient  #important for SAPT in psi4, default
symmetry c1  #important for SAPT in psi4, default
}

set PROPERTIES_ORIGIN ["COM"]
properties('MP2/aug-cc-pvtz', properties = ['dipole'])
--------------------------------------------------------------------------

    Molecular point group: c1
  Charge       = 0
  Multiplicity = 1
  Basis Set: AUG-CC-PVTZ
    Blend: AUG-CC-PVTZ
  Basis Set: (AUG-CC-PVTZ AUX)
    Blend: AUG-CC-PVTZ-JKFIT

    Orbital Energies [Eh]
    ---------------------

    Doubly Occupied:

       1A    -20.577594     2A    -15.607235     3A    -11.275925
       4A    -11.264569     5A    -11.241246     6A    -11.216837
       7A     -1.381899     8A     -1.289021     9A     -1.035567
      10A     -0.981007    11A     -0.799709    12A     -0.782072
      13A     -0.742816    14A     -0.653069    15A     -0.612569
      16A     -0.592959    17A     -0.587413    18A     -0.570817
      19A     -0.534487    20A     -0.507487    21A     -0.334957
      22A     -0.293658

  @DF-RHF Final Energy:  -283.76805187132743

   => Energetics <=

    Nuclear Repulsion Energy =            221.9498409039134401
    One-Electron Energy =                -825.6699631281079519
    Two-Electron Energy =                 319.9520703528670538
    Total Energy =                       -283.7680518713274296
  Basis Set: (AUG-CC-PVTZ AUX)
    Blend: AUG-CC-PVTZ-RI
    Molecular point group: c1

    Geometry (in Angstrom), charge = 0, multiplicity = 1:

       Center              X                  Y                   Z               Mass
    ------------   -----------------  -----------------  -----------------  -----------------
         O           -2.076018122485    -0.111689129800     0.000015281853    15.994914619570
         N            1.426283877515    -0.612952129800    -0.000027718147    14.003074004430
         C           -0.700140422485    -0.031517329800     0.000017581853    12.000000000000
         C            0.140051877515    -1.105645129800     0.000044281853    12.000000000000
         C            0.092876877515     1.165402870200    -0.000016718147    12.000000000000
         C            1.416833877515     0.755268870200    -0.000045718147    12.000000000000
         H           -0.078604122485    -2.162740129800     0.000060281853     1.007825032230
         H           -0.255008122485     2.191069870200    -0.000044718147     1.007825032230
         H            2.258649877515    -1.185597129800     0.000026281853     1.007825032230
         H            2.334167877515     1.326736870200    -0.000086718147     1.007825032230
         H           -2.435568122485     0.790578870200     0.000194281853     1.007825032230

  Basis Set: AUG-CC-PVTZ
    Blend: AUG-CC-PVTZ
  Basis Set: (AUG-CC-PVTZ AUX)
    Blend: AUG-CC-PVTZ-JKFIT
	 Reference Energy          =    -283.7680518713274296 [Eh]
	 Singles Energy            =      -0.0000000000000000 [Eh]
	 Same-Spin Energy          =      -0.2988290887117132 [Eh]
	 Opposite-Spin Energy      =      -0.9098317700835125 [Eh]
	 Correlation Energy        =      -1.2086608587952257 [Eh]
	 Total Energy              =    -284.9767127301226424 [Eh]

	 ================> DF-SCS-MP2 Energies <==================
	-----------------------------------------------------------
	 SCS Same-Spin Scale       =       0.3333333333333333 [-]
	 SCS Opposite-Spin Scale   =       1.2000000000000000 [-]
	 SCS Same-Spin Energy      =      -0.0996096962372377 [Eh]
	 SCS Opposite-Spin Energy  =      -1.0917981241002148 [Eh]
	 SCS Correlation Energy    =      -1.1914078203374525 [Eh]
	 SCS Total Energy          =    -284.9594596916649039 [Eh]
	-----------------------------------------------------------

  Dipole Moment: [D]
     X:     1.8243      Y:     0.3616      Z:     0.0003     Total:     1.8598

*** Psi4 exiting successfully. Buy a developer a beer!
