                               Psi4 1.3.2 release

  ==> Input File <==

--------------------------------------------------------------------------
#psi4
#
memory 32 gb

molecule  {
0 1
  O       -2.0917173    -0.1736988     0.0000149
  N        1.4061120    -0.6270640    -0.0000300
  C       -0.7219210    -0.0216290     0.0000200
  C        0.1198800    -1.1197570     0.0000420
  C        0.0727050     1.1512910    -0.0000190
  C        1.3966620     0.7411570    -0.0000480
  H       -0.0987760    -2.1768520     0.0000580
  H       -0.2751800     2.1769580    -0.0000470
  H        2.2384780    -1.1997090     0.0000240
  H        2.3139960     1.3126250    -0.0000890
  H       -2.4557400     0.7764670     0.0001920
units angstrom
no_reorient  #important for SAPT in psi4, default
symmetry c1  #important for SAPT in psi4, default
}

set PROPERTIES_ORIGIN ["COM"]
properties('MP2/aug-cc-pvtz', properties = ['dipole'])
--------------------------------------------------------------------------

    Molecular point group: c1
  Charge       = 0
  Multiplicity = 1
  Basis Set: AUG-CC-PVTZ
    Blend: AUG-CC-PVTZ
  Basis Set: (AUG-CC-PVTZ AUX)
    Blend: AUG-CC-PVTZ-JKFIT

    Orbital Energies [Eh]
    ---------------------

    Doubly Occupied:

       1A    -20.583422     2A    -15.609119     3A    -11.275433
       4A    -11.263704     5A    -11.241214     6A    -11.217073
       7A     -1.375734     8A     -1.288426     9A     -1.037461
      10A     -0.976145    11A     -0.801792    12A     -0.773005
      13A     -0.742398    14A     -0.646098    15A     -0.610712
      16A     -0.592507    17A     -0.587192    18A     -0.568676
      19A     -0.534279    20A     -0.511871    21A     -0.338083
      22A     -0.288163

  @DF-RHF Final Energy:  -283.76168488255274

   => Energetics <=

    Nuclear Repulsion Energy =            221.7595773309518847
    One-Electron Energy =                -825.3175067779385472
    Two-Electron Energy =                 319.7962445644339482
    Total Energy =                       -283.7616848825527427
  Basis Set: (AUG-CC-PVTZ AUX)
    Blend: AUG-CC-PVTZ-RI
    Molecular point group: c1

    Geometry (in Angstrom), charge = 0, multiplicity = 1:

       Center              X                  Y                   Z               Mass
    ------------   -----------------  -----------------  -----------------  -----------------
         O           -2.072174491250    -0.153829036737     0.000016136654    15.994914619570
         N            1.425654808750    -0.607194236737    -0.000028763346    14.003074004430
         C           -0.702378191250    -0.001759236737     0.000021236654    12.000000000000
         C            0.139422808750    -1.099887236737     0.000043236654    12.000000000000
         C            0.092247808750     1.171160763263    -0.000017763346    12.000000000000
         C            1.416204808750     0.761026763263    -0.000046763346    12.000000000000
         H           -0.079233191250    -2.156982236737     0.000059236654     1.007825032230
         H           -0.255637191250     2.196827763263    -0.000045763346     1.007825032230
         H            2.258020808750    -1.179839236737     0.000025236654     1.007825032230
         H            2.333538808750     1.332494763263    -0.000087763346     1.007825032230
         H           -2.436197191250     0.796336763263     0.000193236654     1.007825032230

  Basis Set: AUG-CC-PVTZ
    Blend: AUG-CC-PVTZ
  Basis Set: (AUG-CC-PVTZ AUX)
    Blend: AUG-CC-PVTZ-JKFIT
	 Reference Energy          =    -283.7616848825527427 [Eh]
	 Singles Energy            =      -0.0000000000000000 [Eh]
	 Same-Spin Energy          =      -0.3001816563809977 [Eh]
	 Opposite-Spin Energy      =      -0.9124692820856495 [Eh]
	 Correlation Energy        =      -1.2126509384666471 [Eh]
	 Total Energy              =    -284.9743358210193946 [Eh]

	 ================> DF-SCS-MP2 Energies <==================
	-----------------------------------------------------------
	 SCS Same-Spin Scale       =       0.3333333333333333 [-]
	 SCS Opposite-Spin Scale   =       1.2000000000000000 [-]
	 SCS Same-Spin Energy      =      -0.1000605521269992 [Eh]
	 SCS Opposite-Spin Energy  =      -1.0949631385027794 [Eh]
	 SCS Correlation Energy    =      -1.1950236906297786 [Eh]
	 SCS Total Energy          =    -284.9567085731825387 [Eh]
	-----------------------------------------------------------

  Dipole Moment: [D]
     X:     1.7921      Y:     0.4189      Z:     0.0003     Total:     1.8405

*** Psi4 exiting successfully. Buy a developer a beer!
