                               Psi4 1.3.2 release

  ==> Input File <==

--------------------------------------------------------------------------
#psi4
#
memory 32 gb

molecule  {
0 1
  O       -2.0961900    -0.1258010     0.0000130
  N        1.4061120    -0.6270640    -0.0000300
  C       -0.7219210    -0.0216290     0.0000200
  C        0.1576913    -1.0897096     0.0000408
  C        0.0727050     1.1512910    -0.0000190
  C        1.3966620     0.7411570    -0.0000480
  H       -0.0987760    -2.1768520     0.0000580
  H       -0.2751800     2.1769580    -0.0000470
  H        2.2384780    -1.1997090     0.0000240
  H        2.3139960     1.3126250    -0.0000890
  H       -2.4557400     0.7764670     0.0001920
units angstrom
no_reorient  #important for SAPT in psi4, default
symmetry c1  #important for SAPT in psi4, default
}

set PROPERTIES_ORIGIN ["COM"]
properties('MP2/aug-cc-pvtz', properties = ['dipole'])
--------------------------------------------------------------------------

    Molecular point group: c1
  Charge       = 0
  Multiplicity = 1
  Basis Set: AUG-CC-PVTZ
    Blend: AUG-CC-PVTZ
  Basis Set: (AUG-CC-PVTZ AUX)
    Blend: AUG-CC-PVTZ-JKFIT

    Orbital Energies [Eh]
    ---------------------

    Doubly Occupied:

       1A    -20.578343     2A    -15.611104     3A    -11.272845
       4A    -11.259219     5A    -11.243994     6A    -11.216127
       7A     -1.382269     8A     -1.303275     9A     -1.041448
      10A     -0.976929    11A     -0.802270    12A     -0.786512
      13A     -0.738913    14A     -0.656853    15A     -0.617486
      16A     -0.597418    17A     -0.583607    18A     -0.564158
      19A     -0.538854    20A     -0.506053    21A     -0.339969
      22A     -0.286263

  @DF-RHF Final Energy:  -283.76471213483853

   => Energetics <=

    Nuclear Repulsion Energy =            222.6143311642252058
    One-Electron Energy =                -826.9502694321532772
    Two-Electron Energy =                 320.5712261330895672
    Total Energy =                       -283.7647121348385326
  Basis Set: (AUG-CC-PVTZ AUX)
    Blend: AUG-CC-PVTZ-RI
    Molecular point group: c1

    Geometry (in Angstrom), charge = 0, multiplicity = 1:

       Center              X                  Y                   Z               Mass
    ------------   -----------------  -----------------  -----------------  -----------------
         O           -2.081249893920    -0.119499748094     0.000014776055    15.994914619570
         N            1.421052106080    -0.620762748094    -0.000028223945    14.003074004430
         C           -0.706980893920    -0.015327748094     0.000021776055    12.000000000000
         C            0.172631406080    -1.083408348094     0.000042576055    12.000000000000
         C            0.087645106080     1.157592251906    -0.000017223945    12.000000000000
         C            1.411602106080     0.747458251906    -0.000046223945    12.000000000000
         H           -0.083835893920    -2.170550748094     0.000059776055     1.007825032230
         H           -0.260239893920     2.183259251906    -0.000045223945     1.007825032230
         H            2.253418106080    -1.193407748094     0.000025776055     1.007825032230
         H            2.328936106080     1.318926251906    -0.000087223945     1.007825032230
         H           -2.440799893920     0.782768251906     0.000193776055     1.007825032230

  Basis Set: AUG-CC-PVTZ
    Blend: AUG-CC-PVTZ
  Basis Set: (AUG-CC-PVTZ AUX)
    Blend: AUG-CC-PVTZ-JKFIT
	 Reference Energy          =    -283.7647121348385326 [Eh]
	 Singles Energy            =      -0.0000000000000000 [Eh]
	 Same-Spin Energy          =      -0.2996485412085450 [Eh]
	 Opposite-Spin Energy      =      -0.9102117203325747 [Eh]
	 Correlation Energy        =      -1.2098602615411198 [Eh]
	 Total Energy              =    -284.9745723963796422 [Eh]

	 ================> DF-SCS-MP2 Energies <==================
	-----------------------------------------------------------
	 SCS Same-Spin Scale       =       0.3333333333333333 [-]
	 SCS Opposite-Spin Scale   =       1.2000000000000000 [-]
	 SCS Same-Spin Energy      =      -0.0998828470695150 [Eh]
	 SCS Opposite-Spin Energy  =      -1.0922540643990897 [Eh]
	 SCS Correlation Energy    =      -1.1921369114686047 [Eh]
	 SCS Total Energy          =    -284.9568490463071271 [Eh]
	-----------------------------------------------------------

  Dipole Moment: [D]
     X:     1.8510      Y:     0.3235      Z:     0.0003     Total:     1.8791

*** Psi4 exiting successfully. Buy a developer a beer!
