                               Psi4 1.3.2 release

  ==> Input File <==

--------------------------------------------------------------------------
#psi4
#
memory 32 gb

molecule  {
0 1
  O       -2.0961900    -0.1258010     0.0000130
  N        1.4061120    -0.6270640    -0.0000300
  C       -0.7185605    -0.1658499    -0.0000081
  C        0.1198800    -1.1197570     0.0000420
  C        0.0727050     1.1512910    -0.0000190
  C        1.3966620     0.7411570    -0.0000480
  H       -0.0987760    -2.1768520     0.0000580
  H       -0.2751800     2.1769580    -0.0000470
  H        2.2384780    -1.1997090     0.0000240
  H        2.3139960     1.3126250    -0.0000890
  H       -2.4557400     0.7764670     0.0001920
units angstrom
no_reorient  #important for SAPT in psi4, default
symmetry c1  #important for SAPT in psi4, default
}

set PROPERTIES_ORIGIN ["COM"]
properties('MP2/aug-cc-pvtz', properties = ['dipole'])
--------------------------------------------------------------------------

    Molecular point group: c1
  Charge       = 0
  Multiplicity = 1
  Basis Set: AUG-CC-PVTZ
    Blend: AUG-CC-PVTZ
  Basis Set: (AUG-CC-PVTZ AUX)
    Blend: AUG-CC-PVTZ-JKFIT

    Orbital Energies [Eh]
    ---------------------

    Doubly Occupied:

       1A    -20.574746     2A    -15.598154     3A    -11.273592
       4A    -11.267507     5A    -11.233736     6A    -11.219679
       7A     -1.377872     8A     -1.288391     9A     -1.031465
      10A     -0.993591    11A     -0.796232    12A     -0.779046
      13A     -0.741755    14A     -0.662620    15A     -0.614249
      16A     -0.594918    17A     -0.587610    18A     -0.572647
      19A     -0.532876    20A     -0.480379    21A     -0.323031
      22A     -0.316949

  @DF-RHF Final Energy:  -283.74987825271666

   => Energetics <=

    Nuclear Repulsion Energy =            222.0558247622802241
    One-Electron Energy =                -825.8893215941209291
    Two-Electron Energy =                 320.0836185791239927
    Total Energy =                       -283.7498782527166554
  Basis Set: (AUG-CC-PVTZ AUX)
    Blend: AUG-CC-PVTZ-RI
    Molecular point group: c1

    Geometry (in Angstrom), charge = 0, multiplicity = 1:

       Center              X                  Y                   Z               Mass
    ------------   -----------------  -----------------  -----------------  -----------------
         O           -2.076271281573    -0.094315592424     0.000018663473    15.994914619570
         N            1.426030718427    -0.595578592424    -0.000024336527    14.003074004430
         C           -0.698641781573    -0.134364492424    -0.000002436527    12.000000000000
         C            0.139798718427    -1.088271592424     0.000047663473    12.000000000000
         C            0.092623718427     1.182776407576    -0.000013336527    12.000000000000
         C            1.416580718427     0.772642407576    -0.000042336527    12.000000000000
         H           -0.078857281573    -2.145366592424     0.000063663473     1.007825032230
         H           -0.255261281573     2.208443407576    -0.000041336527     1.007825032230
         H            2.258396718427    -1.168223592424     0.000029663473     1.007825032230
         H            2.333914718427     1.344110407576    -0.000083336527     1.007825032230
         H           -2.435821281573     0.807952407576     0.000197663473     1.007825032230

  Basis Set: AUG-CC-PVTZ
    Blend: AUG-CC-PVTZ
  Basis Set: (AUG-CC-PVTZ AUX)
    Blend: AUG-CC-PVTZ-JKFIT
	 Reference Energy          =    -283.7498782527166554 [Eh]
	 Singles Energy            =      -0.0000000000000000 [Eh]
	 Same-Spin Energy          =      -0.2963405876950126 [Eh]
	 Opposite-Spin Energy      =      -0.9071069584956000 [Eh]
	 Correlation Energy        =      -1.2034475461906124 [Eh]
	 Total Energy              =    -284.9533257989072581 [Eh]

	 ================> DF-SCS-MP2 Energies <==================
	-----------------------------------------------------------
	 SCS Same-Spin Scale       =       0.3333333333333333 [-]
	 SCS Opposite-Spin Scale   =       1.2000000000000000 [-]
	 SCS Same-Spin Energy      =      -0.0987801958983375 [Eh]
	 SCS Opposite-Spin Energy  =      -1.0885283501947198 [Eh]
	 SCS Correlation Energy    =      -1.1873085460930572 [Eh]
	 SCS Total Energy          =    -284.9371867988097051 [Eh]
	-----------------------------------------------------------

  Dipole Moment: [D]
     X:     1.8085      Y:     0.2945      Z:     0.0003     Total:     1.8324

*** Psi4 exiting successfully. Buy a developer a beer!
