                               Psi4 1.3.2 release

  ==> Input File <==

--------------------------------------------------------------------------
#psi4
#
memory 32 gb

molecule  {
0 1
  O       -2.0995505     0.0184199     0.0000108
  N        1.4061120    -0.6270640    -0.0000300
  C       -0.7219210    -0.0216290     0.0000200
  C        0.1198800    -1.1197570     0.0000420
  C        0.0727050     1.1512910    -0.0000190
  C        1.3966620     0.7411570    -0.0000480
  H       -0.0987760    -2.1768520     0.0000580
  H       -0.2751800     2.1769580    -0.0000470
  H        2.2384780    -1.1997090     0.0000240
  H        2.3139960     1.3126250    -0.0000890
  H       -2.4557400     0.7764670     0.0001920
units angstrom
no_reorient  #important for SAPT in psi4, default
symmetry c1  #important for SAPT in psi4, default
}

set PROPERTIES_ORIGIN ["COM"]
properties('MP2/aug-cc-pvtz', properties = ['dipole'])
--------------------------------------------------------------------------

    Molecular point group: c1
  Charge       = 0
  Multiplicity = 1
  Basis Set: AUG-CC-PVTZ
    Blend: AUG-CC-PVTZ
  Basis Set: (AUG-CC-PVTZ AUX)
    Blend: AUG-CC-PVTZ-JKFIT

    Orbital Energies [Eh]
    ---------------------

    Doubly Occupied:

       1A    -20.560683     2A    -15.610027     3A    -11.281180
       4A    -11.263678     5A    -11.247982     6A    -11.213149
       7A     -1.411068     8A     -1.291393     9A     -1.042790
      10A     -0.981683    11A     -0.818351    12A     -0.800458
      13A     -0.743739    14A     -0.668112    15A     -0.614810
      16A     -0.594345    17A     -0.588146    18A     -0.570185
      19A     -0.537161    20A     -0.504602    21A     -0.336898
      22A     -0.292806

  @DF-RHF Final Energy:  -283.75102263527697

   => Energetics <=

    Nuclear Repulsion Energy =            222.6176548070337731
    One-Electron Energy =                -826.7908592600836073
    Two-Electron Energy =                 320.4221818177728665
    Total Energy =                       -283.7510226352769678
  Basis Set: (AUG-CC-PVTZ AUX)
    Blend: AUG-CC-PVTZ-RI
    Molecular point group: c1

    Geometry (in Angstrom), charge = 0, multiplicity = 1:

       Center              X                  Y                   Z               Mass
    ------------   -----------------  -----------------  -----------------  -----------------
         O           -2.078498831422     0.001283051842     0.000012826411    15.994914619570
         N            1.427163668578    -0.644200848158    -0.000027973589    14.003074004430
         C           -0.700869331422    -0.038765848158     0.000022026411    12.000000000000
         C            0.140931668578    -1.136893848158     0.000044026411    12.000000000000
         C            0.093756668578     1.134154151842    -0.000016973589    12.000000000000
         C            1.417713668578     0.724020151842    -0.000045973589    12.000000000000
         H           -0.077724331422    -2.193988848158     0.000060026411     1.007825032230
         H           -0.254128331422     2.159821151842    -0.000044973589     1.007825032230
         H            2.259529668578    -1.216845848158     0.000026026411     1.007825032230
         H            2.335047668578     1.295488151842    -0.000086973589     1.007825032230
         H           -2.434688331422     0.759330151842     0.000194026411     1.007825032230

  Basis Set: AUG-CC-PVTZ
    Blend: AUG-CC-PVTZ
  Basis Set: (AUG-CC-PVTZ AUX)
    Blend: AUG-CC-PVTZ-JKFIT
	 Reference Energy          =    -283.7510226352769678 [Eh]
	 Singles Energy            =      -0.0000000000000000 [Eh]
	 Same-Spin Energy          =      -0.2974426312650825 [Eh]
	 Opposite-Spin Energy      =      -0.9060945524215416 [Eh]
	 Correlation Energy        =      -1.2035371836866240 [Eh]
	 Total Energy              =    -284.9545598189636166 [Eh]

	 ================> DF-SCS-MP2 Energies <==================
	-----------------------------------------------------------
	 SCS Same-Spin Scale       =       0.3333333333333333 [-]
	 SCS Opposite-Spin Scale   =       1.2000000000000000 [-]
	 SCS Same-Spin Energy      =      -0.0991475437550275 [Eh]
	 SCS Opposite-Spin Energy  =      -1.0873134629058498 [Eh]
	 SCS Correlation Energy    =      -1.1864610066608774 [Eh]
	 SCS Total Energy          =    -284.9374836419378312 [Eh]
	-----------------------------------------------------------

  Dipole Moment: [D]
     X:     1.9128      Y:     0.2139      Z:     0.0003     Total:     1.9248

*** Psi4 exiting successfully. Buy a developer a beer!
