                               Psi4 1.3.2 release

  ==> Input File <==

--------------------------------------------------------------------------
#psi4
#
memory 32 gb

molecule  {
0 1
  O       -2.0961900    -0.1258010     0.0000130
  N        1.4061120    -0.6270640    -0.0000300
  C       -0.7219210    -0.0216290     0.0000200
  C        0.0004829    -1.2017335     0.0000453
  C        0.0727050     1.1512910    -0.0000190
  C        1.3966620     0.7411570    -0.0000480
  H       -0.0987760    -2.1768520     0.0000580
  H       -0.2751800     2.1769580    -0.0000470
  H        2.2384780    -1.1997090     0.0000240
  H        2.3139960     1.3126250    -0.0000890
  H       -2.4557400     0.7764670     0.0001920
units angstrom
no_reorient  #important for SAPT in psi4, default
symmetry c1  #important for SAPT in psi4, default
}

set PROPERTIES_ORIGIN ["COM"]
properties('MP2/aug-cc-pvtz', properties = ['dipole'])
--------------------------------------------------------------------------

    Molecular point group: c1
  Charge       = 0
  Multiplicity = 1
  Basis Set: AUG-CC-PVTZ
    Blend: AUG-CC-PVTZ
  Basis Set: (AUG-CC-PVTZ AUX)
    Blend: AUG-CC-PVTZ-JKFIT

    Orbital Energies [Eh]
    ---------------------

    Doubly Occupied:

       1A    -20.579116     2A    -15.601726     3A    -11.289103
       4A    -11.276165     5A    -11.242230     6A    -11.216384
       7A     -1.385814     8A     -1.256325     9A     -1.031889
      10A     -0.979425    11A     -0.803677    12A     -0.781929
      13A     -0.746970    14A     -0.649947    15A     -0.619966
      16A     -0.585794    17A     -0.575058    18A     -0.568237
      19A     -0.522935    20A     -0.519034    21A     -0.333434
      22A     -0.296950

  @DF-RHF Final Energy:  -283.74129393013970

   => Energetics <=

    Nuclear Repulsion Energy =            220.1444425971705812
    One-Electron Energy =                -822.0472587014852479
    Two-Electron Energy =                 318.1615221741749338
    Total Energy =                       -283.7412939301397046
  Basis Set: (AUG-CC-PVTZ AUX)
    Blend: AUG-CC-PVTZ-RI
    Molecular point group: c1

    Geometry (in Angstrom), charge = 0, multiplicity = 1:

       Center              X                  Y                   Z               Mass
    ------------   -----------------  -----------------  -----------------  -----------------
         O           -2.058531127407    -0.103310760559     0.000014125743    15.994914619570
         N            1.443770872593    -0.604573760559    -0.000028874257    14.003074004430
         C           -0.684262127407     0.000861239441     0.000021125743    12.000000000000
         C            0.038141772593    -1.179243260559     0.000046425743    12.000000000000
         C            0.110363872593     1.173781239441    -0.000017874257    12.000000000000
         C            1.434320872593     0.763647239441    -0.000046874257    12.000000000000
         H           -0.061117127407    -2.154361760559     0.000059125743     1.007825032230
         H           -0.237521127407     2.199448239441    -0.000045874257     1.007825032230
         H            2.276136872593    -1.177218760559     0.000025125743     1.007825032230
         H            2.351654872593     1.335115239441    -0.000087874257     1.007825032230
         H           -2.418081127407     0.798957239441     0.000193125743     1.007825032230

  Basis Set: AUG-CC-PVTZ
    Blend: AUG-CC-PVTZ
  Basis Set: (AUG-CC-PVTZ AUX)
    Blend: AUG-CC-PVTZ-JKFIT
	 Reference Energy          =    -283.7412939301397046 [Eh]
	 Singles Energy            =      -0.0000000000000000 [Eh]
	 Same-Spin Energy          =      -0.2990292723223996 [Eh]
	 Opposite-Spin Energy      =      -0.9126980929451762 [Eh]
	 Correlation Energy        =      -1.2117273652675757 [Eh]
	 Total Energy              =    -284.9530212954072681 [Eh]

	 ================> DF-SCS-MP2 Energies <==================
	-----------------------------------------------------------
	 SCS Same-Spin Scale       =       0.3333333333333333 [-]
	 SCS Opposite-Spin Scale   =       1.2000000000000000 [-]
	 SCS Same-Spin Energy      =      -0.0996764241074665 [Eh]
	 SCS Opposite-Spin Energy  =      -1.0952377115342113 [Eh]
	 SCS Correlation Energy    =      -1.1949141356416779 [Eh]
	 SCS Total Energy          =    -284.9362080657813863 [Eh]
	-----------------------------------------------------------

  Dipole Moment: [D]
     X:     1.7117      Y:     0.5290      Z:     0.0003     Total:     1.7916

*** Psi4 exiting successfully. Buy a developer a beer!
