                               Psi4 1.3.2 release

  ==> Input File <==

--------------------------------------------------------------------------
#psi4
#
memory 32 gb

molecule  {
0 1
  O       -2.0977987    -0.1018008     0.0000126
  N        1.4061120    -0.6270640    -0.0000300
  C       -0.7219210    -0.0216290     0.0000200
  C        0.1198800    -1.1197570     0.0000420
  C        0.0727050     1.1512910    -0.0000190
  C        1.3966620     0.7411570    -0.0000480
  H       -0.0987760    -2.1768520     0.0000580
  H       -0.2751800     2.1769580    -0.0000470
  H        2.2384780    -1.1997090     0.0000240
  H        2.3139960     1.3126250    -0.0000890
  H       -2.4557400     0.7764670     0.0001920
units angstrom
no_reorient  #important for SAPT in psi4, default
symmetry c1  #important for SAPT in psi4, default
}

set PROPERTIES_ORIGIN ["COM"]
properties('MP2/aug-cc-pvtz', properties = ['dipole'])
--------------------------------------------------------------------------

    Molecular point group: c1
  Charge       = 0
  Multiplicity = 1
  Basis Set: AUG-CC-PVTZ
    Blend: AUG-CC-PVTZ
  Basis Set: (AUG-CC-PVTZ AUX)
    Blend: AUG-CC-PVTZ-JKFIT

    Orbital Energies [Eh]
    ---------------------

    Doubly Occupied:

       1A    -20.575746     2A    -15.609382     3A    -11.277075
       4A    -11.263710     5A    -11.243539     6A    -11.215562
       7A     -1.386877     8A     -1.289500     9A     -1.038800
      10A     -0.978105    11A     -0.801459    12A     -0.786954
      13A     -0.743031    14A     -0.655561    15A     -0.612790
      16A     -0.593030    17A     -0.587476    18A     -0.569289
      19A     -0.535252    20A     -0.510675    21A     -0.337566
      22A     -0.289801

  @DF-RHF Final Energy:  -283.76851586416410

   => Energetics <=

    Nuclear Repulsion Energy =            222.0186251222135922
    One-Electron Energy =                -825.7719194614322760
    Two-Electron Energy =                 319.9847784750545543
    Total Energy =                       -283.7685158641641010
  Basis Set: (AUG-CC-PVTZ AUX)
    Blend: AUG-CC-PVTZ-RI
    Molecular point group: c1

    Geometry (in Angstrom), charge = 0, multiplicity = 1:

       Center              X                  Y                   Z               Mass
    ------------   -----------------  -----------------  -----------------  -----------------
         O           -2.077084469588    -0.095780294243     0.000014279688    15.994914619570
         N            1.426826230412    -0.621043494243    -0.000028320312    14.003074004430
         C           -0.701206769588    -0.015608494243     0.000021679688    12.000000000000
         C            0.140594230412    -1.113736494243     0.000043679688    12.000000000000
         C            0.093419230412     1.157311505757    -0.000017320312    12.000000000000
         C            1.417376230412     0.747177505757    -0.000046320312    12.000000000000
         H           -0.078061769588    -2.170831494243     0.000059679688     1.007825032230
         H           -0.254465769588     2.182978505757    -0.000045320312     1.007825032230
         H            2.259192230412    -1.193688494243     0.000025679688     1.007825032230
         H            2.334710230412     1.318645505757    -0.000087320312     1.007825032230
         H           -2.435025769588     0.782487505757     0.000193679688     1.007825032230

  Basis Set: AUG-CC-PVTZ
    Blend: AUG-CC-PVTZ
  Basis Set: (AUG-CC-PVTZ AUX)
    Blend: AUG-CC-PVTZ-JKFIT
	 Reference Energy          =    -283.7685158641641010 [Eh]
	 Singles Energy            =      -0.0000000000000000 [Eh]
	 Same-Spin Energy          =      -0.2990395010118797 [Eh]
	 Opposite-Spin Energy      =      -0.9097332740983504 [Eh]
	 Correlation Energy        =      -1.2087727751102300 [Eh]
	 Total Energy              =    -284.9772886392743203 [Eh]

	 ================> DF-SCS-MP2 Energies <==================
	-----------------------------------------------------------
	 SCS Same-Spin Scale       =       0.3333333333333333 [-]
	 SCS Opposite-Spin Scale   =       1.2000000000000000 [-]
	 SCS Same-Spin Energy      =      -0.0996798336706266 [Eh]
	 SCS Opposite-Spin Energy  =      -1.0916799289180203 [Eh]
	 SCS Correlation Energy    =      -1.1913597625886470 [Eh]
	 SCS Total Energy          =    -284.9598756267527619 [Eh]
	-----------------------------------------------------------

  Dipole Moment: [D]
     X:     1.8308      Y:     0.3513      Z:     0.0003     Total:     1.8642

*** Psi4 exiting successfully. Buy a developer a beer!
