                               Psi4 1.3.2 release

  ==> Input File <==

--------------------------------------------------------------------------
#psi4
#
memory 32 gb

molecule  {
0 1
  O       -2.0961900    -0.1258010     0.0000130
  N        1.4061120    -0.6270640    -0.0000300
  C       -0.7219210    -0.0216290     0.0000200
  C        0.1114772    -1.0972341     0.0000421
  C        0.0727050     1.1512910    -0.0000190
  C        1.3966620     0.7411570    -0.0000480
  H       -0.0987760    -2.1768520     0.0000580
  H       -0.2751800     2.1769580    -0.0000470
  H        2.2384780    -1.1997090     0.0000240
  H        2.3139960     1.3126250    -0.0000890
  H       -2.4557400     0.7764670     0.0001920
units angstrom
no_reorient  #important for SAPT in psi4, default
symmetry c1  #important for SAPT in psi4, default
}

set PROPERTIES_ORIGIN ["COM"]
properties('MP2/aug-cc-pvtz', properties = ['dipole'])
--------------------------------------------------------------------------

    Molecular point group: c1
  Charge       = 0
  Multiplicity = 1
  Basis Set: AUG-CC-PVTZ
    Blend: AUG-CC-PVTZ
  Basis Set: (AUG-CC-PVTZ AUX)
    Blend: AUG-CC-PVTZ-JKFIT

    Orbital Energies [Eh]
    ---------------------

    Doubly Occupied:

       1A    -20.578382     2A    -15.607877     3A    -11.273458
       4A    -11.263550     5A    -11.241953     6A    -11.215630
       7A     -1.383074     8A     -1.290036     9A     -1.040334
      10A     -0.978552    11A     -0.801944    12A     -0.782157
      13A     -0.739951    14A     -0.652944    15A     -0.615225
      16A     -0.594310    17A     -0.582615    18A     -0.567586
      19A     -0.534823    20A     -0.511915    21A     -0.337651
      22A     -0.292428

  @DF-RHF Final Energy:  -283.76752903752379

   => Energetics <=

    Nuclear Repulsion Energy =            222.3208806554758894
    One-Electron Energy =                -826.4040291444935065
    Two-Electron Energy =                 320.3156194514938306
    Total Energy =                       -283.7675290375237864
  Basis Set: (AUG-CC-PVTZ AUX)
    Blend: AUG-CC-PVTZ-RI
    Molecular point group: c1

    Geometry (in Angstrom), charge = 0, multiplicity = 1:

       Center              X                  Y                   Z               Mass
    ------------   -----------------  -----------------  -----------------  -----------------
         O           -2.074571323643    -0.118412354809     0.000014588187    15.994914619570
         N            1.427730676357    -0.619675354809    -0.000028411813    14.003074004430
         C           -0.700302323643    -0.014240354809     0.000021588187    12.000000000000
         C            0.133095876357    -1.089845454809     0.000043688187    12.000000000000
         C            0.094323676357     1.158679645191    -0.000017411813    12.000000000000
         C            1.418280676357     0.748545645191    -0.000046411813    12.000000000000
         H           -0.077157323643    -2.169463354809     0.000059588187     1.007825032230
         H           -0.253561323643     2.184346645191    -0.000045411813     1.007825032230
         H            2.260096676357    -1.192320354809     0.000025588187     1.007825032230
         H            2.335614676357     1.320013645191    -0.000087411813     1.007825032230
         H           -2.434121323643     0.783855645191     0.000193588187     1.007825032230

  Basis Set: AUG-CC-PVTZ
    Blend: AUG-CC-PVTZ
  Basis Set: (AUG-CC-PVTZ AUX)
    Blend: AUG-CC-PVTZ-JKFIT
	 Reference Energy          =    -283.7675290375237864 [Eh]
	 Singles Energy            =      -0.0000000000000000 [Eh]
	 Same-Spin Energy          =      -0.2990880707320320 [Eh]
	 Opposite-Spin Energy      =      -0.9100596025235761 [Eh]
	 Correlation Energy        =      -1.2091476732556081 [Eh]
	 Total Energy              =    -284.9766767107793726 [Eh]

	 ================> DF-SCS-MP2 Energies <==================
	-----------------------------------------------------------
	 SCS Same-Spin Scale       =       0.3333333333333333 [-]
	 SCS Opposite-Spin Scale   =       1.2000000000000000 [-]
	 SCS Same-Spin Energy      =      -0.0996960235773440 [Eh]
	 SCS Opposite-Spin Energy  =      -1.0920715230282914 [Eh]
	 SCS Correlation Energy    =      -1.1917675466056354 [Eh]
	 SCS Total Energy          =    -284.9592965841294472 [Eh]
	-----------------------------------------------------------

  Dipole Moment: [D]
     X:     1.8210      Y:     0.3670      Z:     0.0003     Total:     1.8577

*** Psi4 exiting successfully. Buy a developer a beer!
