                               Psi4 1.3.2 release

  ==> Input File <==

--------------------------------------------------------------------------
#psi4
#
memory 32 gb

molecule  {
-1 1
  S       -1.3434220    -0.1276070     0.0000000
  O        0.9008660     1.3391190     0.0000000
  C        1.2796100    -1.0089470    -0.3000000
  C        0.3525050     0.2195930    -0.0000010
  H        1.0855710    -1.6283600     0.8805770
  H        2.3240130    -0.6783680    -0.0000170
  H        1.0855470    -1.6283820    -0.8805570
units angstrom
no_reorient  #important for SAPT in psi4, default
symmetry c1  #important for SAPT in psi4, default
}

set PROPERTIES_ORIGIN ["COM"]
properties('MP2/aug-cc-pvtz', properties = ['dipole'])
--------------------------------------------------------------------------

    Molecular point group: c1
  Charge       = -1
  Multiplicity = 1
  Basis Set: AUG-CC-PVTZ
    Blend: AUG-CC-PVTZ
  Basis Set: (AUG-CC-PVTZ AUX)
    Blend: AUG-CC-PVTZ-JKFIT

    Orbital Energies [Eh]
    ---------------------

    Doubly Occupied:

       1A    -91.699359     2A    -20.348121     3A    -11.168154
       4A    -11.082097     5A     -8.701896     6A     -6.383460
       7A     -6.381904     8A     -6.381478     9A     -1.173726
      10A     -0.847724    11A     -0.738584    12A     -0.554088
      13A     -0.472369    14A     -0.419327    15A     -0.382408
      16A     -0.344001    17A     -0.287448    18A     -0.207753
      19A     -0.137018    20A     -0.128058

  @DF-RHF Final Energy:  -549.89341830023068

   => Energetics <=

    Nuclear Repulsion Energy =            142.4528194398375547
    One-Electron Energy =               -1049.0145260647334453
    Two-Electron Energy =                 356.6682883246652978
    Total Energy =                       -549.8934183002306781
  Basis Set: (AUG-CC-PVTZ AUX)
    Blend: AUG-CC-PVTZ-RI
    Molecular point group: c1

    Geometry (in Angstrom), charge = -1, multiplicity = 1:

       Center              X                  Y                   Z               Mass
    ------------   -----------------  -----------------  -----------------  -----------------
         S           -1.284387511479    -0.179628064749     0.048006225509    31.972071174400
         O            0.959900488521     1.287097935251     0.048006225509    15.994914619570
         C            1.338644488521    -1.060968064749    -0.251993774491    12.000000000000
         C            0.411539488521     0.167571935251     0.048005225509    12.000000000000
         H            1.144605488521    -1.680381064749     0.928583225509     1.007825032230
         H            2.383047488521    -0.730389064749     0.047989225509     1.007825032230
         H            1.144581488521    -1.680403064749    -0.832550774491     1.007825032230

  Basis Set: AUG-CC-PVTZ
    Blend: AUG-CC-PVTZ
  Basis Set: (AUG-CC-PVTZ AUX)
    Blend: AUG-CC-PVTZ-JKFIT
	 Reference Energy          =    -549.8934183002306781 [Eh]
	 Singles Energy            =      -0.0000000000000000 [Eh]
	 Same-Spin Energy          =      -0.2121881771719257 [Eh]
	 Opposite-Spin Energy      =      -0.6480402194775537 [Eh]
	 Correlation Energy        =      -0.8602283966494795 [Eh]
	 Total Energy              =    -550.7536466968801960 [Eh]

	 ================> DF-SCS-MP2 Energies <==================
	-----------------------------------------------------------
	 SCS Same-Spin Scale       =       0.3333333333333333 [-]
	 SCS Opposite-Spin Scale   =       1.2000000000000000 [-]
	 SCS Same-Spin Energy      =      -0.0707293923906419 [Eh]
	 SCS Opposite-Spin Energy  =      -0.7776482633730645 [Eh]
	 SCS Correlation Energy    =      -0.8483776557637064 [Eh]
	 SCS Total Energy          =    -550.7417959559943483 [Eh]
	-----------------------------------------------------------

  Dipole Moment: [D]
     X:     2.4050      Y:    -1.8816      Z:    -0.4134     Total:     3.0814

*** Psi4 exiting successfully. Buy a developer a beer!
