                               Psi4 1.3.2 release

  ==> Input File <==

--------------------------------------------------------------------------
#psi4
#
memory 32 gb

molecule  {
-1 1
  S       -1.3434220    -0.1276070     0.0000000
  O        0.9008660     1.3391190     0.0000000
  C        1.2796100    -1.0089470    -0.2000000
  C        0.3525050     0.2195930    -0.0000010
  H        1.0855710    -1.6283600     0.8805770
  H        2.3240130    -0.6783680    -0.0000170
  H        1.0855470    -1.6283820    -0.8805570
units angstrom
no_reorient  #important for SAPT in psi4, default
symmetry c1  #important for SAPT in psi4, default
}

set PROPERTIES_ORIGIN ["COM"]
properties('MP2/aug-cc-pvtz', properties = ['dipole'])
--------------------------------------------------------------------------

    Molecular point group: c1
  Charge       = -1
  Multiplicity = 1
  Basis Set: AUG-CC-PVTZ
    Blend: AUG-CC-PVTZ
  Basis Set: (AUG-CC-PVTZ AUX)
    Blend: AUG-CC-PVTZ-JKFIT

    Orbital Energies [Eh]
    ---------------------

    Doubly Occupied:

       1A    -91.698485     2A    -20.346392     3A    -11.163812
       4A    -11.075303     5A     -8.701041     6A     -6.382605
       7A     -6.381067     8A     -6.380643     9A     -1.172245
      10A     -0.843796    11A     -0.734699    12A     -0.538208
      13A     -0.463197    14A     -0.422287    15A     -0.390393
      16A     -0.343549    17A     -0.303414    18A     -0.206746
      19A     -0.136697    20A     -0.127778

  @DF-RHF Final Energy:  -549.94543079727669

   => Energetics <=

    Nuclear Repulsion Energy =            142.6318466997135204
    One-Electron Energy =               -1049.5298376618980001
    Two-Electron Energy =                 356.9525601649077657
    Total Energy =                       -549.9454307972766856
  Basis Set: (AUG-CC-PVTZ AUX)
    Blend: AUG-CC-PVTZ-RI
    Molecular point group: c1

    Geometry (in Angstrom), charge = -1, multiplicity = 1:

       Center              X                  Y                   Z               Mass
    ------------   -----------------  -----------------  -----------------  -----------------
         S           -1.284387511479    -0.179628064749     0.032004190240    31.972071174400
         O            0.959900488521     1.287097935251     0.032004190240    15.994914619570
         C            1.338644488521    -1.060968064749    -0.167995809760    12.000000000000
         C            0.411539488521     0.167571935251     0.032003190240    12.000000000000
         H            1.144605488521    -1.680381064749     0.912581190240     1.007825032230
         H            2.383047488521    -0.730389064749     0.031987190240     1.007825032230
         H            1.144581488521    -1.680403064749    -0.848552809760     1.007825032230

  Basis Set: AUG-CC-PVTZ
    Blend: AUG-CC-PVTZ
  Basis Set: (AUG-CC-PVTZ AUX)
    Blend: AUG-CC-PVTZ-JKFIT
	 Reference Energy          =    -549.9454307972766856 [Eh]
	 Singles Energy            =      -0.0000000000000000 [Eh]
	 Same-Spin Energy          =      -0.2115759185055489 [Eh]
	 Opposite-Spin Energy      =      -0.6457313360245904 [Eh]
	 Correlation Energy        =      -0.8573072545301393 [Eh]
	 Total Energy              =    -550.8027380518068412 [Eh]

	 ================> DF-SCS-MP2 Energies <==================
	-----------------------------------------------------------
	 SCS Same-Spin Scale       =       0.3333333333333333 [-]
	 SCS Opposite-Spin Scale   =       1.2000000000000000 [-]
	 SCS Same-Spin Energy      =      -0.0705253061685163 [Eh]
	 SCS Opposite-Spin Energy  =      -0.7748776032295085 [Eh]
	 SCS Correlation Energy    =      -0.8454029093980248 [Eh]
	 SCS Total Energy          =    -550.7908337066746753 [Eh]
	-----------------------------------------------------------

  Dipole Moment: [D]
     X:     2.4614      Y:    -1.9516      Z:    -0.2887     Total:     3.1545

*** Psi4 exiting successfully. Buy a developer a beer!
