                               Psi4 1.3.2 release

  ==> Input File <==

--------------------------------------------------------------------------
#psi4
#
memory 32 gb

molecule  {
-1 1
  S       -1.3434220    -0.1276070     0.0000000
  O        0.9008660     1.3391190     0.0000000
  C        1.2796100    -1.0089470    -0.1500000
  C        0.3525050     0.2195930    -0.0000010
  H        1.0855710    -1.6283600     0.8805770
  H        2.3240130    -0.6783680    -0.0000170
  H        1.0855470    -1.6283820    -0.8805570
units angstrom
no_reorient  #important for SAPT in psi4, default
symmetry c1  #important for SAPT in psi4, default
}

set PROPERTIES_ORIGIN ["COM"]
properties('MP2/aug-cc-pvtz', properties = ['dipole'])
--------------------------------------------------------------------------

    Molecular point group: c1
  Charge       = -1
  Multiplicity = 1
  Basis Set: AUG-CC-PVTZ
    Blend: AUG-CC-PVTZ
  Basis Set: (AUG-CC-PVTZ AUX)
    Blend: AUG-CC-PVTZ-JKFIT

    Orbital Energies [Eh]
    ---------------------

    Doubly Occupied:

       1A    -91.698181     2A    -20.345779     3A    -11.162249
       4A    -11.072880     5A     -8.700743     6A     -6.382307
       7A     -6.380776     8A     -6.380352     9A     -1.171714
      10A     -0.842533    11A     -0.733378    12A     -0.532190
      13A     -0.455701    14A     -0.423260    15A     -0.396696
      16A     -0.343503    17A     -0.309590    18A     -0.206390
      19A     -0.136584    20A     -0.127679

  @DF-RHF Final Energy:  -549.96329447736775

   => Energetics <=

    Nuclear Repulsion Energy =            142.6952297912530980
    One-Electron Energy =               -1049.7120782565107220
    Two-Electron Energy =                 357.0535539878899272
    Total Energy =                       -549.9632944773677536
  Basis Set: (AUG-CC-PVTZ AUX)
    Blend: AUG-CC-PVTZ-RI
    Molecular point group: c1

    Geometry (in Angstrom), charge = -1, multiplicity = 1:

       Center              X                  Y                   Z               Mass
    ------------   -----------------  -----------------  -----------------  -----------------
         S           -1.284387511479    -0.179628064749     0.024003172606    31.972071174400
         O            0.959900488521     1.287097935251     0.024003172606    15.994914619570
         C            1.338644488521    -1.060968064749    -0.125996827394    12.000000000000
         C            0.411539488521     0.167571935251     0.024002172606    12.000000000000
         H            1.144605488521    -1.680381064749     0.904580172606     1.007825032230
         H            2.383047488521    -0.730389064749     0.023986172606     1.007825032230
         H            1.144581488521    -1.680403064749    -0.856553827394     1.007825032230

  Basis Set: AUG-CC-PVTZ
    Blend: AUG-CC-PVTZ
  Basis Set: (AUG-CC-PVTZ AUX)
    Blend: AUG-CC-PVTZ-JKFIT
	 Reference Energy          =    -549.9632944773677536 [Eh]
	 Singles Energy            =      -0.0000000000000000 [Eh]
	 Same-Spin Energy          =      -0.2113665330119613 [Eh]
	 Opposite-Spin Energy      =      -0.6449353140136054 [Eh]
	 Correlation Energy        =      -0.8563018470255667 [Eh]
	 Total Energy              =    -550.8195963243932738 [Eh]

	 ================> DF-SCS-MP2 Energies <==================
	-----------------------------------------------------------
	 SCS Same-Spin Scale       =       0.3333333333333333 [-]
	 SCS Opposite-Spin Scale   =       1.2000000000000000 [-]
	 SCS Same-Spin Energy      =      -0.0704555110039871 [Eh]
	 SCS Opposite-Spin Energy  =      -0.7739223768163265 [Eh]
	 SCS Correlation Energy    =      -0.8443778878203135 [Eh]
	 SCS Total Energy          =    -550.8076723651880684 [Eh]
	-----------------------------------------------------------

  Dipole Moment: [D]
     X:     2.4804      Y:    -1.9784      Z:    -0.2196     Total:     3.1804

*** Psi4 exiting successfully. Buy a developer a beer!
