                               Psi4 1.3.2 release

  ==> Input File <==

--------------------------------------------------------------------------
#psi4
#
memory 32 gb

molecule  {
-1 1
  S       -1.3434220    -0.1276070     0.0000000
  O        0.9008660     1.3391190     0.0000000
  C        1.2796100    -1.0089470    -0.0500000
  C        0.3525050     0.2195930    -0.0000010
  H        1.0855710    -1.6283600     0.8805770
  H        2.3240130    -0.6783680    -0.0000170
  H        1.0855470    -1.6283820    -0.8805570
units angstrom
no_reorient  #important for SAPT in psi4, default
symmetry c1  #important for SAPT in psi4, default
}

set PROPERTIES_ORIGIN ["COM"]
properties('MP2/aug-cc-pvtz', properties = ['dipole'])
--------------------------------------------------------------------------

    Molecular point group: c1
  Charge       = -1
  Multiplicity = 1
  Basis Set: AUG-CC-PVTZ
    Blend: AUG-CC-PVTZ
  Basis Set: (AUG-CC-PVTZ AUX)
    Blend: AUG-CC-PVTZ-JKFIT

    Orbital Energies [Eh]
    ---------------------

    Doubly Occupied:

       1A    -91.697834     2A    -20.345072     3A    -11.160437
       4A    -11.070087     5A     -8.700404     6A     -6.381969
       7A     -6.380444     8A     -6.380022     9A     -1.171099
      10A     -0.841167    11A     -0.731912    12A     -0.525585
      13A     -0.435869    14A     -0.424331    15A     -0.414229
      16A     -0.343609    17A     -0.316781    18A     -0.205980
      19A     -0.136455    20A     -0.127567

  @DF-RHF Final Energy:  -549.98342074893151

   => Energetics <=

    Nuclear Repulsion Energy =            142.7682668400654507
    One-Electron Energy =               -1049.9216732477066216
    Two-Electron Energy =                 357.1699856587096633
    Total Energy =                       -549.9834207489313940
  Basis Set: (AUG-CC-PVTZ AUX)
    Blend: AUG-CC-PVTZ-RI
    Molecular point group: c1

    Geometry (in Angstrom), charge = -1, multiplicity = 1:

       Center              X                  Y                   Z               Mass
    ------------   -----------------  -----------------  -----------------  -----------------
         S           -1.284387511479    -0.179628064749     0.008001137337    31.972071174400
         O            0.959900488521     1.287097935251     0.008001137337    15.994914619570
         C            1.338644488521    -1.060968064749    -0.041998862663    12.000000000000
         C            0.411539488521     0.167571935251     0.008000137337    12.000000000000
         H            1.144605488521    -1.680381064749     0.888578137337     1.007825032230
         H            2.383047488521    -0.730389064749     0.007984137337     1.007825032230
         H            1.144581488521    -1.680403064749    -0.872555862663     1.007825032230

  Basis Set: AUG-CC-PVTZ
    Blend: AUG-CC-PVTZ
  Basis Set: (AUG-CC-PVTZ AUX)
    Blend: AUG-CC-PVTZ-JKFIT
	 Reference Energy          =    -549.9834207489315077 [Eh]
	 Singles Energy            =      -0.0000000000000000 [Eh]
	 Same-Spin Energy          =      -0.2111304893789939 [Eh]
	 Opposite-Spin Energy      =      -0.6440323308604348 [Eh]
	 Correlation Energy        =      -0.8551628202394286 [Eh]
	 Total Energy              =    -550.8385835691709644 [Eh]

	 ================> DF-SCS-MP2 Energies <==================
	-----------------------------------------------------------
	 SCS Same-Spin Scale       =       0.3333333333333333 [-]
	 SCS Opposite-Spin Scale   =       1.2000000000000000 [-]
	 SCS Same-Spin Energy      =      -0.0703768297929979 [Eh]
	 SCS Opposite-Spin Energy  =      -0.7728387970325217 [Eh]
	 SCS Correlation Energy    =      -0.8432156268255196 [Eh]
	 SCS Total Energy          =    -550.8266363757570616 [Eh]
	-----------------------------------------------------------

  Dipole Moment: [D]
     X:     2.5016      Y:    -2.0106      Z:    -0.0743     Total:     3.2102

*** Psi4 exiting successfully. Buy a developer a beer!
