                               Psi4 1.3.2 release

  ==> Input File <==

--------------------------------------------------------------------------
#psi4
#
memory 32 gb

molecule  {
-1 1
  S       -1.3434220    -0.1276070     0.0000000
  O        0.9008660     1.3391190     0.0000000
  C        1.2796100    -1.0089470     0.0000000
  C        0.3525050     0.2195930    -0.0000010
  H        1.0855710    -1.6283600     0.8805770
  H        2.3240130    -0.6783680    -0.0000170
  H        1.0855470    -1.6283820    -0.8805570
units angstrom
no_reorient  #important for SAPT in psi4, default
symmetry c1  #important for SAPT in psi4, default
}

set PROPERTIES_ORIGIN ["COM"]
properties('MP2/aug-cc-pvtz', properties = ['dipole'])
--------------------------------------------------------------------------

    Molecular point group: c1
  Charge       = -1
  Multiplicity = 1
  Basis Set: AUG-CC-PVTZ
    Blend: AUG-CC-PVTZ
  Basis Set: (AUG-CC-PVTZ AUX)
    Blend: AUG-CC-PVTZ-JKFIT

    Orbital Energies [Eh]
    ---------------------

    Doubly Occupied:

       1A    -91.697791     2A    -20.344983     3A    -11.160208
       4A    -11.069736     5A     -8.700362     6A     -6.381926
       7A     -6.380402     8A     -6.379980     9A     -1.171022
      10A     -0.841002    11A     -0.731732    12A     -0.524808
      13A     -0.425638    14A     -0.424886    15A     -0.423663
      16A     -0.343640    17A     -0.317670    18A     -0.205928
      19A     -0.136439    20A     -0.127553

  @DF-RHF Final Energy:  -549.98591231245268

   => Energetics <=

    Nuclear Repulsion Energy =            142.7774464702186776
    One-Electron Energy =               -1049.9479763688243565
    Two-Electron Energy =                 357.1846175861529673
    Total Energy =                       -549.9859123124526832
  Basis Set: (AUG-CC-PVTZ AUX)
    Blend: AUG-CC-PVTZ-RI
    Molecular point group: c1

    Geometry (in Angstrom), charge = -1, multiplicity = 1:

       Center              X                  Y                   Z               Mass
    ------------   -----------------  -----------------  -----------------  -----------------
         S           -1.284387511479    -0.179628064749     0.000000119702    31.972071174400
         O            0.959900488521     1.287097935251     0.000000119702    15.994914619570
         C            1.338644488521    -1.060968064749     0.000000119702    12.000000000000
         C            0.411539488521     0.167571935251    -0.000000880298    12.000000000000
         H            1.144605488521    -1.680381064749     0.880577119702     1.007825032230
         H            2.383047488521    -0.730389064749    -0.000016880298     1.007825032230
         H            1.144581488521    -1.680403064749    -0.880556880298     1.007825032230

  Basis Set: AUG-CC-PVTZ
    Blend: AUG-CC-PVTZ
  Basis Set: (AUG-CC-PVTZ AUX)
    Blend: AUG-CC-PVTZ-JKFIT
	 Reference Energy          =    -549.9859123124526832 [Eh]
	 Singles Energy            =      -0.0000000000000000 [Eh]
	 Same-Spin Energy          =      -0.2111012420827474 [Eh]
	 Opposite-Spin Energy      =      -0.6439198826492846 [Eh]
	 Correlation Energy        =      -0.8550211247320320 [Eh]
	 Total Energy              =    -550.8409334371847308 [Eh]

	 ================> DF-SCS-MP2 Energies <==================
	-----------------------------------------------------------
	 SCS Same-Spin Scale       =       0.3333333333333333 [-]
	 SCS Opposite-Spin Scale   =       1.2000000000000000 [-]
	 SCS Same-Spin Energy      =      -0.0703670806942491 [Eh]
	 SCS Opposite-Spin Energy  =      -0.7727038591791414 [Eh]
	 SCS Correlation Energy    =      -0.8430709398733905 [Eh]
	 SCS Total Energy          =    -550.8289832523261111 [Eh]
	-----------------------------------------------------------

  Dipole Moment: [D]
     X:     2.5042      Y:    -2.0147      Z:     0.0000     Total:     3.2140

*** Psi4 exiting successfully. Buy a developer a beer!
