                               Psi4 1.3.2 release

  ==> Input File <==

--------------------------------------------------------------------------
#psi4
#
memory 32 gb

molecule  {
-1 1
  S       -1.3434220    -0.1276070     0.0000000
  O        0.9008660     1.3391190     0.0000000
  C        1.2796100    -1.0089470    -0.2500000
  C        0.3525050     0.2195930    -0.0000010
  H        1.0855710    -1.6283600     0.8805770
  H        2.3240130    -0.6783680    -0.0000170
  H        1.0855470    -1.6283820    -0.8805570
units angstrom
no_reorient  #important for SAPT in psi4, default
symmetry c1  #important for SAPT in psi4, default
}

set PROPERTIES_ORIGIN ["COM"]
properties('MP2/aug-cc-pvtz', properties = ['dipole'])
--------------------------------------------------------------------------

    Molecular point group: c1
  Charge       = -1
  Multiplicity = 1
  Basis Set: AUG-CC-PVTZ
    Blend: AUG-CC-PVTZ
  Basis Set: (AUG-CC-PVTZ AUX)
    Blend: AUG-CC-PVTZ-JKFIT

    Orbital Energies [Eh]
    ---------------------

    Doubly Occupied:

       1A    -91.698878     2A    -20.347175     3A    -11.165790
       4A    -11.078385     5A     -8.701425     6A     -6.382989
       7A     -6.381443     8A     -6.381018     9A     -1.172919
      10A     -0.845509    11A     -0.736435    12A     -0.545734
      13A     -0.468681    14A     -0.420987    15A     -0.385718
      16A     -0.343713    17A     -0.295885    18A     -0.207202
      19A     -0.136841    20A     -0.127904

  @DF-RHF Final Energy:  -549.92217598622290

   => Energetics <=

    Nuclear Repulsion Energy =            142.5509574379212836
    One-Electron Energy =               -1049.2970078872940576
    Two-Electron Energy =                 356.8238744631499344
    Total Energy =                       -549.9221759862227827
  Basis Set: (AUG-CC-PVTZ AUX)
    Blend: AUG-CC-PVTZ-RI
    Molecular point group: c1

    Geometry (in Angstrom), charge = -1, multiplicity = 1:

       Center              X                  Y                   Z               Mass
    ------------   -----------------  -----------------  -----------------  -----------------
         S           -1.284387511479    -0.179628064749     0.040005207874    31.972071174400
         O            0.959900488521     1.287097935251     0.040005207874    15.994914619570
         C            1.338644488521    -1.060968064749    -0.209994792126    12.000000000000
         C            0.411539488521     0.167571935251     0.040004207874    12.000000000000
         H            1.144605488521    -1.680381064749     0.920582207874     1.007825032230
         H            2.383047488521    -0.730389064749     0.039988207874     1.007825032230
         H            1.144581488521    -1.680403064749    -0.840551792126     1.007825032230

  Basis Set: AUG-CC-PVTZ
    Blend: AUG-CC-PVTZ
  Basis Set: (AUG-CC-PVTZ AUX)
    Blend: AUG-CC-PVTZ-JKFIT
	 Reference Energy          =    -549.9221759862228964 [Eh]
	 Singles Energy            =      -0.0000000000000000 [Eh]
	 Same-Spin Energy          =      -0.2118488727811164 [Eh]
	 Opposite-Spin Energy      =      -0.6467640407586396 [Eh]
	 Correlation Energy        =      -0.8586129135397560 [Eh]
	 Total Energy              =    -550.7807888997626833 [Eh]

	 ================> DF-SCS-MP2 Energies <==================
	-----------------------------------------------------------
	 SCS Same-Spin Scale       =       0.3333333333333333 [-]
	 SCS Opposite-Spin Scale   =       1.2000000000000000 [-]
	 SCS Same-Spin Energy      =      -0.0706162909270388 [Eh]
	 SCS Opposite-Spin Energy  =      -0.7761168489103675 [Eh]
	 SCS Correlation Energy    =      -0.8467331398374063 [Eh]
	 SCS Total Energy          =    -550.7689091260602936 [Eh]
	-----------------------------------------------------------

  Dipole Moment: [D]
     X:     2.4365      Y:    -1.9189      Z:    -0.3537     Total:     3.1215

*** Psi4 exiting successfully. Buy a developer a beer!
