                               Psi4 1.3.2 release

  ==> Input File <==

--------------------------------------------------------------------------
#psi4
#
memory 32 gb

molecule  {
-1 1
  S       -1.3434220    -0.1276070     0.0000000
  O        0.9008660     1.3391190     0.0000000
  C        1.2796100    -1.0089470    -0.1000000
  C        0.3525050     0.2195930    -0.0000010
  H        1.0855710    -1.6283600     0.8805770
  H        2.3240130    -0.6783680    -0.0000170
  H        1.0855470    -1.6283820    -0.8805570
units angstrom
no_reorient  #important for SAPT in psi4, default
symmetry c1  #important for SAPT in psi4, default
}

set PROPERTIES_ORIGIN ["COM"]
properties('MP2/aug-cc-pvtz', properties = ['dipole'])
--------------------------------------------------------------------------

    Molecular point group: c1
  Charge       = -1
  Multiplicity = 1
  Basis Set: AUG-CC-PVTZ
    Blend: AUG-CC-PVTZ
  Basis Set: (AUG-CC-PVTZ AUX)
    Blend: AUG-CC-PVTZ-JKFIT

    Orbital Energies [Eh]
    ---------------------

    Doubly Occupied:

       1A    -91.697964     2A    -20.345337     3A    -11.161120
       4A    -11.071137     5A     -8.700531     6A     -6.382095
       7A     -6.380568     8A     -6.380145     9A     -1.171331
      10A     -0.841669    11A     -0.732455    12A     -0.527993
      13A     -0.446389    14A     -0.423934    15A     -0.404710
      16A     -0.343543    17A     -0.314090    18A     -0.206134
      19A     -0.136503    20A     -0.127609

  @DF-RHF Final Energy:  -549.97591268439589

   => Energetics <=

    Nuclear Repulsion Energy =            142.7407969275615187
    One-Electron Energy =               -1049.8429045599416440
    Two-Electron Energy =                 357.1261949479841746
    Total Energy =                       -549.9759126843960075
  Basis Set: (AUG-CC-PVTZ AUX)
    Blend: AUG-CC-PVTZ-RI
    Molecular point group: c1

    Geometry (in Angstrom), charge = -1, multiplicity = 1:

       Center              X                  Y                   Z               Mass
    ------------   -----------------  -----------------  -----------------  -----------------
         S           -1.284387511479    -0.179628064749     0.016002154971    31.972071174400
         O            0.959900488521     1.287097935251     0.016002154971    15.994914619570
         C            1.338644488521    -1.060968064749    -0.083997845029    12.000000000000
         C            0.411539488521     0.167571935251     0.016001154971    12.000000000000
         H            1.144605488521    -1.680381064749     0.896579154971     1.007825032230
         H            2.383047488521    -0.730389064749     0.015985154971     1.007825032230
         H            1.144581488521    -1.680403064749    -0.864554845029     1.007825032230

  Basis Set: AUG-CC-PVTZ
    Blend: AUG-CC-PVTZ
  Basis Set: (AUG-CC-PVTZ AUX)
    Blend: AUG-CC-PVTZ-JKFIT
	 Reference Energy          =    -549.9759126843958938 [Eh]
	 Singles Energy            =      -0.0000000000000000 [Eh]
	 Same-Spin Energy          =      -0.2112185836141617 [Eh]
	 Opposite-Spin Energy      =      -0.6443702046925210 [Eh]
	 Correlation Energy        =      -0.8555887883066828 [Eh]
	 Total Energy              =    -550.8315014727025982 [Eh]

	 ================> DF-SCS-MP2 Energies <==================
	-----------------------------------------------------------
	 SCS Same-Spin Scale       =       0.3333333333333333 [-]
	 SCS Opposite-Spin Scale   =       1.2000000000000000 [-]
	 SCS Same-Spin Energy      =      -0.0704061945380539 [Eh]
	 SCS Opposite-Spin Energy  =      -0.7732442456310252 [Eh]
	 SCS Correlation Energy    =      -0.8436504401690792 [Eh]
	 SCS Total Energy          =    -550.8195631245649793 [Eh]
	-----------------------------------------------------------

  Dipole Moment: [D]
     X:     2.4937      Y:    -1.9983      Z:    -0.1478     Total:     3.1990

*** Psi4 exiting successfully. Buy a developer a beer!
