                               Psi4 1.3.2 release

  ==> Input File <==

--------------------------------------------------------------------------
#psi4
#
memory 32 gb

molecule  {
0 1
  C        0.5372180     0.4001580    -0.0000200
  C       -0.5372160    -0.4001420    -0.0000340
  C        1.9579460    -0.0793330     0.0000300
  C       -1.9660984     0.0544548     0.0000043
  H        0.3872410     1.4808590    -0.0000070
  H       -0.3872320    -1.4808410    -0.0000340
  H        2.4990240     0.2830730     0.8809220
  H        2.0015130    -1.1721620     0.0000580
  H        2.4990680     0.2830330    -0.8808500
  H       -2.4990120    -0.2830470     0.8809190
  H       -2.0015450     1.1721510    -0.0000290
  H       -2.4990680    -0.2831040    -0.8808510
units angstrom
no_reorient  #important for SAPT in psi4, default
symmetry c1  #important for SAPT in psi4, default
}

set PROPERTIES_ORIGIN ["COM"]
properties('MP2/aug-cc-pvtz', properties = ['dipole'])
--------------------------------------------------------------------------

    Molecular point group: c1
  Charge       = 0
  Multiplicity = 1
  Basis Set: AUG-CC-PVTZ
    Blend: AUG-CC-PVTZ
  Basis Set: (AUG-CC-PVTZ AUX)
    Blend: AUG-CC-PVTZ-JKFIT

    Orbital Energies [Eh]
    ---------------------

    Doubly Occupied:

       1A    -11.225314     2A    -11.223552     3A    -11.218364
       4A    -11.218175     5A     -1.075068     6A     -0.982981
       7A     -0.876594     8A     -0.742992     9A     -0.606164
      10A     -0.602525    11A     -0.574000    12A     -0.556673
      13A     -0.516191    14A     -0.507533    15A     -0.479213
      16A     -0.341965

  @DF-RHF Final Energy:  -156.16741522300137

   => Energetics <=

    Nuclear Repulsion Energy =            115.6744760921883142
    One-Electron Energy =                -438.1891768881127973
    Two-Electron Energy =                 166.3472855729230844
    Total Energy =                       -156.1674152230013704
  Basis Set: (AUG-CC-PVTZ AUX)
    Blend: AUG-CC-PVTZ-RI
    Molecular point group: c1

    Geometry (in Angstrom), charge = 0, multiplicity = 1:

       Center              X                  Y                   Z               Mass
    ------------   -----------------  -----------------  -----------------  -----------------
         C            0.538962761849     0.405480348517    -0.000018084313    12.000000000000
         C           -0.535471238151    -0.394819651483    -0.000032084313    12.000000000000
         C            1.959690761849    -0.074010651483     0.000031915687    12.000000000000
         C           -1.964353638151     0.059777148517     0.000006215687    12.000000000000
         H            0.388985761849     1.486181348517    -0.000005084313     1.007825032230
         H           -0.385487238151    -1.475518651483    -0.000032084313     1.007825032230
         H            2.500768761849     0.288395348517     0.880923915687     1.007825032230
         H            2.003257761849    -1.166839651483     0.000059915687     1.007825032230
         H            2.500812761849     0.288355348517    -0.880848084313     1.007825032230
         H           -2.497267238151    -0.277724651483     0.880920915687     1.007825032230
         H           -1.999800238151     1.177473348517    -0.000027084313     1.007825032230
         H           -2.497323238151    -0.277781651483    -0.880849084313     1.007825032230

  Basis Set: AUG-CC-PVTZ
    Blend: AUG-CC-PVTZ
  Basis Set: (AUG-CC-PVTZ AUX)
    Blend: AUG-CC-PVTZ-JKFIT
	 Reference Energy          =    -156.1674152230013704 [Eh]
	 Singles Energy            =      -0.0000000000000000 [Eh]
	 Same-Spin Energy          =      -0.1622113581073381 [Eh]
	 Opposite-Spin Energy      =      -0.6063549071924853 [Eh]
	 Correlation Energy        =      -0.7685662652998233 [Eh]
	 Total Energy              =    -156.9359814883011950 [Eh]

	 ================> DF-SCS-MP2 Energies <==================
	-----------------------------------------------------------
	 SCS Same-Spin Scale       =       0.3333333333333333 [-]
	 SCS Opposite-Spin Scale   =       1.2000000000000000 [-]
	 SCS Same-Spin Energy      =      -0.0540704527024460 [Eh]
	 SCS Opposite-Spin Energy  =      -0.7276258886309823 [Eh]
	 SCS Correlation Energy    =      -0.7816963413334284 [Eh]
	 SCS Total Energy          =    -156.9491115643347996 [Eh]
	-----------------------------------------------------------

  Dipole Moment: [D]
     X:     0.0052      Y:    -0.0074      Z:     0.0001     Total:     0.0090

*** Psi4 exiting successfully. Buy a developer a beer!
