                               Psi4 1.3.2 release

  ==> Input File <==

--------------------------------------------------------------------------
#psi4
#
memory 32 gb

molecule  {
0 1
  C        0.5372180     0.4001580    -0.0000200
  C       -0.5372160    -0.4001420    -0.0000340
  C        1.9579460    -0.0793330     0.0000300
  C       -1.9879320    -0.0209501     0.0000052
  H        0.3872410     1.4808590    -0.0000070
  H       -0.3872320    -1.4808410    -0.0000340
  H        2.4990240     0.2830730     0.8809220
  H        2.0015130    -1.1721620     0.0000580
  H        2.4990680     0.2830330    -0.8808500
  H       -2.4990120    -0.2830470     0.8809190
  H       -2.0015450     1.1721510    -0.0000290
  H       -2.4990680    -0.2831040    -0.8808510
units angstrom
no_reorient  #important for SAPT in psi4, default
symmetry c1  #important for SAPT in psi4, default
}

set PROPERTIES_ORIGIN ["COM"]
properties('MP2/aug-cc-pvtz', properties = ['dipole'])
--------------------------------------------------------------------------

    Molecular point group: c1
  Charge       = 0
  Multiplicity = 1
  Basis Set: AUG-CC-PVTZ
    Blend: AUG-CC-PVTZ
  Basis Set: (AUG-CC-PVTZ AUX)
    Blend: AUG-CC-PVTZ-JKFIT

    Orbital Energies [Eh]
    ---------------------

    Doubly Occupied:

       1A    -11.227114     2A    -11.224533     3A    -11.219888
       4A    -11.219266     5A     -1.074897     6A     -0.984481
       7A     -0.878899     8A     -0.742598     9A     -0.609331
      10A     -0.597917    11A     -0.590576    12A     -0.560961
      13A     -0.515089    14A     -0.500395    15A     -0.466348
      16A     -0.344624

  @DF-RHF Final Energy:  -156.15723753798542

   => Energetics <=

    Nuclear Repulsion Energy =            115.5443248244026790
    One-Electron Energy =                -437.8892871202075412
    Two-Electron Energy =                 166.1877247578194385
    Total Energy =                       -156.1572375379854236
  Basis Set: (AUG-CC-PVTZ AUX)
    Blend: AUG-CC-PVTZ-RI
    Molecular point group: c1

    Geometry (in Angstrom), charge = 0, multiplicity = 1:

       Center              X                  Y                   Z               Mass
    ------------   -----------------  -----------------  -----------------  -----------------
         C            0.543636166200     0.421620498918    -0.000018276955    12.000000000000
         C           -0.530797833800    -0.378679501082    -0.000032276955    12.000000000000
         C            1.964364166200    -0.057870501082     0.000031723045    12.000000000000
         C           -1.981513833800     0.000512398918     0.000006923045    12.000000000000
         H            0.393659166200     1.502321498918    -0.000005276955     1.007825032230
         H           -0.380813833800    -1.459378501082    -0.000032276955     1.007825032230
         H            2.505442166200     0.304535498918     0.880923723045     1.007825032230
         H            2.007931166200    -1.150699501082     0.000059723045     1.007825032230
         H            2.505486166200     0.304495498918    -0.880848276955     1.007825032230
         H           -2.492593833800    -0.261584501082     0.880920723045     1.007825032230
         H           -1.995126833800     1.193613498918    -0.000027276955     1.007825032230
         H           -2.492649833800    -0.261641501082    -0.880849276955     1.007825032230

  Basis Set: AUG-CC-PVTZ
    Blend: AUG-CC-PVTZ
  Basis Set: (AUG-CC-PVTZ AUX)
    Blend: AUG-CC-PVTZ-JKFIT
	 Reference Energy          =    -156.1572375379854236 [Eh]
	 Singles Energy            =      -0.0000000000000000 [Eh]
	 Same-Spin Energy          =      -0.1623584603417698 [Eh]
	 Opposite-Spin Energy      =      -0.6069563254117600 [Eh]
	 Correlation Energy        =      -0.7693147857535299 [Eh]
	 Total Energy              =    -156.9265523237389459 [Eh]

	 ================> DF-SCS-MP2 Energies <==================
	-----------------------------------------------------------
	 SCS Same-Spin Scale       =       0.3333333333333333 [-]
	 SCS Opposite-Spin Scale   =       1.2000000000000000 [-]
	 SCS Same-Spin Energy      =      -0.0541194867805899 [Eh]
	 SCS Opposite-Spin Energy  =      -0.7283475904941120 [Eh]
	 SCS Correlation Energy    =      -0.7824670772747020 [Eh]
	 SCS Total Energy          =    -156.9397046152601263 [Eh]
	-----------------------------------------------------------

  Dipole Moment: [D]
     X:     0.0314      Y:    -0.0385      Z:     0.0001     Total:     0.0497

*** Psi4 exiting successfully. Buy a developer a beer!
