                               Psi4 1.3.2 release

  ==> Input File <==

--------------------------------------------------------------------------
#psi4
#
memory 32 gb

molecule  {
0 1
  C        0.5372180     0.4001580    -0.0000200
  C       -0.5372160    -0.4001420    -0.0000340
  C        1.9579460    -0.0793330     0.0000300
  C       -1.9210404     0.1772602     0.0000026
  H        0.3872410     1.4808590    -0.0000070
  H       -0.3872320    -1.4808410    -0.0000340
  H        2.4990240     0.2830730     0.8809220
  H        2.0015130    -1.1721620     0.0000580
  H        2.4990680     0.2830330    -0.8808500
  H       -2.4990120    -0.2830470     0.8809190
  H       -2.0015450     1.1721510    -0.0000290
  H       -2.4990680    -0.2831040    -0.8808510
units angstrom
no_reorient  #important for SAPT in psi4, default
symmetry c1  #important for SAPT in psi4, default
}

set PROPERTIES_ORIGIN ["COM"]
properties('MP2/aug-cc-pvtz', properties = ['dipole'])
--------------------------------------------------------------------------

    Molecular point group: c1
  Charge       = 0
  Multiplicity = 1
  Basis Set: AUG-CC-PVTZ
    Blend: AUG-CC-PVTZ
  Basis Set: (AUG-CC-PVTZ AUX)
    Blend: AUG-CC-PVTZ-JKFIT

    Orbital Energies [Eh]
    ---------------------

    Doubly Occupied:

       1A    -11.225339     2A    -11.221849     3A    -11.220175
       4A    -11.217216     5A     -1.076932     6A     -0.982370
       7A     -0.875330     8A     -0.747617     9A     -0.616175
      10A     -0.602123    11A     -0.564294    12A     -0.540500
      13A     -0.532107    14A     -0.504469    15A     -0.483113
      16A     -0.337090

  @DF-RHF Final Energy:  -156.15528325974964

   => Energetics <=

    Nuclear Repulsion Energy =            115.9299198610748647
    One-Electron Energy =                -438.6770083234233653
    Two-Electron Energy =                 166.5918052025988914
    Total Energy =                       -156.1552832597496376
  Basis Set: (AUG-CC-PVTZ AUX)
    Blend: AUG-CC-PVTZ-RI
    Molecular point group: c1

    Geometry (in Angstrom), charge = 0, multiplicity = 1:

       Center              X                  Y                   Z               Mass
    ------------   -----------------  -----------------  -----------------  -----------------
         C            0.529318257357     0.379194289840    -0.000017720434    12.000000000000
         C           -0.545115742643    -0.421105710160    -0.000031720434    12.000000000000
         C            1.950046257357    -0.100296710160     0.000032279566    12.000000000000
         C           -1.928940142643     0.156296489840     0.000004879566    12.000000000000
         H            0.379341257357     1.459895289840    -0.000004720434     1.007825032230
         H           -0.395131742643    -1.501804710160    -0.000031720434     1.007825032230
         H            2.491124257357     0.262109289840     0.880924279566     1.007825032230
         H            1.993613257357    -1.193125710160     0.000060279566     1.007825032230
         H            2.491168257357     0.262069289840    -0.880847720434     1.007825032230
         H           -2.506911742643    -0.304010710160     0.880921279566     1.007825032230
         H           -2.009444742643     1.151187289840    -0.000026720434     1.007825032230
         H           -2.506967742643    -0.304067710160    -0.880848720434     1.007825032230

  Basis Set: AUG-CC-PVTZ
    Blend: AUG-CC-PVTZ
  Basis Set: (AUG-CC-PVTZ AUX)
    Blend: AUG-CC-PVTZ-JKFIT
	 Reference Energy          =    -156.1552832597496376 [Eh]
	 Singles Energy            =      -0.0000000000000000 [Eh]
	 Same-Spin Energy          =      -0.1624220874649145 [Eh]
	 Opposite-Spin Energy      =      -0.6066949141461746 [Eh]
	 Correlation Energy        =      -0.7691170016110891 [Eh]
	 Total Energy              =    -156.9244002613607165 [Eh]

	 ================> DF-SCS-MP2 Energies <==================
	-----------------------------------------------------------
	 SCS Same-Spin Scale       =       0.3333333333333333 [-]
	 SCS Opposite-Spin Scale   =       1.2000000000000000 [-]
	 SCS Same-Spin Energy      =      -0.0541406958216382 [Eh]
	 SCS Opposite-Spin Energy  =      -0.7280338969754095 [Eh]
	 SCS Correlation Energy    =      -0.7821745927970477 [Eh]
	 SCS Total Energy          =    -156.9374578525466859 [Eh]
	-----------------------------------------------------------

  Dipole Moment: [D]
     X:     0.0001      Y:     0.0121      Z:     0.0001     Total:     0.0121

*** Psi4 exiting successfully. Buy a developer a beer!
