                               Psi4 1.3.2 release

  ==> Input File <==

--------------------------------------------------------------------------
#psi4
#
memory 32 gb

molecule  {
0 1
  C        0.5372180     0.4001580    -0.0000200
  C       -0.5372160    -0.4001420    -0.0000340
  C        1.9579460    -0.0793330     0.0000300
  C       -1.9403484     0.1286137     0.0000033
  H        0.3872410     1.4808590    -0.0000070
  H       -0.3872320    -1.4808410    -0.0000340
  H        2.4990240     0.2830730     0.8809220
  H        2.0015130    -1.1721620     0.0000580
  H        2.4990680     0.2830330    -0.8808500
  H       -2.4990120    -0.2830470     0.8809190
  H       -2.0015450     1.1721510    -0.0000290
  H       -2.4990680    -0.2831040    -0.8808510
units angstrom
no_reorient  #important for SAPT in psi4, default
symmetry c1  #important for SAPT in psi4, default
}

set PROPERTIES_ORIGIN ["COM"]
properties('MP2/aug-cc-pvtz', properties = ['dipole'])
--------------------------------------------------------------------------

    Molecular point group: c1
  Charge       = 0
  Multiplicity = 1
  Basis Set: AUG-CC-PVTZ
    Blend: AUG-CC-PVTZ
  Basis Set: (AUG-CC-PVTZ AUX)
    Blend: AUG-CC-PVTZ-JKFIT

    Orbital Energies [Eh]
    ---------------------

    Doubly Occupied:

       1A    -11.224775     2A    -11.222606     3A    -11.218662
       4A    -11.217615     5A     -1.075932     6A     -0.982292
       7A     -0.875282     8A     -0.745139     9A     -0.609639
      10A     -0.603500    11A     -0.565961    12A     -0.543824
      13A     -0.530622    14A     -0.506151    15A     -0.483312
      16A     -0.339123

  @DF-RHF Final Energy:  -156.16518476440459

   => Energetics <=

    Nuclear Repulsion Energy =            115.8196975559003192
    One-Electron Energy =                -438.4808946942032435
    Two-Electron Energy =                 166.4960123738983100
    Total Energy =                       -156.1651847644045858
  Basis Set: (AUG-CC-PVTZ AUX)
    Blend: AUG-CC-PVTZ-RI
    Molecular point group: c1

    Geometry (in Angstrom), charge = 0, multiplicity = 1:

       Center              X                  Y                   Z               Mass
    ------------   -----------------  -----------------  -----------------  -----------------
         C            0.533451066020     0.389606899981    -0.000017870267    12.000000000000
         C           -0.540982933980    -0.410693100019    -0.000031870267    12.000000000000
         C            1.954179066020    -0.089884100019     0.000032129733    12.000000000000
         C           -1.944115333980     0.118062599981     0.000005429733    12.000000000000
         H            0.383474066020     1.470307899981    -0.000004870267     1.007825032230
         H           -0.390998933980    -1.491392100019    -0.000031870267     1.007825032230
         H            2.495257066020     0.272521899981     0.880924129733     1.007825032230
         H            1.997746066020    -1.182713100019     0.000060129733     1.007825032230
         H            2.495301066020     0.272481899981    -0.880847870267     1.007825032230
         H           -2.502778933980    -0.293598100019     0.880921129733     1.007825032230
         H           -2.005311933980     1.161599899981    -0.000026870267     1.007825032230
         H           -2.502834933980    -0.293655100019    -0.880848870267     1.007825032230

  Basis Set: AUG-CC-PVTZ
    Blend: AUG-CC-PVTZ
  Basis Set: (AUG-CC-PVTZ AUX)
    Blend: AUG-CC-PVTZ-JKFIT
	 Reference Energy          =    -156.1651847644045858 [Eh]
	 Singles Energy            =      -0.0000000000000000 [Eh]
	 Same-Spin Energy          =      -0.1622656778620008 [Eh]
	 Opposite-Spin Energy      =      -0.6063364290397815 [Eh]
	 Correlation Energy        =      -0.7686021069017823 [Eh]
	 Total Energy              =    -156.9337868713063813 [Eh]

	 ================> DF-SCS-MP2 Energies <==================
	-----------------------------------------------------------
	 SCS Same-Spin Scale       =       0.3333333333333333 [-]
	 SCS Opposite-Spin Scale   =       1.2000000000000000 [-]
	 SCS Same-Spin Energy      =      -0.0540885592873336 [Eh]
	 SCS Opposite-Spin Energy  =      -0.7276037148477378 [Eh]
	 SCS Correlation Energy    =      -0.7816922741350714 [Eh]
	 SCS Total Energy          =    -156.9468770385396681 [Eh]
	-----------------------------------------------------------

  Dipole Moment: [D]
     X:    -0.0044      Y:     0.0096      Z:     0.0001     Total:     0.0106

*** Psi4 exiting successfully. Buy a developer a beer!
