                               Psi4 1.3.2 release

  ==> Input File <==

--------------------------------------------------------------------------
#psi4
#
memory 32 gb

molecule  {
0 1
  C        0.5372180     0.4001580    -0.0000200
  C       -0.5372160    -0.4001420    -0.0000340
  C        1.9579460    -0.0793330     0.0000300
  C       -2.0002818    -0.0718104     0.0000058
  H        0.3872410     1.4808590    -0.0000070
  H       -0.3872320    -1.4808410    -0.0000340
  H        2.4990240     0.2830730     0.8809220
  H        2.0015130    -1.1721620     0.0000580
  H        2.4990680     0.2830330    -0.8808500
  H       -2.4990120    -0.2830470     0.8809190
  H       -2.0015450     1.1721510    -0.0000290
  H       -2.4990680    -0.2831040    -0.8808510
units angstrom
no_reorient  #important for SAPT in psi4, default
symmetry c1  #important for SAPT in psi4, default
}

set PROPERTIES_ORIGIN ["COM"]
properties('MP2/aug-cc-pvtz', properties = ['dipole'])
--------------------------------------------------------------------------

    Molecular point group: c1
  Charge       = 0
  Multiplicity = 1
  Basis Set: AUG-CC-PVTZ
    Blend: AUG-CC-PVTZ
  Basis Set: (AUG-CC-PVTZ AUX)
    Blend: AUG-CC-PVTZ-JKFIT

    Orbital Energies [Eh]
    ---------------------

    Doubly Occupied:

       1A    -11.228599     2A    -11.225532     3A    -11.222257
       4A    -11.219934     5A     -1.075126     6A     -0.985839
       7A     -0.880698     8A     -0.743153     9A     -0.611627
      10A     -0.602530    11A     -0.595810    12A     -0.562269
      13A     -0.516904    14A     -0.496726    15A     -0.453087
      16A     -0.346317

  @DF-RHF Final Energy:  -156.14516326025915

   => Energetics <=

    Nuclear Repulsion Energy =            115.4604004110029081
    One-Electron Energy =                -437.6783099724849535
    Two-Electron Energy =                 166.0727463012228782
    Total Energy =                       -156.1451632602591530
  Basis Set: (AUG-CC-PVTZ AUX)
    Blend: AUG-CC-PVTZ-RI
    Molecular point group: c1

    Geometry (in Angstrom), charge = 0, multiplicity = 1:

       Center              X                  Y                   Z               Mass
    ------------   -----------------  -----------------  -----------------  -----------------
         C            0.546279596924     0.432506965068    -0.000018405383    12.000000000000
         C           -0.528154403076    -0.367793034932    -0.000032405383    12.000000000000
         C            1.967007596924    -0.046984034932     0.000031594617    12.000000000000
         C           -1.991220203076    -0.039461434932     0.000007394617    12.000000000000
         H            0.396302596924     1.513207965068    -0.000005405383     1.007825032230
         H           -0.378170403076    -1.448492034932    -0.000032405383     1.007825032230
         H            2.508085596924     0.315421965068     0.880923594617     1.007825032230
         H            2.010574596924    -1.139813034932     0.000059594617     1.007825032230
         H            2.508129596924     0.315381965068    -0.880848405383     1.007825032230
         H           -2.489950403076    -0.250698034932     0.880920594617     1.007825032230
         H           -1.992483403076     1.204499965068    -0.000027405383     1.007825032230
         H           -2.490006403076    -0.250755034932    -0.880849405383     1.007825032230

  Basis Set: AUG-CC-PVTZ
    Blend: AUG-CC-PVTZ
  Basis Set: (AUG-CC-PVTZ AUX)
    Blend: AUG-CC-PVTZ-JKFIT
	 Reference Energy          =    -156.1451632602591530 [Eh]
	 Singles Energy            =      -0.0000000000000000 [Eh]
	 Same-Spin Energy          =      -0.1625617907084634 [Eh]
	 Opposite-Spin Energy      =      -0.6076554359673875 [Eh]
	 Correlation Energy        =      -0.7702172266758509 [Eh]
	 Total Energy              =    -156.9153804869349926 [Eh]

	 ================> DF-SCS-MP2 Energies <==================
	-----------------------------------------------------------
	 SCS Same-Spin Scale       =       0.3333333333333333 [-]
	 SCS Opposite-Spin Scale   =       1.2000000000000000 [-]
	 SCS Same-Spin Energy      =      -0.0541872635694878 [Eh]
	 SCS Opposite-Spin Energy  =      -0.7291865231608650 [Eh]
	 SCS Correlation Energy    =      -0.7833737867303527 [Eh]
	 SCS Total Energy          =    -156.9285370469895042 [Eh]
	-----------------------------------------------------------

  Dipole Moment: [D]
     X:     0.0559      Y:    -0.0649      Z:     0.0001     Total:     0.0856

*** Psi4 exiting successfully. Buy a developer a beer!
