                               Psi4 1.3.2 release

  ==> Input File <==

--------------------------------------------------------------------------
#psi4
#
memory 32 gb

molecule  {
0 1
  C        0.5372180     0.4001580    -0.0000200
  C       -0.5372160    -0.4001420    -0.0000340
  C        1.9579460    -0.0793330     0.0000300
  C       -1.9000463     0.2252033     0.0000018
  H        0.3872410     1.4808590    -0.0000070
  H       -0.3872320    -1.4808410    -0.0000340
  H        2.4990240     0.2830730     0.8809220
  H        2.0015130    -1.1721620     0.0000580
  H        2.4990680     0.2830330    -0.8808500
  H       -2.4990120    -0.2830470     0.8809190
  H       -2.0015450     1.1721510    -0.0000290
  H       -2.4990680    -0.2831040    -0.8808510
units angstrom
no_reorient  #important for SAPT in psi4, default
symmetry c1  #important for SAPT in psi4, default
}

set PROPERTIES_ORIGIN ["COM"]
properties('MP2/aug-cc-pvtz', properties = ['dipole'])
--------------------------------------------------------------------------

    Molecular point group: c1
  Charge       = 0
  Multiplicity = 1
  Basis Set: AUG-CC-PVTZ
    Blend: AUG-CC-PVTZ
  Basis Set: (AUG-CC-PVTZ AUX)
    Blend: AUG-CC-PVTZ-JKFIT

    Orbital Energies [Eh]
    ---------------------

    Doubly Occupied:

       1A    -11.226492     2A    -11.222635     3A    -11.221179
       4A    -11.216904     5A     -1.078292     6A     -0.982935
       7A     -0.876424     8A     -0.750866     9A     -0.624152
      10A     -0.601147    11A     -0.563513    12A     -0.548316
      13A     -0.520262    14A     -0.503301    15A     -0.481129
      16A     -0.334913

  @DF-RHF Final Energy:  -156.13767984315183

   => Energetics <=

    Nuclear Repulsion Energy =            116.0537589260662941
    One-Electron Energy =                -438.8779583587037223
    Two-Electron Energy =                 166.6865195894856129
    Total Energy =                       -156.1376798431518296
  Basis Set: (AUG-CC-PVTZ AUX)
    Blend: AUG-CC-PVTZ-RI
    Molecular point group: c1

    Geometry (in Angstrom), charge = 0, multiplicity = 1:

       Center              X                  Y                   Z               Mass
    ------------   -----------------  -----------------  -----------------  -----------------
         C            0.524824544992     0.368932239964    -0.000017549197    12.000000000000
         C           -0.549609455008    -0.431367760036    -0.000031549197    12.000000000000
         C            1.945552544992    -0.110558760036     0.000032450803    12.000000000000
         C           -1.912439755008     0.193977539964     0.000004250803    12.000000000000
         H            0.374847544992     1.449633239964    -0.000004549197     1.007825032230
         H           -0.399625455008    -1.512066760036    -0.000031549197     1.007825032230
         H            2.486630544992     0.251847239964     0.880924450803     1.007825032230
         H            1.989119544992    -1.203387760036     0.000060450803     1.007825032230
         H            2.486674544992     0.251807239964    -0.880847549197     1.007825032230
         H           -2.511405455008    -0.314272760036     0.880921450803     1.007825032230
         H           -2.013938455008     1.140925239964    -0.000026549197     1.007825032230
         H           -2.511461455008    -0.314329760036    -0.880848549197     1.007825032230

  Basis Set: AUG-CC-PVTZ
    Blend: AUG-CC-PVTZ
  Basis Set: (AUG-CC-PVTZ AUX)
    Blend: AUG-CC-PVTZ-JKFIT
	 Reference Energy          =    -156.1376798431518296 [Eh]
	 Singles Energy            =      -0.0000000000000000 [Eh]
	 Same-Spin Energy          =      -0.1626805343752603 [Eh]
	 Opposite-Spin Energy      =      -0.6073912700007869 [Eh]
	 Correlation Energy        =      -0.7700718043760472 [Eh]
	 Total Energy              =    -156.9077516475278742 [Eh]

	 ================> DF-SCS-MP2 Energies <==================
	-----------------------------------------------------------
	 SCS Same-Spin Scale       =       0.3333333333333333 [-]
	 SCS Opposite-Spin Scale   =       1.2000000000000000 [-]
	 SCS Same-Spin Energy      =      -0.0542268447917534 [Eh]
	 SCS Opposite-Spin Energy  =      -0.7288695240009442 [Eh]
	 SCS Correlation Energy    =      -0.7830963687926976 [Eh]
	 SCS Total Energy          =    -156.9207762119445135 [Eh]
	-----------------------------------------------------------

  Dipole Moment: [D]
     X:     0.0144      Y:     0.0077      Z:     0.0001     Total:     0.0164

*** Psi4 exiting successfully. Buy a developer a beer!
