                               Psi4 1.3.2 release

  ==> Input File <==

--------------------------------------------------------------------------
#psi4
#
memory 32 gb

molecule  {
0 1
  C        0.5372180     0.4001580    -0.0000200
  C       -0.5372160    -0.4001420    -0.0000340
  C        1.9579460    -0.0793330     0.0000300
  C       -1.9493628     0.1040452     0.0000037
  H        0.3872410     1.4808590    -0.0000070
  H       -0.3872320    -1.4808410    -0.0000340
  H        2.4990240     0.2830730     0.8809220
  H        2.0015130    -1.1721620     0.0000580
  H        2.4990680     0.2830330    -0.8808500
  H       -2.4990120    -0.2830470     0.8809190
  H       -2.0015450     1.1721510    -0.0000290
  H       -2.4990680    -0.2831040    -0.8808510
units angstrom
no_reorient  #important for SAPT in psi4, default
symmetry c1  #important for SAPT in psi4, default
}

set PROPERTIES_ORIGIN ["COM"]
properties('MP2/aug-cc-pvtz', properties = ['dipole'])
--------------------------------------------------------------------------

    Molecular point group: c1
  Charge       = 0
  Multiplicity = 1
  Basis Set: AUG-CC-PVTZ
    Blend: AUG-CC-PVTZ
  Basis Set: (AUG-CC-PVTZ AUX)
    Blend: AUG-CC-PVTZ-JKFIT

    Orbital Energies [Eh]
    ---------------------

    Doubly Occupied:

       1A    -11.224754     2A    -11.222967     3A    -11.218259
       4A    -11.217846     5A     -1.075562     6A     -0.982420
       7A     -0.875565     8A     -0.744215     9A     -0.606934
      10A     -0.604316    11A     -0.567556    12A     -0.549121
      13A     -0.525312    14A     -0.507013    15A     -0.482643
      16A     -0.340095

  @DF-RHF Final Energy:  -156.16750118603693

   => Energetics <=

    Nuclear Repulsion Energy =            115.7689580381546506
    One-Electron Energy =                -438.3837593764579310
    Two-Electron Energy =                 166.4473001522663367
    Total Energy =                       -156.1675011860369295
  Basis Set: (AUG-CC-PVTZ AUX)
    Blend: AUG-CC-PVTZ-RI
    Molecular point group: c1

    Geometry (in Angstrom), charge = 0, multiplicity = 1:

       Center              X                  Y                   Z               Mass
    ------------   -----------------  -----------------  -----------------  -----------------
         C            0.535380566248     0.394865699941    -0.000017955885    12.000000000000
         C           -0.539053433752    -0.405434300059    -0.000031955885    12.000000000000
         C            1.956108566248    -0.084625300059     0.000032044115    12.000000000000
         C           -1.951200233752     0.098752899941     0.000005744115    12.000000000000
         H            0.385403566248     1.475566699941    -0.000004955885     1.007825032230
         H           -0.389069433752    -1.486133300059    -0.000031955885     1.007825032230
         H            2.497186566248     0.277780699941     0.880924044115     1.007825032230
         H            1.999675566248    -1.177454300059     0.000060044115     1.007825032230
         H            2.497230566248     0.277740699941    -0.880847955885     1.007825032230
         H           -2.500849433752    -0.288339300059     0.880921044115     1.007825032230
         H           -2.003382433752     1.166858699941    -0.000026955885     1.007825032230
         H           -2.500905433752    -0.288396300059    -0.880848955885     1.007825032230

  Basis Set: AUG-CC-PVTZ
    Blend: AUG-CC-PVTZ
  Basis Set: (AUG-CC-PVTZ AUX)
    Blend: AUG-CC-PVTZ-JKFIT
	 Reference Energy          =    -156.1675011860369295 [Eh]
	 Singles Energy            =      -0.0000000000000000 [Eh]
	 Same-Spin Energy          =      -0.1622241753581778 [Eh]
	 Opposite-Spin Energy      =      -0.6062726274921186 [Eh]
	 Correlation Energy        =      -0.7684968028502964 [Eh]
	 Total Energy              =    -156.9359979888872374 [Eh]

	 ================> DF-SCS-MP2 Energies <==================
	-----------------------------------------------------------
	 SCS Same-Spin Scale       =       0.3333333333333333 [-]
	 SCS Opposite-Spin Scale   =       1.2000000000000000 [-]
	 SCS Same-Spin Energy      =      -0.0540747251193926 [Eh]
	 SCS Opposite-Spin Energy  =      -0.7275271529905424 [Eh]
	 SCS Correlation Energy    =      -0.7816018781099350 [Eh]
	 SCS Total Energy          =    -156.9491030641468683 [Eh]
	-----------------------------------------------------------

  Dipole Moment: [D]
     X:    -0.0033      Y:     0.0057      Z:     0.0001     Total:     0.0066

*** Psi4 exiting successfully. Buy a developer a beer!
