                               Psi4 1.3.2 release

  ==> Input File <==

--------------------------------------------------------------------------
#psi4
#
memory 32 gb

molecule  {
0 1
  C        0.5372180     0.4001580    -0.0000200
  C       -0.5372160    -0.4001420    -0.0000340
  C        1.9579460    -0.0793330     0.0000300
  C       -1.9738146     0.0294481     0.0000046
  H        0.3872410     1.4808590    -0.0000070
  H       -0.3872320    -1.4808410    -0.0000340
  H        2.4990240     0.2830730     0.8809220
  H        2.0015130    -1.1721620     0.0000580
  H        2.4990680     0.2830330    -0.8808500
  H       -2.4990120    -0.2830470     0.8809190
  H       -2.0015450     1.1721510    -0.0000290
  H       -2.4990680    -0.2831040    -0.8808510
units angstrom
no_reorient  #important for SAPT in psi4, default
symmetry c1  #important for SAPT in psi4, default
}

set PROPERTIES_ORIGIN ["COM"]
properties('MP2/aug-cc-pvtz', properties = ['dipole'])
--------------------------------------------------------------------------

    Molecular point group: c1
  Charge       = 0
  Multiplicity = 1
  Basis Set: AUG-CC-PVTZ
    Blend: AUG-CC-PVTZ
  Basis Set: (AUG-CC-PVTZ AUX)
    Blend: AUG-CC-PVTZ-JKFIT

    Orbital Energies [Eh]
    ---------------------

    Doubly Occupied:

       1A    -11.225829     2A    -11.223828     3A    -11.218649
       4A    -11.218499     5A     -1.074938     6A     -0.983399
       7A     -0.877284     8A     -0.742680     9A     -0.607173
      10A     -0.600758    11A     -0.578981    12A     -0.558710
      13A     -0.514380    14A     -0.505766    15A     -0.476071
      16A     -0.342869

  @DF-RHF Final Energy:  -156.16524331610685

   => Energetics <=

    Nuclear Repulsion Energy =            115.6299597546913418
    One-Electron Energy =                -438.0907763412221811
    Two-Electron Energy =                 166.2955732704239722
    Total Energy =                       -156.1652433161068529
  Basis Set: (AUG-CC-PVTZ AUX)
    Blend: AUG-CC-PVTZ-RI
    Molecular point group: c1

    Geometry (in Angstrom), charge = 0, multiplicity = 1:

       Center              X                  Y                   Z               Mass
    ------------   -----------------  -----------------  -----------------  -----------------
         C            0.540614386989     0.410832943627    -0.000018148527    12.000000000000
         C           -0.533819613011    -0.389467056373    -0.000032148527    12.000000000000
         C            1.961342386989    -0.068658056373     0.000031851473    12.000000000000
         C           -1.970418213011     0.040123043627     0.000006451473    12.000000000000
         H            0.390637386989     1.491533943627    -0.000005148527     1.007825032230
         H           -0.383835613011    -1.470166056373    -0.000032148527     1.007825032230
         H            2.502420386989     0.293747943627     0.880923851473     1.007825032230
         H            2.004909386989    -1.161487056373     0.000059851473     1.007825032230
         H            2.502464386989     0.293707943627    -0.880848148527     1.007825032230
         H           -2.495615613011    -0.272372056373     0.880920851473     1.007825032230
         H           -1.998148613011     1.182825943627    -0.000027148527     1.007825032230
         H           -2.495671613011    -0.272429056373    -0.880849148527     1.007825032230

  Basis Set: AUG-CC-PVTZ
    Blend: AUG-CC-PVTZ
  Basis Set: (AUG-CC-PVTZ AUX)
    Blend: AUG-CC-PVTZ-JKFIT
	 Reference Energy          =    -156.1652433161068529 [Eh]
	 Singles Energy            =      -0.0000000000000000 [Eh]
	 Same-Spin Energy          =      -0.1622387801786974 [Eh]
	 Opposite-Spin Energy      =      -0.6064941025838418 [Eh]
	 Correlation Energy        =      -0.7687328827625393 [Eh]
	 Total Energy              =    -156.9339761988694022 [Eh]

	 ================> DF-SCS-MP2 Energies <==================
	-----------------------------------------------------------
	 SCS Same-Spin Scale       =       0.3333333333333333 [-]
	 SCS Opposite-Spin Scale   =       1.2000000000000000 [-]
	 SCS Same-Spin Energy      =      -0.0540795933928991 [Eh]
	 SCS Opposite-Spin Energy  =      -0.7277929231006102 [Eh]
	 SCS Correlation Energy    =      -0.7818725164935093 [Eh]
	 SCS Total Energy          =    -156.9471158326003604 [Eh]
	-----------------------------------------------------------

  Dipole Moment: [D]
     X:     0.0123      Y:    -0.0164      Z:     0.0001     Total:     0.0205

*** Psi4 exiting successfully. Buy a developer a beer!
