                               Psi4 1.3.2 release

  ==> Input File <==

--------------------------------------------------------------------------
#psi4
#
memory 32 gb

molecule  {
0 1
  O        1.2542850     1.5918540    -0.0000040
  N       -1.4703060     0.9792780     0.0000030
  N        1.7567070    -0.6653920     0.0000000
  N       -1.0359320    -1.2074830     0.0000000
  C       -0.5082200     0.0183690     0.0000050
  C        0.9183560     0.3972400     0.0000000
  C       -2.6756474     0.3291549    -0.0000011
  C       -2.3919160    -1.0020460    -0.0000030
  C        3.1975750    -0.5187580     0.0000000
  H       -1.2617080     1.9724600     0.0000090
  H        1.3219030    -1.5822740     0.0000070
  H       -3.6212920     0.8920510    -0.0000010
  H       -3.0881120    -1.8301820    -0.0000070
  H        3.4134050     0.5495780    -0.0000070
  H        3.6371680    -0.9759340    -0.8910250
  H        3.6371640    -0.9759210     0.8910330
units angstrom
no_reorient  #important for SAPT in psi4, default
symmetry c1  #important for SAPT in psi4, default
}

set PROPERTIES_ORIGIN ["COM"]
properties('MP2/aug-cc-pvtz', properties = ['dipole'])
--------------------------------------------------------------------------

    Molecular point group: c1
  Charge       = 0
  Multiplicity = 1
  Basis Set: AUG-CC-PVTZ
    Blend: AUG-CC-PVTZ
  Basis Set: (AUG-CC-PVTZ AUX)
    Blend: AUG-CC-PVTZ-JKFIT

    Orbital Energies [Eh]
    ---------------------

    Doubly Occupied:

       1A    -20.528013     2A    -15.634012     3A    -15.592607
       4A    -15.569939     5A    -11.366544     6A    -11.310626
       7A    -11.278333     8A    -11.263008     9A    -11.257450
      10A     -1.387222    11A     -1.349064    12A     -1.239947
      13A     -1.179619    14A     -1.040594    15A     -0.962619
      16A     -0.859592    17A     -0.824796    18A     -0.795884
      19A     -0.771886    20A     -0.667467    21A     -0.650228
      22A     -0.639177    23A     -0.617373    24A     -0.608744
      25A     -0.591930    26A     -0.586555    27A     -0.550579
      28A     -0.537038    29A     -0.464116    30A     -0.442513
      31A     -0.417518    32A     -0.395360    33A     -0.332100

  @DF-RHF Final Energy:  -431.79691278443505

   => Energetics <=

    Nuclear Repulsion Energy =            432.9810621264452948
    One-Electron Energy =               -1446.1310434433125920
    Two-Electron Energy =                 581.3530685324323031
    Total Energy =                       -431.7969127844349941
  Basis Set: (AUG-CC-PVTZ AUX)
    Blend: AUG-CC-PVTZ-RI
    Molecular point group: c1

    Geometry (in Angstrom), charge = 0, multiplicity = 1:

       Center              X                  Y                   Z               Mass
    ------------   -----------------  -----------------  -----------------  -----------------
         O            1.285323617789     1.578496294253    -0.000003983208    15.994914619570
         N           -1.439267382211     0.965920294253     0.000003016792    14.003074004430
         N            1.787745617789    -0.678749705747     0.000000016792    14.003074004430
         N           -1.004893382211    -1.220840705747     0.000000016792    14.003074004430
         C           -0.477181382211     0.005011294253     0.000005016792    12.000000000000
         C            0.949394617789     0.383882294253     0.000000016792    12.000000000000
         C           -2.644608782211     0.315797194253    -0.000001083208    12.000000000000
         C           -2.360877382211    -1.015403705747    -0.000002983208    12.000000000000
         C            3.228613617789    -0.532115705747     0.000000016792    12.000000000000
         H           -1.230669382211     1.959102294253     0.000009016792     1.007825032230
         H            1.352941617789    -1.595631705747     0.000007016792     1.007825032230
         H           -3.590253382211     0.878693294253    -0.000000983208     1.007825032230
         H           -3.057073382211    -1.843539705747    -0.000006983208     1.007825032230
         H            3.444443617789     0.536220294253    -0.000006983208     1.007825032230
         H            3.668206617789    -0.989291705747    -0.891024983208     1.007825032230
         H            3.668202617789    -0.989278705747     0.891033016792     1.007825032230

  Basis Set: AUG-CC-PVTZ
    Blend: AUG-CC-PVTZ
  Basis Set: (AUG-CC-PVTZ AUX)
    Blend: AUG-CC-PVTZ-JKFIT
	 Reference Energy          =    -431.7969127844350510 [Eh]
	 Singles Energy            =      -0.0000000000000000 [Eh]
	 Same-Spin Energy          =      -0.4554286198943988 [Eh]
	 Opposite-Spin Energy      =      -1.3791500276172535 [Eh]
	 Correlation Energy        =      -1.8345786475116523 [Eh]
	 Total Energy              =    -433.6314914319466993 [Eh]

	 ================> DF-SCS-MP2 Energies <==================
	-----------------------------------------------------------
	 SCS Same-Spin Scale       =       0.3333333333333333 [-]
	 SCS Opposite-Spin Scale   =       1.2000000000000000 [-]
	 SCS Same-Spin Energy      =      -0.1518095399647996 [Eh]
	 SCS Opposite-Spin Energy  =      -1.6549800331407041 [Eh]
	 SCS Correlation Energy    =      -1.8067895731055037 [Eh]
	 SCS Total Energy          =    -433.6037023575405556 [Eh]
	-----------------------------------------------------------

  Dipole Moment: [D]
     X:    -0.9701      Y:    -0.4084      Z:     0.0000     Total:     1.0525

*** Psi4 exiting successfully. Buy a developer a beer!
