                               Psi4 1.3.2 release

  ==> Input File <==

--------------------------------------------------------------------------
#psi4
#
memory 32 gb

molecule  {
0 1
  O        1.2542850     1.5918540    -0.0000040
  N       -1.4703060     0.9792780     0.0000030
  N        1.7567070    -0.6653920     0.0000000
  N       -1.0359320    -1.2074830     0.0000000
  C       -0.4374661    -0.0522984     0.0000051
  C        0.9183560     0.3972400     0.0000000
  C       -2.6868100     0.3502900    -0.0000010
  C       -2.3919160    -1.0020460    -0.0000030
  C        3.1975750    -0.5187580     0.0000000
  H       -1.2617080     1.9724600     0.0000090
  H        1.3219030    -1.5822740     0.0000070
  H       -3.6212920     0.8920510    -0.0000010
  H       -3.0881120    -1.8301820    -0.0000070
  H        3.4134050     0.5495780    -0.0000070
  H        3.6371680    -0.9759340    -0.8910250
  H        3.6371640    -0.9759210     0.8910330
units angstrom
no_reorient  #important for SAPT in psi4, default
symmetry c1  #important for SAPT in psi4, default
}

set PROPERTIES_ORIGIN ["COM"]
properties('MP2/aug-cc-pvtz', properties = ['dipole'])
--------------------------------------------------------------------------

    Molecular point group: c1
  Charge       = 0
  Multiplicity = 1
  Basis Set: AUG-CC-PVTZ
    Blend: AUG-CC-PVTZ
  Basis Set: (AUG-CC-PVTZ AUX)
    Blend: AUG-CC-PVTZ-JKFIT

    Orbital Energies [Eh]
    ---------------------

    Doubly Occupied:

       1A    -20.528486     2A    -15.627049     3A    -15.591736
       4A    -15.578024     5A    -11.364896     6A    -11.312302
       7A    -11.287561     8A    -11.262281     9A    -11.259547
      10A     -1.385654    11A     -1.334204    12A     -1.242007
      13A     -1.177649    14A     -1.043091    15A     -0.964276
      16A     -0.866507    17A     -0.825960    18A     -0.782734
      19A     -0.768559    20A     -0.674609    21A     -0.652916
      22A     -0.637900    23A     -0.609471    24A     -0.600337
      25A     -0.598448    26A     -0.584617    27A     -0.550441
      28A     -0.536156    29A     -0.463782    30A     -0.443518
      31A     -0.421850    32A     -0.395653    33A     -0.327120

  @DF-RHF Final Energy:  -431.78205386482853

   => Energetics <=

    Nuclear Repulsion Energy =            432.3867241428487205
    One-Electron Energy =               -1444.9388755582272097
    Two-Electron Energy =                 580.7700975505499628
    Total Energy =                       -431.7820538648285265
  Basis Set: (AUG-CC-PVTZ AUX)
    Blend: AUG-CC-PVTZ-RI
    Molecular point group: c1

    Geometry (in Angstrom), charge = 0, multiplicity = 1:

       Center              X                  Y                   Z               Mass
    ------------   -----------------  -----------------  -----------------  -----------------
         O            1.279605547886     1.583249155054    -0.000004002399    15.994914619570
         N           -1.444985452114     0.970673155054     0.000002997601    14.003074004430
         N            1.782027547886    -0.673996844946    -0.000000002399    14.003074004430
         N           -1.010611452114    -1.216087844946    -0.000000002399    14.003074004430
         C           -0.412145552114    -0.060903244946     0.000005097601    12.000000000000
         C            0.943676547886     0.388635155054    -0.000000002399    12.000000000000
         C           -2.661489452114     0.341685155054    -0.000001002399    12.000000000000
         C           -2.366595452114    -1.010650844946    -0.000003002399    12.000000000000
         C            3.222895547886    -0.527362844946    -0.000000002399    12.000000000000
         H           -1.236387452114     1.963855155054     0.000008997601     1.007825032230
         H            1.347223547886    -1.590878844946     0.000006997601     1.007825032230
         H           -3.595971452114     0.883446155054    -0.000001002399     1.007825032230
         H           -3.062791452114    -1.838786844946    -0.000007002399     1.007825032230
         H            3.438725547886     0.540973155054    -0.000007002399     1.007825032230
         H            3.662488547886    -0.984538844946    -0.891025002399     1.007825032230
         H            3.662484547886    -0.984525844946     0.891032997601     1.007825032230

  Basis Set: AUG-CC-PVTZ
    Blend: AUG-CC-PVTZ
  Basis Set: (AUG-CC-PVTZ AUX)
    Blend: AUG-CC-PVTZ-JKFIT
	 Reference Energy          =    -431.7820538648285265 [Eh]
	 Singles Energy            =      -0.0000000000000000 [Eh]
	 Same-Spin Energy          =      -0.4568315138922949 [Eh]
	 Opposite-Spin Energy      =      -1.3818630455442418 [Eh]
	 Correlation Energy        =      -1.8386945594365367 [Eh]
	 Total Energy              =    -433.6207484242650594 [Eh]

	 ================> DF-SCS-MP2 Energies <==================
	-----------------------------------------------------------
	 SCS Same-Spin Scale       =       0.3333333333333333 [-]
	 SCS Opposite-Spin Scale   =       1.2000000000000000 [-]
	 SCS Same-Spin Energy      =      -0.1522771712974316 [Eh]
	 SCS Opposite-Spin Energy  =      -1.6582356546530901 [Eh]
	 SCS Correlation Energy    =      -1.8105128259505217 [Eh]
	 SCS Total Energy          =    -433.5925666907790514 [Eh]
	-----------------------------------------------------------

  Dipole Moment: [D]
     X:    -0.9789      Y:    -0.5786      Z:     0.0000     Total:     1.1371

*** Psi4 exiting successfully. Buy a developer a beer!
