                               Psi4 1.3.2 release

  ==> Input File <==

--------------------------------------------------------------------------
#psi4
#
memory 32 gb

molecule  {
0 1
  O        1.2542850     1.5918540    -0.0000040
  N       -1.4703060     0.9792780     0.0000030
  N        1.8287903    -0.6043231    -0.0000003
  N       -1.0359320    -1.2074830     0.0000000
  C       -0.5082200     0.0183690     0.0000050
  C        0.9183560     0.3972400     0.0000000
  C       -2.6868100     0.3502900    -0.0000010
  C       -2.3919160    -1.0020460    -0.0000030
  C        3.1975750    -0.5187580     0.0000000
  H       -1.2617080     1.9724600     0.0000090
  H        1.3219030    -1.5822740     0.0000070
  H       -3.6212920     0.8920510    -0.0000010
  H       -3.0881120    -1.8301820    -0.0000070
  H        3.4134050     0.5495780    -0.0000070
  H        3.6371680    -0.9759340    -0.8910250
  H        3.6371640    -0.9759210     0.8910330
units angstrom
no_reorient  #important for SAPT in psi4, default
symmetry c1  #important for SAPT in psi4, default
}

set PROPERTIES_ORIGIN ["COM"]
properties('MP2/aug-cc-pvtz', properties = ['dipole'])
--------------------------------------------------------------------------

    Molecular point group: c1
  Charge       = 0
  Multiplicity = 1
  Basis Set: AUG-CC-PVTZ
    Blend: AUG-CC-PVTZ
  Basis Set: (AUG-CC-PVTZ AUX)
    Blend: AUG-CC-PVTZ-JKFIT

    Orbital Energies [Eh]
    ---------------------

    Doubly Occupied:

       1A    -20.523918     2A    -15.638650     3A    -15.595221
       4A    -15.574269     5A    -11.366613     6A    -11.315090
       7A    -11.282519     8A    -11.262978     9A    -11.255901
      10A     -1.388105    11A     -1.350561    12A     -1.244263
      13A     -1.183600    14A     -1.043222    15A     -0.968335
      16A     -0.857085    17A     -0.826954    18A     -0.795423
      19A     -0.759331    20A     -0.674530    21A     -0.656514
      22A     -0.644718    23A     -0.615994    24A     -0.613332
      25A     -0.605154    26A     -0.588888    27A     -0.534100
      28A     -0.532172    29A     -0.466653    30A     -0.441428
      31A     -0.419382    32A     -0.388231    33A     -0.331414

  @DF-RHF Final Energy:  -431.78246726728685

   => Energetics <=

    Nuclear Repulsion Energy =            432.8650855534564243
    One-Electron Energy =               -1445.8060093048770796
    Two-Electron Energy =                 581.1584564841338079
    Total Energy =                       -431.7824672672868473
  Basis Set: (AUG-CC-PVTZ AUX)
    Blend: AUG-CC-PVTZ-RI
    Molecular point group: c1

    Geometry (in Angstrom), charge = 0, multiplicity = 1:

       Center              X                  Y                   Z               Mass
    ------------   -----------------  -----------------  -----------------  -----------------
         O            1.278323424269     1.569630284549    -0.000003959212    15.994914619570
         N           -1.446267575731     0.957054284549     0.000003040788    14.003074004430
         N            1.852828724269    -0.626546815451    -0.000000259212    14.003074004430
         N           -1.011893575731    -1.229706715451     0.000000040788    14.003074004430
         C           -0.484181575731    -0.003854715451     0.000005040788    12.000000000000
         C            0.942394424269     0.375016284549     0.000000040788    12.000000000000
         C           -2.662771575731     0.328066284549    -0.000000959212    12.000000000000
         C           -2.367877575731    -1.024269715451    -0.000002959212    12.000000000000
         C            3.221613424269    -0.540981715451     0.000000040788    12.000000000000
         H           -1.237669575731     1.950236284549     0.000009040788     1.007825032230
         H            1.345941424269    -1.604497715451     0.000007040788     1.007825032230
         H           -3.597253575731     0.869827284549    -0.000000959212     1.007825032230
         H           -3.064073575731    -1.852405715451    -0.000006959212     1.007825032230
         H            3.437443424269     0.527354284549    -0.000006959212     1.007825032230
         H            3.661206424269    -0.998157715451    -0.891024959212     1.007825032230
         H            3.661202424269    -0.998144715451     0.891033040788     1.007825032230

  Basis Set: AUG-CC-PVTZ
    Blend: AUG-CC-PVTZ
  Basis Set: (AUG-CC-PVTZ AUX)
    Blend: AUG-CC-PVTZ-JKFIT
	 Reference Energy          =    -431.7824672672868473 [Eh]
	 Singles Energy            =      -0.0000000000000000 [Eh]
	 Same-Spin Energy          =      -0.4569083694340947 [Eh]
	 Opposite-Spin Energy      =      -1.3812885363400440 [Eh]
	 Correlation Energy        =      -1.8381969057741387 [Eh]
	 Total Energy              =    -433.6206641730609590 [Eh]

	 ================> DF-SCS-MP2 Energies <==================
	-----------------------------------------------------------
	 SCS Same-Spin Scale       =       0.3333333333333333 [-]
	 SCS Opposite-Spin Scale   =       1.2000000000000000 [-]
	 SCS Same-Spin Energy      =      -0.1523027898113649 [Eh]
	 SCS Opposite-Spin Energy  =      -1.6575462436080528 [Eh]
	 SCS Correlation Energy    =      -1.8098490334194177 [Eh]
	 SCS Total Energy          =    -433.5923163007062726 [Eh]
	-----------------------------------------------------------

  Dipole Moment: [D]
     X:    -1.2500      Y:    -0.4607      Z:     0.0000     Total:     1.3322

*** Psi4 exiting successfully. Buy a developer a beer!
