                               Psi4 1.3.2 release

  ==> Input File <==

--------------------------------------------------------------------------
#psi4
#
memory 32 gb

molecule  {
0 1
  O        1.2542850     1.5918540    -0.0000040
  N       -1.4703060     0.9792780     0.0000030
  N        1.7567070    -0.6653920     0.0000000
  N       -1.0359320    -1.2074830     0.0000000
  C       -0.5082200     0.0183690     0.0000050
  C        0.9183560     0.3972400     0.0000000
  C       -2.6976021     0.3716167    -0.0000009
  C       -2.3919160    -1.0020460    -0.0000030
  C        3.1975750    -0.5187580     0.0000000
  H       -1.2617080     1.9724600     0.0000090
  H        1.3219030    -1.5822740     0.0000070
  H       -3.6212920     0.8920510    -0.0000010
  H       -3.0881120    -1.8301820    -0.0000070
  H        3.4134050     0.5495780    -0.0000070
  H        3.6371680    -0.9759340    -0.8910250
  H        3.6371640    -0.9759210     0.8910330
units angstrom
no_reorient  #important for SAPT in psi4, default
symmetry c1  #important for SAPT in psi4, default
}

set PROPERTIES_ORIGIN ["COM"]
properties('MP2/aug-cc-pvtz', properties = ['dipole'])
--------------------------------------------------------------------------

    Molecular point group: c1
  Charge       = 0
  Multiplicity = 1
  Basis Set: AUG-CC-PVTZ
    Blend: AUG-CC-PVTZ
  Basis Set: (AUG-CC-PVTZ AUX)
    Blend: AUG-CC-PVTZ-JKFIT

    Orbital Energies [Eh]
    ---------------------

    Doubly Occupied:

       1A    -20.527400     2A    -15.637336     3A    -15.592503
       4A    -15.572045     5A    -11.366477     6A    -11.310246
       7A    -11.281064     8A    -11.263852     9A    -11.262948
      10A     -1.386560    11A     -1.346882    12A     -1.239895
      13A     -1.181014    14A     -1.036612    15A     -0.961604
      16A     -0.857831    17A     -0.825103    18A     -0.798878
      19A     -0.773585    20A     -0.671183    21A     -0.651452
      22A     -0.638643    23A     -0.611254    24A     -0.607587
      25A     -0.599052    26A     -0.586048    27A     -0.550496
      28A     -0.536335    29A     -0.464716    30A     -0.442360
      31A     -0.418740    32A     -0.395344    33A     -0.325502

  @DF-RHF Final Energy:  -431.79508868851877

   => Energetics <=

    Nuclear Repulsion Energy =            432.2102059025847325
    One-Electron Energy =               -1444.5694904621691421
    Two-Electron Energy =                 580.5641958710656354
    Total Energy =                       -431.7950886885188311
  Basis Set: (AUG-CC-PVTZ AUX)
    Blend: AUG-CC-PVTZ-RI
    Molecular point group: c1

    Geometry (in Angstrom), charge = 0, multiplicity = 1:

       Center              X                  Y                   Z               Mass
    ------------   -----------------  -----------------  -----------------  -----------------
         O            1.287430276131     1.574421881702    -0.000004002399    15.994914619570
         N           -1.437160723869     0.961845881702     0.000002997601    14.003074004430
         N            1.789852276131    -0.682824118298    -0.000000002399    14.003074004430
         N           -1.002786723869    -1.224915118298    -0.000000002399    14.003074004430
         C           -0.475074723869     0.000936881702     0.000004997601    12.000000000000
         C            0.951501276131     0.379807881702    -0.000000002399    12.000000000000
         C           -2.664456823869     0.354184581702    -0.000000902399    12.000000000000
         C           -2.358770723869    -1.019478118298    -0.000003002399    12.000000000000
         C            3.230720276131    -0.536190118298    -0.000000002399    12.000000000000
         H           -1.228562723869     1.955027881702     0.000008997601     1.007825032230
         H            1.355048276131    -1.599706118298     0.000006997601     1.007825032230
         H           -3.588146723869     0.874618881702    -0.000001002399     1.007825032230
         H           -3.054966723869    -1.847614118298    -0.000007002399     1.007825032230
         H            3.446550276131     0.532145881702    -0.000007002399     1.007825032230
         H            3.670313276131    -0.993366118298    -0.891025002399     1.007825032230
         H            3.670309276131    -0.993353118298     0.891032997601     1.007825032230

  Basis Set: AUG-CC-PVTZ
    Blend: AUG-CC-PVTZ
  Basis Set: (AUG-CC-PVTZ AUX)
    Blend: AUG-CC-PVTZ-JKFIT
	 Reference Energy          =    -431.7950886885187742 [Eh]
	 Singles Energy            =      -0.0000000000000000 [Eh]
	 Same-Spin Energy          =      -0.4560387689333338 [Eh]
	 Opposite-Spin Energy      =      -1.3801890344403169 [Eh]
	 Correlation Energy        =      -1.8362278033736508 [Eh]
	 Total Energy              =    -433.6313164918924485 [Eh]

	 ================> DF-SCS-MP2 Energies <==================
	-----------------------------------------------------------
	 SCS Same-Spin Scale       =       0.3333333333333333 [-]
	 SCS Opposite-Spin Scale   =       1.2000000000000000 [-]
	 SCS Same-Spin Energy      =      -0.1520129229777779 [Eh]
	 SCS Opposite-Spin Energy  =      -1.6562268413283803 [Eh]
	 SCS Correlation Energy    =      -1.8082397643061583 [Eh]
	 SCS Total Energy          =    -433.6033284528249396 [Eh]
	-----------------------------------------------------------

  Dipole Moment: [D]
     X:    -0.9795      Y:    -0.3927      Z:     0.0000     Total:     1.0553

*** Psi4 exiting successfully. Buy a developer a beer!
