                               Psi4 1.3.2 release

  ==> Input File <==

--------------------------------------------------------------------------
#psi4
#
memory 32 gb

molecule  {
0 1
  O        1.2542850     1.5918540    -0.0000040
  N       -1.4703060     0.9792780     0.0000030
  N        1.7567070    -0.6653920     0.0000000
  N       -1.0359320    -1.2074830     0.0000000
  C       -0.5082200     0.0183690     0.0000050
  C        0.9183560     0.3972400     0.0000000
  C       -2.6868100     0.3502900    -0.0000010
  C       -2.3683594    -0.9966934    -0.0000030
  C        3.1975750    -0.5187580     0.0000000
  H       -1.2617080     1.9724600     0.0000090
  H        1.3219030    -1.5822740     0.0000070
  H       -3.6212920     0.8920510    -0.0000010
  H       -3.0881120    -1.8301820    -0.0000070
  H        3.4134050     0.5495780    -0.0000070
  H        3.6371680    -0.9759340    -0.8910250
  H        3.6371640    -0.9759210     0.8910330
units angstrom
no_reorient  #important for SAPT in psi4, default
symmetry c1  #important for SAPT in psi4, default
}

set PROPERTIES_ORIGIN ["COM"]
properties('MP2/aug-cc-pvtz', properties = ['dipole'])
--------------------------------------------------------------------------

    Molecular point group: c1
  Charge       = 0
  Multiplicity = 1
  Basis Set: AUG-CC-PVTZ
    Blend: AUG-CC-PVTZ
  Basis Set: (AUG-CC-PVTZ AUX)
    Blend: AUG-CC-PVTZ-JKFIT

    Orbital Energies [Eh]
    ---------------------

    Doubly Occupied:

       1A    -20.527201     2A    -15.636679     3A    -15.592436
       4A    -15.570252     5A    -11.366138     6A    -11.309979
       7A    -11.278439     8A    -11.262910     9A    -11.260621
      10A     -1.387162    11A     -1.350777    12A     -1.239859
      13A     -1.185485    14A     -1.038207    15A     -0.961795
      16A     -0.859950    17A     -0.823163    18A     -0.798155
      19A     -0.772836    20A     -0.669128    21A     -0.651299
      22A     -0.639488    23A     -0.614248    24A     -0.609170
      25A     -0.594246    26A     -0.584785    27A     -0.550426
      28A     -0.536689    29A     -0.465291    30A     -0.442561
      31A     -0.421235    32A     -0.395767    33A     -0.327096

  @DF-RHF Final Energy:  -431.79620429849211

   => Energetics <=

    Nuclear Repulsion Energy =            433.0932348150681719
    One-Electron Energy =               -1446.3319351739926333
    Two-Electron Energy =                 581.4424960604324042
    Total Energy =                       -431.7962042984920572
  Basis Set: (AUG-CC-PVTZ AUX)
    Blend: AUG-CC-PVTZ-RI
    Molecular point group: c1

    Geometry (in Angstrom), charge = 0, multiplicity = 1:

       Center              X                  Y                   Z               Mass
    ------------   -----------------  -----------------  -----------------  -----------------
         O            1.284134354282     1.575954672906    -0.000003992803    15.994914619570
         N           -1.440456645718     0.963378672906     0.000003007197    14.003074004430
         N            1.786556354282    -0.681291327094     0.000000007197    14.003074004430
         N           -1.006082645718    -1.223382327094     0.000000007197    14.003074004430
         C           -0.478370645718     0.002469672906     0.000005007197    12.000000000000
         C            0.948205354282     0.381340672906     0.000000007197    12.000000000000
         C           -2.656960645718     0.334390672906    -0.000000992803    12.000000000000
         C           -2.338510045718    -1.012592727094    -0.000002992803    12.000000000000
         C            3.227424354282    -0.534657327094     0.000000007197    12.000000000000
         H           -1.231858645718     1.956560672906     0.000009007197     1.007825032230
         H            1.351752354282    -1.598173327094     0.000007007197     1.007825032230
         H           -3.591442645718     0.876151672906    -0.000000992803     1.007825032230
         H           -3.058262645718    -1.846081327094    -0.000006992803     1.007825032230
         H            3.443254354282     0.533678672906    -0.000006992803     1.007825032230
         H            3.667017354282    -0.991833327094    -0.891024992803     1.007825032230
         H            3.667013354282    -0.991820327094     0.891033007197     1.007825032230

  Basis Set: AUG-CC-PVTZ
    Blend: AUG-CC-PVTZ
  Basis Set: (AUG-CC-PVTZ AUX)
    Blend: AUG-CC-PVTZ-JKFIT
	 Reference Energy          =    -431.7962042984921140 [Eh]
	 Singles Energy            =      -0.0000000000000000 [Eh]
	 Same-Spin Energy          =      -0.4559124659265890 [Eh]
	 Opposite-Spin Energy      =      -1.3794741439829874 [Eh]
	 Correlation Energy        =      -1.8353866099095764 [Eh]
	 Total Energy              =    -433.6315909084016766 [Eh]

	 ================> DF-SCS-MP2 Energies <==================
	-----------------------------------------------------------
	 SCS Same-Spin Scale       =       0.3333333333333333 [-]
	 SCS Opposite-Spin Scale   =       1.2000000000000000 [-]
	 SCS Same-Spin Energy      =      -0.1519708219755296 [Eh]
	 SCS Opposite-Spin Energy  =      -1.6553689727795848 [Eh]
	 SCS Correlation Energy    =      -1.8073397947551144 [Eh]
	 SCS Total Energy          =    -433.6035440932472511 [Eh]
	-----------------------------------------------------------

  Dipole Moment: [D]
     X:    -0.9767      Y:    -0.3955      Z:     0.0000     Total:     1.0538

*** Psi4 exiting successfully. Buy a developer a beer!
