                               Psi4 1.3.2 release

  ==> Input File <==

--------------------------------------------------------------------------
#psi4
#
memory 32 gb

molecule  {
0 1
  O        1.2542850     1.5918540    -0.0000040
  N       -1.4112230     0.8486730     0.0000029
  N        1.7567070    -0.6653920     0.0000000
  N       -1.0359320    -1.2074830     0.0000000
  C       -0.5082200     0.0183690     0.0000050
  C        0.9183560     0.3972400     0.0000000
  C       -2.6868100     0.3502900    -0.0000010
  C       -2.3919160    -1.0020460    -0.0000030
  C        3.1975750    -0.5187580     0.0000000
  H       -1.2617080     1.9724600     0.0000090
  H        1.3219030    -1.5822740     0.0000070
  H       -3.6212920     0.8920510    -0.0000010
  H       -3.0881120    -1.8301820    -0.0000070
  H        3.4134050     0.5495780    -0.0000070
  H        3.6371680    -0.9759340    -0.8910250
  H        3.6371640    -0.9759210     0.8910330
units angstrom
no_reorient  #important for SAPT in psi4, default
symmetry c1  #important for SAPT in psi4, default
}

set PROPERTIES_ORIGIN ["COM"]
properties('MP2/aug-cc-pvtz', properties = ['dipole'])
--------------------------------------------------------------------------

    Molecular point group: c1
  Charge       = 0
  Multiplicity = 1
  Basis Set: AUG-CC-PVTZ
    Blend: AUG-CC-PVTZ
  Basis Set: (AUG-CC-PVTZ AUX)
    Blend: AUG-CC-PVTZ-JKFIT

    Orbital Energies [Eh]
    ---------------------

    Doubly Occupied:

       1A    -20.530207     2A    -15.642070     3A    -15.594090
       4A    -15.552475     5A    -11.368268     6A    -11.296167
       7A    -11.269448     8A    -11.263803     9A    -11.259645
      10A     -1.404219    11A     -1.369786    12A     -1.240944
      13A     -1.166645    14A     -1.053054    15A     -0.966632
      16A     -0.849187    17A     -0.823236    18A     -0.797373
      19A     -0.775895    20A     -0.677161    21A     -0.653617
      22A     -0.650896    23A     -0.618133    24A     -0.611397
      25A     -0.587018    26A     -0.575100    27A     -0.551388
      28A     -0.538735    29A     -0.455441    30A     -0.440446
      31A     -0.410268    32A     -0.394852    33A     -0.334018

  @DF-RHF Final Energy:  -431.76386346808840

   => Energetics <=

    Nuclear Repulsion Energy =            435.9894091065096404
    One-Electron Energy =               -1452.0633119460580929
    Two-Electron Energy =                 584.3100393714601068
    Total Energy =                       -431.7638634680884024
  Basis Set: (AUG-CC-PVTZ AUX)
    Blend: AUG-CC-PVTZ-RI
    Molecular point group: c1

    Geometry (in Angstrom), charge = 0, multiplicity = 1:

       Center              X                  Y                   Z               Mass
    ------------   -----------------  -----------------  -----------------  -----------------
         O            1.279779091524     1.591092360034    -0.000003981606    15.994914619570
         N           -1.385728908476     0.847911360034     0.000002918394    14.003074004430
         N            1.782201091524    -0.666153639966     0.000000018394    14.003074004430
         N           -1.010437908476    -1.208244639966     0.000000018394    14.003074004430
         C           -0.482725908476     0.017607360034     0.000005018394    12.000000000000
         C            0.943850091524     0.396478360034     0.000000018394    12.000000000000
         C           -2.661315908476     0.349528360034    -0.000000981606    12.000000000000
         C           -2.366421908476    -1.002807639966    -0.000002981606    12.000000000000
         C            3.223069091524    -0.519519639966     0.000000018394    12.000000000000
         H           -1.236213908476     1.971698360034     0.000009018394     1.007825032230
         H            1.347397091524    -1.583035639966     0.000007018394     1.007825032230
         H           -3.595797908476     0.891289360034    -0.000000981606     1.007825032230
         H           -3.062617908476    -1.830943639966    -0.000006981606     1.007825032230
         H            3.438899091524     0.548816360034    -0.000006981606     1.007825032230
         H            3.662662091524    -0.976695639966    -0.891024981606     1.007825032230
         H            3.662658091524    -0.976682639966     0.891033018394     1.007825032230

  Basis Set: AUG-CC-PVTZ
    Blend: AUG-CC-PVTZ
  Basis Set: (AUG-CC-PVTZ AUX)
    Blend: AUG-CC-PVTZ-JKFIT
	 Reference Energy          =    -431.7638634680884024 [Eh]
	 Singles Energy            =      -0.0000000000000000 [Eh]
	 Same-Spin Energy          =      -0.4567055523785660 [Eh]
	 Opposite-Spin Energy      =      -1.3800614016666937 [Eh]
	 Correlation Energy        =      -1.8367669540452596 [Eh]
	 Total Energy              =    -433.6006304221336904 [Eh]

	 ================> DF-SCS-MP2 Energies <==================
	-----------------------------------------------------------
	 SCS Same-Spin Scale       =       0.3333333333333333 [-]
	 SCS Opposite-Spin Scale   =       1.2000000000000000 [-]
	 SCS Same-Spin Energy      =      -0.1522351841261887 [Eh]
	 SCS Opposite-Spin Energy  =      -1.6560736820000324 [Eh]
	 SCS Correlation Energy    =      -1.8083088661262210 [Eh]
	 SCS Total Energy          =    -433.5721723342145992 [Eh]
	-----------------------------------------------------------

  Dipole Moment: [D]
     X:    -0.8948      Y:    -0.1062      Z:     0.0000     Total:     0.9011

*** Psi4 exiting successfully. Buy a developer a beer!
