                               Psi4 1.3.2 release

  ==> Input File <==

--------------------------------------------------------------------------
#psi4
#
memory 32 gb

molecule  {
0 1
  O        1.2542850     1.5918540    -0.0000040
  N       -1.4703060     0.9792780     0.0000030
  N        1.7567070    -0.6653920     0.0000000
  N       -1.0359320    -1.2074830     0.0000000
  C       -0.5251367     0.0017246     0.0000048
  C        0.9183560     0.3972400     0.0000000
  C       -2.6868100     0.3502900    -0.0000010
  C       -2.3919160    -1.0020460    -0.0000030
  C        3.1975750    -0.5187580     0.0000000
  H       -1.2617080     1.9724600     0.0000090
  H        1.3219030    -1.5822740     0.0000070
  H       -3.6212920     0.8920510    -0.0000010
  H       -3.0881120    -1.8301820    -0.0000070
  H        3.4134050     0.5495780    -0.0000070
  H        3.6371680    -0.9759340    -0.8910250
  H        3.6371640    -0.9759210     0.8910330
units angstrom
no_reorient  #important for SAPT in psi4, default
symmetry c1  #important for SAPT in psi4, default
}

set PROPERTIES_ORIGIN ["COM"]
properties('MP2/aug-cc-pvtz', properties = ['dipole'])
--------------------------------------------------------------------------

    Molecular point group: c1
  Charge       = 0
  Multiplicity = 1
  Basis Set: AUG-CC-PVTZ
    Blend: AUG-CC-PVTZ
  Basis Set: (AUG-CC-PVTZ AUX)
    Blend: AUG-CC-PVTZ-JKFIT

    Orbital Energies [Eh]
    ---------------------

    Doubly Occupied:

       1A    -20.528425     2A    -15.633219     3A    -15.592779
       4A    -15.569270     5A    -11.367524     6A    -11.310138
       7A    -11.278963     8A    -11.263054     9A    -11.259788
      10A     -1.386758    11A     -1.350715    12A     -1.239962
      13A     -1.184922    14A     -1.036125    15A     -0.961723
      16A     -0.855365    17A     -0.825746    18A     -0.797779
      19A     -0.772543    20A     -0.667813    21A     -0.650661
      22A     -0.638903    23A     -0.615065    24A     -0.609245
      25A     -0.596423    26A     -0.583990    27A     -0.550673
      28A     -0.536642    29A     -0.467756    30A     -0.440720
      31A     -0.420303    32A     -0.395619    33A     -0.329369

  @DF-RHF Final Energy:  -431.79787363817474

   => Energetics <=

    Nuclear Repulsion Energy =            432.6643817553196527
    One-Electron Energy =               -1445.4885525390473049
    Two-Electron Energy =                 581.0262971455529168
    Total Energy =                       -431.7978736381746785
  Basis Set: (AUG-CC-PVTZ AUX)
    Blend: AUG-CC-PVTZ-RI
    Molecular point group: c1

    Geometry (in Angstrom), charge = 0, multiplicity = 1:

       Center              X                  Y                   Z               Mass
    ------------   -----------------  -----------------  -----------------  -----------------
         O            1.288017960759     1.578065390136    -0.000003973612    15.994914619570
         N           -1.436573039241     0.965489390136     0.000003026388    14.003074004430
         N            1.790439960759    -0.679180609864     0.000000026388    14.003074004430
         N           -1.002199039241    -1.221271609864     0.000000026388    14.003074004430
         C           -0.491403739241    -0.012064009864     0.000004826388    12.000000000000
         C            0.952088960759     0.383451390136     0.000000026388    12.000000000000
         C           -2.653077039241     0.336501390136    -0.000000973612    12.000000000000
         C           -2.358183039241    -1.015834609864    -0.000002973612    12.000000000000
         C            3.231307960759    -0.532546609864     0.000000026388    12.000000000000
         H           -1.227975039241     1.958671390136     0.000009026388     1.007825032230
         H            1.355635960759    -1.596062609864     0.000007026388     1.007825032230
         H           -3.587559039241     0.878262390136    -0.000000973612     1.007825032230
         H           -3.054379039241    -1.843970609864    -0.000006973612     1.007825032230
         H            3.447137960759     0.535789390136    -0.000006973612     1.007825032230
         H            3.670900960759    -0.989722609864    -0.891024973612     1.007825032230
         H            3.670896960759    -0.989709609864     0.891033026388     1.007825032230

  Basis Set: AUG-CC-PVTZ
    Blend: AUG-CC-PVTZ
  Basis Set: (AUG-CC-PVTZ AUX)
    Blend: AUG-CC-PVTZ-JKFIT
	 Reference Energy          =    -431.7978736381747353 [Eh]
	 Singles Energy            =      -0.0000000000000000 [Eh]
	 Same-Spin Energy          =      -0.4550637685970720 [Eh]
	 Opposite-Spin Energy      =      -1.3785822576017774 [Eh]
	 Correlation Energy        =      -1.8336460261988494 [Eh]
	 Total Energy              =    -433.6315196643735703 [Eh]

	 ================> DF-SCS-MP2 Energies <==================
	-----------------------------------------------------------
	 SCS Same-Spin Scale       =       0.3333333333333333 [-]
	 SCS Opposite-Spin Scale   =       1.2000000000000000 [-]
	 SCS Same-Spin Energy      =      -0.1516879228656907 [Eh]
	 SCS Opposite-Spin Energy  =      -1.6542987091221328 [Eh]
	 SCS Correlation Energy    =      -1.8059866319878235 [Eh]
	 SCS Total Energy          =    -433.6038602701625564 [Eh]
	-----------------------------------------------------------

  Dipole Moment: [D]
     X:    -0.9116      Y:    -0.4115      Z:     0.0000     Total:     1.0002

*** Psi4 exiting successfully. Buy a developer a beer!
