                               Psi4 1.4a3.dev225

  ==> Input File <==

--------------------------------------------------------------------------
#psi4
#
memory 32 gb

molecule  {
0 1
  O        1.2542850     1.5918540    -0.0000040
  N       -1.4703060     0.9792780     0.0000030
  N        1.7567070    -0.6653920     0.0000000
  N       -1.0359320    -1.2074830     0.0000000
  C       -0.4940692     0.0042355     0.0000050
  C        0.9183560     0.3972400     0.0000000
  C       -2.6868100     0.3502900    -0.0000010
  C       -2.3919160    -1.0020460    -0.0000030
  C        3.1975750    -0.5187580     0.0000000
  H       -1.2617080     1.9724600     0.0000090
  H        1.3219030    -1.5822740     0.0000070
  H       -3.6212920     0.8920510    -0.0000010
  H       -3.0881120    -1.8301820    -0.0000070
  H        3.4134050     0.5495780    -0.0000070
  H        3.6371680    -0.9759340    -0.8910250
  H        3.6371640    -0.9759210     0.8910330
units angstrom
no_reorient  #important for SAPT in psi4, default
symmetry c1  #important for SAPT in psi4, default
}

set PROPERTIES_ORIGIN ["COM"]
properties('MP2/aug-cc-pvtz', properties = ['dipole'])
--------------------------------------------------------------------------

    Molecular point group: c1
  Charge       = 0
  Multiplicity = 1
  Basis Set: AUG-CC-PVTZ
    Blend: AUG-CC-PVTZ
  Basis Set: (AUG-CC-PVTZ AUX)
    Blend: AUG-CC-PVTZ-JKFIT

    Orbital Energies [Eh]
    ---------------------

    Doubly Occupied:

       1A    -20.527819     2A    -15.634087     3A    -15.592324
       4A    -15.572396     5A    -11.366087     6A    -11.310687
       7A    -11.281391     8A    -11.262802     9A    -11.260428
      10A     -1.386363    11A     -1.344716    12A     -1.240240
      13A     -1.179800    14A     -1.039349    15A     -0.962396
      16A     -0.860113    17A     -0.824956    18A     -0.793808
      19A     -0.772420    20A     -0.669916    21A     -0.651366
      22A     -0.638398    23A     -0.612534    24A     -0.606406
      25A     -0.596284    26A     -0.587653    27A     -0.550488
      28A     -0.536569    29A     -0.464530    30A     -0.442862
      31A     -0.418670    32A     -0.395339    33A     -0.328650

  @DF-RHF Final Energy:  -431.79574607926133

   => Energetics <=

    Nuclear Repulsion Energy =            432.5405813749243293
    One-Electron Energy =               -1445.2489574236435601
    Two-Electron Energy =                 580.9126299694578393
    Total Energy =                       -431.7957460792613347
  Basis Set: (AUG-CC-PVTZ AUX)
    Blend: AUG-CC-PVTZ-RI
    Molecular point group: c1

    Geometry (in Angstrom), charge = 0, multiplicity = 1:

       Center              X                  Y                   Z               Mass
    ------------   -----------------  -----------------  -----------------  -----------------
         O            1.285036885724     1.577824457286    -0.000003992803    15.994914619570
         N           -1.439554114276     0.965248457286     0.000003007197    14.003074004430
         N            1.787458885724    -0.679421542714     0.000000007197    14.003074004430
         N           -1.005180114276    -1.221512542714     0.000000007197    14.003074004430
         C           -0.463317314276    -0.009794042714     0.000005007197    12.000000000000
         C            0.949107885724     0.383210457286     0.000000007197    12.000000000000
         C           -2.656058114276     0.336260457286    -0.000000992803    12.000000000000
         C           -2.361164114276    -1.016075542714    -0.000002992803    12.000000000000
         C            3.228326885724    -0.532787542714     0.000000007197    12.000000000000
         H           -1.230956114276     1.958430457286     0.000009007197     1.007825032230
         H            1.352654885724    -1.596303542714     0.000007007197     1.007825032230
         H           -3.590540114276     0.878021457286    -0.000000992803     1.007825032230
         H           -3.057360114276    -1.844211542714    -0.000006992803     1.007825032230
         H            3.444156885724     0.535548457286    -0.000006992803     1.007825032230
         H            3.667919885724    -0.989963542714    -0.891024992803     1.007825032230
         H            3.667915885724    -0.989950542714     0.891033007197     1.007825032230

  Basis Set: AUG-CC-PVTZ
    Blend: AUG-CC-PVTZ
  Basis Set: (AUG-CC-PVTZ AUX)
    Blend: AUG-CC-PVTZ-JKFIT
	 Reference Energy          =    -431.7957460792613347 [Eh]
	 Singles Energy            =      -0.0000000000000000 [Eh]
	 Same-Spin Energy          =      -0.4558946888909865 [Eh]
	 Opposite-Spin Energy      =      -1.3799886785554674 [Eh]
	 Correlation Energy        =      -1.8358833674464539 [Eh]
	 Total Energy              =    -433.6316294467077910 [Eh]

	 ================> DF-SCS-MP2 Energies <==================
	-----------------------------------------------------------
	 SCS Same-Spin Scale       =       0.3333333333333333 [-]
	 SCS Opposite-Spin Scale   =       1.2000000000000000 [-]
	 SCS Same-Spin Energy      =      -0.1519648962969955 [Eh]
	 SCS Opposite-Spin Energy  =      -1.6559864142665608 [Eh]
	 SCS Correlation Energy    =      -1.8079513105635563 [Eh]
	 SCS Total Energy          =    -433.6036973898249016 [Eh]
	-----------------------------------------------------------

  Dipole Moment: [D]
     X:    -0.9830      Y:    -0.4338      Z:     0.0000     Total:     1.0744

*** Psi4 exiting successfully. Buy a developer a beer!
