                               Psi4 1.3.2 release

  ==> Input File <==

--------------------------------------------------------------------------
#psi4
#
memory 32 gb

molecule  {
0 1
  O        1.2542850     1.5918540    -0.0000040
  N       -1.4703060     0.9792780     0.0000030
  N        1.7567070    -0.6653920     0.0000000
  N       -1.0359320    -1.2074830     0.0000000
  C       -0.5082200     0.0183690     0.0000050
  C        0.9183560     0.3972400     0.0000000
  C       -2.5979811     0.3962186    -0.0000007
  C       -2.3919160    -1.0020460    -0.0000030
  C        3.1975750    -0.5187580     0.0000000
  H       -1.2617080     1.9724600     0.0000090
  H        1.3219030    -1.5822740     0.0000070
  H       -3.6212920     0.8920510    -0.0000010
  H       -3.0881120    -1.8301820    -0.0000070
  H        3.4134050     0.5495780    -0.0000070
  H        3.6371680    -0.9759340    -0.8910250
  H        3.6371640    -0.9759210     0.8910330
units angstrom
no_reorient  #important for SAPT in psi4, default
symmetry c1  #important for SAPT in psi4, default
}

set PROPERTIES_ORIGIN ["COM"]
properties('MP2/aug-cc-pvtz', properties = ['dipole'])
--------------------------------------------------------------------------

    Molecular point group: c1
  Charge       = 0
  Multiplicity = 1
  Basis Set: AUG-CC-PVTZ
    Blend: AUG-CC-PVTZ
  Basis Set: (AUG-CC-PVTZ AUX)
    Blend: AUG-CC-PVTZ-JKFIT

    Orbital Energies [Eh]
    ---------------------

    Doubly Occupied:

       1A    -20.523978     2A    -15.642333     3A    -15.588931
       4A    -15.574825     5A    -11.363124     6A    -11.301342
       7A    -11.283240     8A    -11.260882     9A    -11.257929
      10A     -1.393204    11A     -1.364624    12A     -1.237925
      13A     -1.194553    14A     -1.035488    15A     -0.957707
      16A     -0.857449    17A     -0.835836    18A     -0.804030
      19A     -0.769595    20A     -0.680750    21A     -0.645982
      22A     -0.644993    23A     -0.614991    24A     -0.614191
      25A     -0.586932    26A     -0.581864    27A     -0.548108
      28A     -0.537158    29A     -0.462244    30A     -0.439674
      31A     -0.427050    32A     -0.394141    33A     -0.317853

  @DF-RHF Final Energy:  -431.78428176884825

   => Energetics <=

    Nuclear Repulsion Energy =            434.3640090314625581
    One-Electron Energy =               -1448.8107297978774568
    Two-Electron Energy =                 582.6624389975667100
    Total Energy =                       -431.7842817688482455
  Basis Set: (AUG-CC-PVTZ AUX)
    Blend: AUG-CC-PVTZ-RI
    Molecular point group: c1

    Geometry (in Angstrom), charge = 0, multiplicity = 1:

       Center              X                  Y                   Z               Mass
    ------------   -----------------  -----------------  -----------------  -----------------
         O            1.277871165291     1.572061211874    -0.000004021590    15.994914619570
         N           -1.446719834709     0.959485211874     0.000002978410    14.003074004430
         N            1.780293165291    -0.685184788126    -0.000000021590    14.003074004430
         N           -1.012345834709    -1.227275788126    -0.000000021590    14.003074004430
         C           -0.484633834709    -0.001423788126     0.000004978410    12.000000000000
         C            0.941942165291     0.377447211874    -0.000000021590    12.000000000000
         C           -2.574394934709     0.376425811874    -0.000000721590    12.000000000000
         C           -2.368329834709    -1.021838788126    -0.000003021590    12.000000000000
         C            3.221161165291    -0.538550788126    -0.000000021590    12.000000000000
         H           -1.238121834709     1.952667211874     0.000008978410     1.007825032230
         H            1.345489165291    -1.602066788126     0.000006978410     1.007825032230
         H           -3.597705834709     0.872258211874    -0.000001021590     1.007825032230
         H           -3.064525834709    -1.849974788126    -0.000007021590     1.007825032230
         H            3.436991165291     0.529785211874    -0.000007021590     1.007825032230
         H            3.660754165291    -0.995726788126    -0.891025021590     1.007825032230
         H            3.660750165291    -0.995713788126     0.891032978410     1.007825032230

  Basis Set: AUG-CC-PVTZ
    Blend: AUG-CC-PVTZ
  Basis Set: (AUG-CC-PVTZ AUX)
    Blend: AUG-CC-PVTZ-JKFIT
	 Reference Energy          =    -431.7842817688482455 [Eh]
	 Singles Energy            =      -0.0000000000000000 [Eh]
	 Same-Spin Energy          =      -0.4565416551135390 [Eh]
	 Opposite-Spin Energy      =      -1.3790433556481279 [Eh]
	 Correlation Energy        =      -1.8355850107616669 [Eh]
	 Total Energy              =    -433.6198667796099357 [Eh]

	 ================> DF-SCS-MP2 Energies <==================
	-----------------------------------------------------------
	 SCS Same-Spin Scale       =       0.3333333333333333 [-]
	 SCS Opposite-Spin Scale   =       1.2000000000000000 [-]
	 SCS Same-Spin Energy      =      -0.1521805517045130 [Eh]
	 SCS Opposite-Spin Energy  =      -1.6548520267777533 [Eh]
	 SCS Correlation Energy    =      -1.8070325784822663 [Eh]
	 SCS Total Energy          =    -433.5913143473305240 [Eh]
	-----------------------------------------------------------

  Dipole Moment: [D]
     X:    -1.0696      Y:    -0.2924      Z:     0.0000     Total:     1.1089

*** Psi4 exiting successfully. Buy a developer a beer!
