                               Psi4 1.3.2 release

  ==> Input File <==

--------------------------------------------------------------------------
#psi4
#
memory 32 gb

molecule  {
0 1
  O        1.2542850     1.5918540    -0.0000040
  N       -1.4009328     1.0440490     0.0000034
  N        1.7567070    -0.6653920     0.0000000
  N       -1.0359320    -1.2074830     0.0000000
  C       -0.5082200     0.0183690     0.0000050
  C        0.9183560     0.3972400     0.0000000
  C       -2.6868100     0.3502900    -0.0000010
  C       -2.3919160    -1.0020460    -0.0000030
  C        3.1975750    -0.5187580     0.0000000
  H       -1.2617080     1.9724600     0.0000090
  H        1.3219030    -1.5822740     0.0000070
  H       -3.6212920     0.8920510    -0.0000010
  H       -3.0881120    -1.8301820    -0.0000070
  H        3.4134050     0.5495780    -0.0000070
  H        3.6371680    -0.9759340    -0.8910250
  H        3.6371640    -0.9759210     0.8910330
units angstrom
no_reorient  #important for SAPT in psi4, default
symmetry c1  #important for SAPT in psi4, default
}

set PROPERTIES_ORIGIN ["COM"]
properties('MP2/aug-cc-pvtz', properties = ['dipole'])
--------------------------------------------------------------------------

    Molecular point group: c1
  Charge       = 0
  Multiplicity = 1
  Basis Set: AUG-CC-PVTZ
    Blend: AUG-CC-PVTZ
  Basis Set: (AUG-CC-PVTZ AUX)
    Blend: AUG-CC-PVTZ-JKFIT

    Orbital Energies [Eh]
    ---------------------

    Doubly Occupied:

       1A    -20.528059     2A    -15.628661     3A    -15.593030
       4A    -15.572180     5A    -11.365131     6A    -11.319723
       7A    -11.284843     8A    -11.268300     9A    -11.263050
      10A     -1.386280    11A     -1.334889    12A     -1.240167
      13A     -1.184461    14A     -1.034341    15A     -0.961331
      16A     -0.873766    17A     -0.825773    18A     -0.797737
      19A     -0.771968    20A     -0.656050    21A     -0.651787
      22A     -0.637009    23A     -0.629699    24A     -0.602228
      25A     -0.593044    26A     -0.578936    27A     -0.550651
      28A     -0.533983    29A     -0.467215    30A     -0.442935
      31A     -0.418464    32A     -0.395456    33A     -0.332644

  @DF-RHF Final Energy:  -431.78340548147207

   => Energetics <=

    Nuclear Repulsion Energy =            431.7585139525821205
    One-Electron Energy =               -1443.6362554645709224
    Two-Electron Energy =                 580.0943360305167289
    Total Energy =                       -431.7834054814720730
  Basis Set: (AUG-CC-PVTZ AUX)
    Blend: AUG-CC-PVTZ-RI
    Molecular point group: c1

    Geometry (in Angstrom), charge = 0, multiplicity = 1:

       Center              X                  Y                   Z               Mass
    ------------   -----------------  -----------------  -----------------  -----------------
         O            1.278626879099     1.569215753673    -0.000004037592    15.994914619570
         N           -1.376590920901     1.021410753673     0.000003362408    14.003074004430
         N            1.781048879099    -0.688030246327    -0.000000037592    14.003074004430
         N           -1.011590120901    -1.230121246327    -0.000000037592    14.003074004430
         C           -0.483878120901    -0.004269246327     0.000004962408    12.000000000000
         C            0.942697879099     0.374601753673    -0.000000037592    12.000000000000
         C           -2.662468120901     0.327651753673    -0.000001037592    12.000000000000
         C           -2.367574120901    -1.024684246327    -0.000003037592    12.000000000000
         C            3.221916879099    -0.541396246327    -0.000000037592    12.000000000000
         H           -1.237366120901     1.949821753673     0.000008962408     1.007825032230
         H            1.346244879099    -1.604912246327     0.000006962408     1.007825032230
         H           -3.596950120901     0.869412753673    -0.000001037592     1.007825032230
         H           -3.063770120901    -1.852820246327    -0.000007037592     1.007825032230
         H            3.437746879099     0.526939753673    -0.000007037592     1.007825032230
         H            3.661509879099    -0.998572246327    -0.891025037592     1.007825032230
         H            3.661505879099    -0.998559246327     0.891032962408     1.007825032230

  Basis Set: AUG-CC-PVTZ
    Blend: AUG-CC-PVTZ
  Basis Set: (AUG-CC-PVTZ AUX)
    Blend: AUG-CC-PVTZ-JKFIT
	 Reference Energy          =    -431.7834054814720730 [Eh]
	 Singles Energy            =      -0.0000000000000000 [Eh]
	 Same-Spin Energy          =      -0.4547327875154761 [Eh]
	 Opposite-Spin Energy      =      -1.3802886910486971 [Eh]
	 Correlation Energy        =      -1.8350214785641732 [Eh]
	 Total Energy              =    -433.6184269600362313 [Eh]

	 ================> DF-SCS-MP2 Energies <==================
	-----------------------------------------------------------
	 SCS Same-Spin Scale       =       0.3333333333333333 [-]
	 SCS Opposite-Spin Scale   =       1.2000000000000000 [-]
	 SCS Same-Spin Energy      =      -0.1515775958384920 [Eh]
	 SCS Opposite-Spin Energy  =      -1.6563464292584364 [Eh]
	 SCS Correlation Energy    =      -1.8079240250969284 [Eh]
	 SCS Total Energy          =    -433.5913295065690249 [Eh]
	-----------------------------------------------------------

  Dipole Moment: [D]
     X:    -0.9961      Y:    -0.6218      Z:     0.0000     Total:     1.1742

*** Psi4 exiting successfully. Buy a developer a beer!
