                               Psi4 1.3.2 release

  ==> Input File <==

--------------------------------------------------------------------------
#psi4
#
memory 32 gb

molecule  {
0 1
  O        1.2542850     1.5918540    -0.0000040
  N       -1.4703060     0.9792780     0.0000030
  N        1.7567070    -0.6653920     0.0000000
  N       -1.1201576    -1.1676856     0.0000007
  C       -0.5082200     0.0183690     0.0000050
  C        0.9183560     0.3972400     0.0000000
  C       -2.6868100     0.3502900    -0.0000010
  C       -2.3919160    -1.0020460    -0.0000030
  C        3.1975750    -0.5187580     0.0000000
  H       -1.2617080     1.9724600     0.0000090
  H        1.3219030    -1.5822740     0.0000070
  H       -3.6212920     0.8920510    -0.0000010
  H       -3.0881120    -1.8301820    -0.0000070
  H        3.4134050     0.5495780    -0.0000070
  H        3.6371680    -0.9759340    -0.8910250
  H        3.6371640    -0.9759210     0.8910330
units angstrom
no_reorient  #important for SAPT in psi4, default
symmetry c1  #important for SAPT in psi4, default
}

set PROPERTIES_ORIGIN ["COM"]
properties('MP2/aug-cc-pvtz', properties = ['dipole'])
--------------------------------------------------------------------------

    Molecular point group: c1
  Charge       = 0
  Multiplicity = 1
  Basis Set: AUG-CC-PVTZ
    Blend: AUG-CC-PVTZ
  Basis Set: (AUG-CC-PVTZ AUX)
    Blend: AUG-CC-PVTZ-JKFIT

    Orbital Energies [Eh]
    ---------------------

    Doubly Occupied:

       1A    -20.527070     2A    -15.637744     3A    -15.593130
       4A    -15.559292     5A    -11.367917     6A    -11.304667
       7A    -11.275424     8A    -11.263247     9A    -11.251825
      10A     -1.388497    11A     -1.357636    12A     -1.239868
      13A     -1.192487    14A     -1.039089    15A     -0.961839
      16A     -0.861854    17A     -0.832859    18A     -0.793123
      19A     -0.772213    20A     -0.675837    21A     -0.651097
      22A     -0.640609    23A     -0.617044    24A     -0.611194
      25A     -0.605419    26A     -0.589362    27A     -0.550545
      28A     -0.537650    29A     -0.450885    30A     -0.440279
      31A     -0.426414    32A     -0.397504    33A     -0.322063

  @DF-RHF Final Energy:  -431.79074724245947

   => Energetics <=

    Nuclear Repulsion Energy =            433.8897244260364232
    One-Electron Energy =               -1447.8895754118980221
    Two-Electron Energy =                 582.2091037434021246
    Total Energy =                       -431.7907472424594744
  Basis Set: (AUG-CC-PVTZ AUX)
    Blend: AUG-CC-PVTZ-RI
    Molecular point group: c1

    Geometry (in Angstrom), charge = 0, multiplicity = 1:

       Center              X                  Y                   Z               Mass
    ------------   -----------------  -----------------  -----------------  -----------------
         O            1.295825616330     1.572012093124    -0.000004071184    15.994914619570
         N           -1.428765383670     0.959436093124     0.000002928816    14.003074004430
         N            1.798247616330    -0.685233906876    -0.000000071184    14.003074004430
         N           -1.078616983670    -1.187527506876     0.000000628816    14.003074004430
         C           -0.466679383670    -0.001472906876     0.000004928816    12.000000000000
         C            0.959896616330     0.377398093124    -0.000000071184    12.000000000000
         C           -2.645269383670     0.330448093124    -0.000001071184    12.000000000000
         C           -2.350375383670    -1.021887906876    -0.000003071184    12.000000000000
         C            3.239115616330    -0.538599906876    -0.000000071184    12.000000000000
         H           -1.220167383670     1.952618093124     0.000008928816     1.007825032230
         H            1.363443616330    -1.602115906876     0.000006928816     1.007825032230
         H           -3.579751383670     0.872209093124    -0.000001071184     1.007825032230
         H           -3.046571383670    -1.850023906876    -0.000007071184     1.007825032230
         H            3.454945616330     0.529736093124    -0.000007071184     1.007825032230
         H            3.678708616330    -0.995775906876    -0.891025071184     1.007825032230
         H            3.678704616330    -0.995762906876     0.891032928816     1.007825032230

  Basis Set: AUG-CC-PVTZ
    Blend: AUG-CC-PVTZ
  Basis Set: (AUG-CC-PVTZ AUX)
    Blend: AUG-CC-PVTZ-JKFIT
	 Reference Energy          =    -431.7907472424594744 [Eh]
	 Singles Energy            =      -0.0000000000000000 [Eh]
	 Same-Spin Energy          =      -0.4563143702344122 [Eh]
	 Opposite-Spin Energy      =      -1.3783524317276576 [Eh]
	 Correlation Energy        =      -1.8346668019620700 [Eh]
	 Total Energy              =    -433.6254140444215182 [Eh]

	 ================> DF-SCS-MP2 Energies <==================
	-----------------------------------------------------------
	 SCS Same-Spin Scale       =       0.3333333333333333 [-]
	 SCS Opposite-Spin Scale   =       1.2000000000000000 [-]
	 SCS Same-Spin Energy      =      -0.1521047900781374 [Eh]
	 SCS Opposite-Spin Energy  =      -1.6540229180731891 [Eh]
	 SCS Correlation Energy    =      -1.8061277081513265 [Eh]
	 SCS Total Energy          =    -433.5968749506108111 [Eh]
	-----------------------------------------------------------

  Dipole Moment: [D]
     X:    -0.8486      Y:    -0.5327      Z:     0.0000     Total:     1.0020

*** Psi4 exiting successfully. Buy a developer a beer!
