                               Psi4 1.4a3.dev225

  ==> Input File <==

--------------------------------------------------------------------------
#psi4
#
memory 32 gb

molecule  {
0 1
  O        1.2542850     1.5918540    -0.0000040
  N       -1.4703060     0.9792780     0.0000030
  N        1.7567070    -0.6653920     0.0000000
  N       -1.0359320    -1.2074830     0.0000000
  C       -0.5082200     0.0183690     0.0000050
  C        0.9183560     0.3972400     0.0000000
  C       -2.6868100     0.3502900    -0.0000010
  C       -2.4116903    -0.9990501    -0.0000030
  C        3.1975750    -0.5187580     0.0000000
  H       -1.2617080     1.9724600     0.0000090
  H        1.3219030    -1.5822740     0.0000070
  H       -3.6212920     0.8920510    -0.0000010
  H       -3.0881120    -1.8301820    -0.0000070
  H        3.4134050     0.5495780    -0.0000070
  H        3.6371680    -0.9759340    -0.8910250
  H        3.6371640    -0.9759210     0.8910330
units angstrom
no_reorient  #important for SAPT in psi4, default
symmetry c1  #important for SAPT in psi4, default
}

set PROPERTIES_ORIGIN ["COM"]
properties('MP2/aug-cc-pvtz', properties = ['dipole'])
--------------------------------------------------------------------------

    Molecular point group: c1
  Charge       = 0
  Multiplicity = 1
  Basis Set: AUG-CC-PVTZ
    Blend: AUG-CC-PVTZ
  Basis Set: (AUG-CC-PVTZ AUX)
    Blend: AUG-CC-PVTZ-JKFIT

    Orbital Energies [Eh]
    ---------------------

    Doubly Occupied:

       1A    -20.528265     2A    -15.634281     3A    -15.592800
       4A    -15.571381     5A    -11.366910     6A    -11.311076
       7A    -11.279860     8A    -11.263122     9A    -11.260255
      10A     -1.386894    11A     -1.346001    12A     -1.240099
      13A     -1.175735    14A     -1.039533    15A     -0.962723
      16A     -0.858250    17A     -0.825064    18A     -0.796877
      19A     -0.772837    20A     -0.668431    21A     -0.650865
      22A     -0.638605    23A     -0.615554    24A     -0.607529
      25A     -0.595714    26A     -0.586492    27A     -0.550724
      28A     -0.536839    29A     -0.464183    30A     -0.442325
      31A     -0.415395    32A     -0.394880    33A     -0.331329

  @DF-RHF Final Energy:  -431.79654953322387

   => Energetics <=

    Nuclear Repulsion Energy =            432.2798964665103085
    One-Electron Energy =               -1444.7312362725308503
    Two-Electron Energy =                 580.6547902727967312
    Total Energy =                       -431.7965495332238106
  Basis Set: (AUG-CC-PVTZ AUX)
    Blend: AUG-CC-PVTZ-RI
    Molecular point group: c1

    Geometry (in Angstrom), charge = 0, multiplicity = 1:

       Center              X                  Y                   Z               Mass
    ------------   -----------------  -----------------  -----------------  -----------------
         O            1.288292161129     1.576180809529    -0.000003992803    15.994914619570
         N           -1.436298838871     0.963604809529     0.000003007197    14.003074004430
         N            1.790714161129    -0.681065190471     0.000000007197    14.003074004430
         N           -1.001924838871    -1.223156190471     0.000000007197    14.003074004430
         C           -0.474212838871     0.002695809529     0.000005007197    12.000000000000
         C            0.952363161129     0.381566809529     0.000000007197    12.000000000000
         C           -2.652802838871     0.334616809529    -0.000000992803    12.000000000000
         C           -2.377683138871    -1.014723290471    -0.000002992803    12.000000000000
         C            3.231582161129    -0.534431190471     0.000000007197    12.000000000000
         H           -1.227700838871     1.956786809529     0.000009007197     1.007825032230
         H            1.355910161129    -1.597947190471     0.000007007197     1.007825032230
         H           -3.587284838871     0.876377809529    -0.000000992803     1.007825032230
         H           -3.054104838871    -1.845855190471    -0.000006992803     1.007825032230
         H            3.447412161129     0.533904809529    -0.000006992803     1.007825032230
         H            3.671175161129    -0.991607190471    -0.891024992803     1.007825032230
         H            3.671171161129    -0.991594190471     0.891033007197     1.007825032230

  Basis Set: AUG-CC-PVTZ
    Blend: AUG-CC-PVTZ
  Basis Set: (AUG-CC-PVTZ AUX)
    Blend: AUG-CC-PVTZ-JKFIT
	 Reference Energy          =    -431.7965495332238675 [Eh]
	 Singles Energy            =      -0.0000000000000000 [Eh]
	 Same-Spin Energy          =      -0.4554768956386238 [Eh]
	 Opposite-Spin Energy      =      -1.3796753183154524 [Eh]
	 Correlation Energy        =      -1.8351522139540761 [Eh]
	 Total Energy              =    -433.6317017471779423 [Eh]

	 ================> DF-SCS-MP2 Energies <==================
	-----------------------------------------------------------
	 SCS Same-Spin Scale       =       0.3333333333333333 [-]
	 SCS Opposite-Spin Scale   =       1.2000000000000000 [-]
	 SCS Same-Spin Energy      =      -0.1518256318795413 [Eh]
	 SCS Opposite-Spin Energy  =      -1.6556103819785428 [Eh]
	 SCS Correlation Energy    =      -1.8074360138580841 [Eh]
	 SCS Total Energy          =    -433.6039855470819475 [Eh]
	-----------------------------------------------------------

  Dipole Moment: [D]
     X:    -0.9672      Y:    -0.3953      Z:     0.0000     Total:     1.0449

*** Psi4 exiting successfully. Buy a developer a beer!
