                               Psi4 1.4a3.dev225

  ==> Input File <==

--------------------------------------------------------------------------
#psi4
#
memory 32 gb

molecule  {
0 1
  O        1.2542850     1.5918540    -0.0000040
  N       -1.4703060     0.9792780     0.0000030
  N        1.7567070    -0.6653920     0.0000000
  N       -1.0359320    -1.2074830     0.0000000
  C       -0.5082200     0.0183690     0.0000050
  C        0.9183560     0.3972400     0.0000000
  C       -2.6868100     0.3502900    -0.0000010
  C       -2.3919160    -1.0020460    -0.0000030
  C        3.1975750    -0.5187580     0.0000000
  H       -1.2617080     1.9724600     0.0000090
  H        1.3219030    -1.5822740     0.0000070
  H       -3.6212920     0.8920510    -0.0000010
  H       -3.0752421    -1.8148730    -0.0000069
  H        3.4134050     0.5495780    -0.0000070
  H        3.6371680    -0.9759340    -0.8910250
  H        3.6371640    -0.9759210     0.8910330
units angstrom
no_reorient  #important for SAPT in psi4, default
symmetry c1  #important for SAPT in psi4, default
}

set PROPERTIES_ORIGIN ["COM"]
properties('MP2/aug-cc-pvtz', properties = ['dipole'])
--------------------------------------------------------------------------

    Molecular point group: c1
  Charge       = 0
  Multiplicity = 1
  Basis Set: AUG-CC-PVTZ
    Blend: AUG-CC-PVTZ
  Basis Set: (AUG-CC-PVTZ AUX)
    Blend: AUG-CC-PVTZ-JKFIT

    Orbital Energies [Eh]
    ---------------------

    Doubly Occupied:

       1A    -20.527647     2A    -15.635542     3A    -15.592501
       4A    -15.570801     5A    -11.366436     6A    -11.310293
       7A    -11.279573     8A    -11.262943     9A    -11.258424
      10A     -1.386807    11A     -1.347813    12A     -1.239865
      13A     -1.180233    14A     -1.038798    15A     -0.962145
      16A     -0.858574    17A     -0.827415    18A     -0.797320
      19A     -0.772814    20A     -0.668781    21A     -0.651128
      22A     -0.638817    23A     -0.614813    24A     -0.608054
      25A     -0.598540    26A     -0.587021    27A     -0.550516
      28A     -0.536618    29A     -0.464581    30A     -0.442374
      31A     -0.417989    32A     -0.395285    33A     -0.328695

  @DF-RHF Final Energy:  -431.79700730705406

   => Energetics <=

    Nuclear Repulsion Energy =            432.6940321972201673
    One-Electron Energy =               -1445.5437653155568114
    Two-Electron Energy =                 581.0527258112825848
    Total Energy =                       -431.7970073070540593
  Basis Set: (AUG-CC-PVTZ AUX)
    Blend: AUG-CC-PVTZ-RI
    Molecular point group: c1

    Geometry (in Angstrom), charge = 0, multiplicity = 1:

       Center              X                  Y                   Z               Mass
    ------------   -----------------  -----------------  -----------------  -----------------
         O            1.286291006604     1.576344908243    -0.000003993609    15.994914619570
         N           -1.438299993396     0.963768908243     0.000003006391    14.003074004430
         N            1.788713006604    -0.680901091757     0.000000006391    14.003074004430
         N           -1.003925993396    -1.222992091757     0.000000006391    14.003074004430
         C           -0.476213993396     0.002859908243     0.000005006391    12.000000000000
         C            0.950362006604     0.381730908243     0.000000006391    12.000000000000
         C           -2.654803993396     0.334780908243    -0.000000993609    12.000000000000
         C           -2.359909993396    -1.017555091757    -0.000002993609    12.000000000000
         C            3.229581006604    -0.534267091757     0.000000006391    12.000000000000
         H           -1.229701993396     1.956950908243     0.000009006391     1.007825032230
         H            1.353909006604    -1.597783091757     0.000007006391     1.007825032230
         H           -3.589285993396     0.876541908243    -0.000000993609     1.007825032230
         H           -3.043236093396    -1.830382091757    -0.000006893609     1.007825032230
         H            3.445411006604     0.534068908243    -0.000006993609     1.007825032230
         H            3.669174006604    -0.991443091757    -0.891024993609     1.007825032230
         H            3.669170006604    -0.991430091757     0.891033006391     1.007825032230

  Basis Set: AUG-CC-PVTZ
    Blend: AUG-CC-PVTZ
  Basis Set: (AUG-CC-PVTZ AUX)
    Blend: AUG-CC-PVTZ-JKFIT
	 Reference Energy          =    -431.7970073070540593 [Eh]
	 Singles Energy            =      -0.0000000000000000 [Eh]
	 Same-Spin Energy          =      -0.4556784627612119 [Eh]
	 Opposite-Spin Energy      =      -1.3794984922785303 [Eh]
	 Correlation Energy        =      -1.8351769550397421 [Eh]
	 Total Energy              =    -433.6321842620938014 [Eh]

	 ================> DF-SCS-MP2 Energies <==================
	-----------------------------------------------------------
	 SCS Same-Spin Scale       =       0.3333333333333333 [-]
	 SCS Opposite-Spin Scale   =       1.2000000000000000 [-]
	 SCS Same-Spin Energy      =      -0.1518928209204040 [Eh]
	 SCS Opposite-Spin Energy  =      -1.6553981907342363 [Eh]
	 SCS Correlation Energy    =      -1.8072910116546403 [Eh]
	 SCS Total Energy          =    -433.6042983187086861 [Eh]
	-----------------------------------------------------------

  Dipole Moment: [D]
     X:    -0.9808      Y:    -0.3987      Z:     0.0000     Total:     1.0587

*** Psi4 exiting successfully. Buy a developer a beer!
