                               Psi4 1.3.2 release

  ==> Input File <==

--------------------------------------------------------------------------
#psi4
#
memory 32 gb

molecule  {
0 1
  O        1.2542850     1.5918540    -0.0000040
  N       -1.4703060     0.9792780     0.0000030
  N        1.7567070    -0.6653920     0.0000000
  N       -1.0359320    -1.2074830     0.0000000
  C       -0.5082200     0.0183690     0.0000050
  C        0.9183560     0.3972400     0.0000000
  C       -2.6868100     0.3502900    -0.0000010
  C       -2.3706104    -1.0997500    -0.0000031
  C        3.1975750    -0.5187580     0.0000000
  H       -1.2617080     1.9724600     0.0000090
  H        1.3219030    -1.5822740     0.0000070
  H       -3.6212920     0.8920510    -0.0000010
  H       -3.0881120    -1.8301820    -0.0000070
  H        3.4134050     0.5495780    -0.0000070
  H        3.6371680    -0.9759340    -0.8910250
  H        3.6371640    -0.9759210     0.8910330
units angstrom
no_reorient  #important for SAPT in psi4, default
symmetry c1  #important for SAPT in psi4, default
}

set PROPERTIES_ORIGIN ["COM"]
properties('MP2/aug-cc-pvtz', properties = ['dipole'])
--------------------------------------------------------------------------

    Molecular point group: c1
  Charge       = 0
  Multiplicity = 1
  Basis Set: AUG-CC-PVTZ
    Blend: AUG-CC-PVTZ
  Basis Set: (AUG-CC-PVTZ AUX)
    Blend: AUG-CC-PVTZ-JKFIT

    Orbital Energies [Eh]
    ---------------------

    Doubly Occupied:

       1A    -20.524905     2A    -15.644049     3A    -15.590047
       4A    -15.572880     5A    -11.364529     6A    -11.305897
       7A    -11.290736     8A    -11.268417     9A    -11.261488
      10A     -1.384724    11A     -1.345970    12A     -1.237981
      13A     -1.189425    14A     -1.029886    15A     -0.956462
      16A     -0.854230    17A     -0.839804    18A     -0.796640
      19A     -0.771033    20A     -0.671409    21A     -0.653795
      22A     -0.637314    23A     -0.620592    24A     -0.606131
      25A     -0.603073    26A     -0.586528    27A     -0.548757
      28A     -0.534340    29A     -0.454865    30A     -0.439952
      31A     -0.426088    32A     -0.394892    33A     -0.312830

  @DF-RHF Final Energy:  -431.78219104026607

   => Energetics <=

    Nuclear Repulsion Energy =            431.6095690476460618
    One-Electron Energy =               -1443.3441811583757044
    Two-Electron Energy =                 579.9524210704635152
    Total Energy =                       -431.7821910402660706
  Basis Set: (AUG-CC-PVTZ AUX)
    Blend: AUG-CC-PVTZ-RI
    Molecular point group: c1

    Geometry (in Angstrom), charge = 0, multiplicity = 1:

       Center              X                  Y                   Z               Mass
    ------------   -----------------  -----------------  -----------------  -----------------
         O            1.284350348486     1.585843445978    -0.000003983208    15.994914619570
         N           -1.440240651514     0.973267445978     0.000003016792    14.003074004430
         N            1.786772348486    -0.671402554022     0.000000016792    14.003074004430
         N           -1.005866651514    -1.213493554022     0.000000016792    14.003074004430
         C           -0.478154651514     0.012358445978     0.000005016792    12.000000000000
         C            0.948421348486     0.391229445978     0.000000016792    12.000000000000
         C           -2.656744651514     0.344279445978    -0.000000983208    12.000000000000
         C           -2.340545051514    -1.105760554022    -0.000003083208    12.000000000000
         C            3.227640348486    -0.524768554022     0.000000016792    12.000000000000
         H           -1.231642651514     1.966449445978     0.000009016792     1.007825032230
         H            1.351968348486    -1.588284554022     0.000007016792     1.007825032230
         H           -3.591226651514     0.886040445978    -0.000000983208     1.007825032230
         H           -3.058046651514    -1.836192554022    -0.000006983208     1.007825032230
         H            3.443470348486     0.543567445978    -0.000006983208     1.007825032230
         H            3.667233348486    -0.981944554022    -0.891024983208     1.007825032230
         H            3.667229348486    -0.981931554022     0.891033016792     1.007825032230

  Basis Set: AUG-CC-PVTZ
    Blend: AUG-CC-PVTZ
  Basis Set: (AUG-CC-PVTZ AUX)
    Blend: AUG-CC-PVTZ-JKFIT
	 Reference Energy          =    -431.7821910402660706 [Eh]
	 Singles Energy            =      -0.0000000000000000 [Eh]
	 Same-Spin Energy          =      -0.4572328808160696 [Eh]
	 Opposite-Spin Energy      =      -1.3817031382370932 [Eh]
	 Correlation Energy        =      -1.8389360190531630 [Eh]
	 Total Energy              =    -433.6211270593192353 [Eh]

	 ================> DF-SCS-MP2 Energies <==================
	-----------------------------------------------------------
	 SCS Same-Spin Scale       =       0.3333333333333333 [-]
	 SCS Opposite-Spin Scale   =       1.2000000000000000 [-]
	 SCS Same-Spin Energy      =      -0.1524109602720232 [Eh]
	 SCS Opposite-Spin Energy  =      -1.6580437658845117 [Eh]
	 SCS Correlation Energy    =      -1.8104547261565349 [Eh]
	 SCS Total Energy          =    -433.5926457664226064 [Eh]
	-----------------------------------------------------------

  Dipole Moment: [D]
     X:    -1.0529      Y:    -0.5079      Z:     0.0000     Total:     1.1690

*** Psi4 exiting successfully. Buy a developer a beer!
