                               Psi4 1.3.2 release

  ==> Input File <==

--------------------------------------------------------------------------
#psi4
#
memory 32 gb

molecule  {
0 1
  O        1.2542850     1.5918540    -0.0000040
  N       -1.4293934     0.8928868     0.0000028
  N        1.7567070    -0.6653920     0.0000000
  N       -1.0359320    -1.2074830     0.0000000
  C       -0.5082200     0.0183690     0.0000050
  C        0.9183560     0.3972400     0.0000000
  C       -2.6868100     0.3502900    -0.0000010
  C       -2.3919160    -1.0020460    -0.0000030
  C        3.1975750    -0.5187580     0.0000000
  H       -1.2617080     1.9724600     0.0000090
  H        1.3219030    -1.5822740     0.0000070
  H       -3.6212920     0.8920510    -0.0000010
  H       -3.0881120    -1.8301820    -0.0000070
  H        3.4134050     0.5495780    -0.0000070
  H        3.6371680    -0.9759340    -0.8910250
  H        3.6371640    -0.9759210     0.8910330
units angstrom
no_reorient  #important for SAPT in psi4, default
symmetry c1  #important for SAPT in psi4, default
}

set PROPERTIES_ORIGIN ["COM"]
properties('MP2/aug-cc-pvtz', properties = ['dipole'])
--------------------------------------------------------------------------

    Molecular point group: c1
  Charge       = 0
  Multiplicity = 1
  Basis Set: AUG-CC-PVTZ
    Blend: AUG-CC-PVTZ
  Basis Set: (AUG-CC-PVTZ AUX)
    Blend: AUG-CC-PVTZ-JKFIT

    Orbital Energies [Eh]
    ---------------------

    Doubly Occupied:

       1A    -20.529204     2A    -15.640227     3A    -15.593414
       4A    -15.558578     5A    -11.367479     6A    -11.301020
       7A    -11.272590     8A    -11.263428     9A    -11.259889
      10A     -1.395674    11A     -1.363479    12A     -1.240459
      13A     -1.170955    14A     -1.047405    15A     -0.964681
      16A     -0.851068    17A     -0.821098    18A     -0.801323
      19A     -0.774835    20A     -0.673010    21A     -0.650772
      22A     -0.647153    23A     -0.615194    24A     -0.610185
      25A     -0.588311    26A     -0.585760    27A     -0.551014
      28A     -0.537920    29A     -0.457885    30A     -0.441769
      31A     -0.412395    32A     -0.394965    33A     -0.332381

  @DF-RHF Final Energy:  -431.78314273428526

   => Energetics <=

    Nuclear Repulsion Energy =            434.8177096206190413
    One-Electron Energy =               -1449.7706656619252499
    Two-Electron Energy =                 583.1698133070208314
    Total Energy =                       -431.7831427342853203
  Basis Set: (AUG-CC-PVTZ AUX)
    Blend: AUG-CC-PVTZ-RI
    Molecular point group: c1

    Geometry (in Angstrom), charge = 0, multiplicity = 1:

       Center              X                  Y                   Z               Mass
    ------------   -----------------  -----------------  -----------------  -----------------
         O            1.281813664288     1.586141660366    -0.000003970409    15.994914619570
         N           -1.401864735712     0.887174460366     0.000002829591    14.003074004430
         N            1.784235664288    -0.671104339634     0.000000029591    14.003074004430
         N           -1.008403335712    -1.213195339634     0.000000029591    14.003074004430
         C           -0.480691335712     0.012656660366     0.000005029591    12.000000000000
         C            0.945884664288     0.391527660366     0.000000029591    12.000000000000
         C           -2.659281335712     0.344577660366    -0.000000970409    12.000000000000
         C           -2.364387335712    -1.007758339634    -0.000002970409    12.000000000000
         C            3.225103664288    -0.524470339634     0.000000029591    12.000000000000
         H           -1.234179335712     1.966747660366     0.000009029591     1.007825032230
         H            1.349431664288    -1.587986339634     0.000007029591     1.007825032230
         H           -3.593763335712     0.886338660366    -0.000000970409     1.007825032230
         H           -3.060583335712    -1.835894339634    -0.000006970409     1.007825032230
         H            3.440933664288     0.543865660366    -0.000006970409     1.007825032230
         H            3.664696664288    -0.981646339634    -0.891024970409     1.007825032230
         H            3.664692664288    -0.981633339634     0.891033029591     1.007825032230

  Basis Set: AUG-CC-PVTZ
    Blend: AUG-CC-PVTZ
  Basis Set: (AUG-CC-PVTZ AUX)
    Blend: AUG-CC-PVTZ-JKFIT
	 Reference Energy          =    -431.7831427342852635 [Eh]
	 Singles Energy            =      -0.0000000000000000 [Eh]
	 Same-Spin Energy          =      -0.4562458328742458 [Eh]
	 Opposite-Spin Energy      =      -1.3795539814183053 [Eh]
	 Correlation Energy        =      -1.8357998142925511 [Eh]
	 Total Energy              =    -433.6189425485778202 [Eh]

	 ================> DF-SCS-MP2 Energies <==================
	-----------------------------------------------------------
	 SCS Same-Spin Scale       =       0.3333333333333333 [-]
	 SCS Opposite-Spin Scale   =       1.2000000000000000 [-]
	 SCS Same-Spin Energy      =      -0.1520819442914152 [Eh]
	 SCS Opposite-Spin Energy  =      -1.6554647777019664 [Eh]
	 SCS Correlation Energy    =      -1.8075467219933816 [Eh]
	 SCS Total Energy          =    -433.5906894562786533 [Eh]
	-----------------------------------------------------------

  Dipole Moment: [D]
     X:    -0.9399      Y:    -0.1902      Z:     0.0000     Total:     0.9590

*** Psi4 exiting successfully. Buy a developer a beer!
