                               Psi4 1.3.2 release

  ==> Input File <==

--------------------------------------------------------------------------
#psi4
#
memory 32 gb

molecule  {
0 1
  O        1.2542850     1.5918540    -0.0000040
  N       -1.4703060     0.9792780     0.0000030
  N        1.7567070    -0.6653920     0.0000000
  N       -1.0359320    -1.2074830     0.0000000
  C       -0.5082200     0.0183690     0.0000050
  C        0.7637881     0.2703197     0.0000000
  C       -2.6868100     0.3502900    -0.0000010
  C       -2.3919160    -1.0020460    -0.0000030
  C        3.1975750    -0.5187580     0.0000000
  H       -1.2617080     1.9724600     0.0000090
  H        1.3219030    -1.5822740     0.0000070
  H       -3.6212920     0.8920510    -0.0000010
  H       -3.0881120    -1.8301820    -0.0000070
  H        3.4134050     0.5495780    -0.0000070
  H        3.6371680    -0.9759340    -0.8910250
  H        3.6371640    -0.9759210     0.8910330
units angstrom
no_reorient  #important for SAPT in psi4, default
symmetry c1  #important for SAPT in psi4, default
}

set PROPERTIES_ORIGIN ["COM"]
properties('MP2/aug-cc-pvtz', properties = ['dipole'])
--------------------------------------------------------------------------

    Molecular point group: c1
  Charge       = 0
  Multiplicity = 1
  Basis Set: AUG-CC-PVTZ
    Blend: AUG-CC-PVTZ
  Basis Set: (AUG-CC-PVTZ AUX)
    Blend: AUG-CC-PVTZ-JKFIT

    Orbital Energies [Eh]
    ---------------------

    Doubly Occupied:

       1A    -20.495071     2A    -15.651059     3A    -15.597126
       4A    -15.591294     5A    -11.357140     6A    -11.305341
       7A    -11.301678     8A    -11.275614     9A    -11.263061
      10A     -1.378948    11A     -1.296570    12A     -1.209839
      13A     -1.186447    14A     -1.076275    15A     -0.969626
      16A     -0.897371    17A     -0.839736    18A     -0.814386
      19A     -0.754243    20A     -0.677674    21A     -0.650402
      22A     -0.646395    23A     -0.623214    24A     -0.614204
      25A     -0.609328    26A     -0.559521    27A     -0.514722
      28A     -0.503710    29A     -0.478546    30A     -0.426857
      31A     -0.411674    32A     -0.373517    33A     -0.339880

  @DF-RHF Final Energy:  -431.72269770072791

   => Energetics <=

    Nuclear Repulsion Energy =            433.2279208354456728
    One-Electron Energy =               -1446.5203061590395919
    Two-Electron Energy =                 581.5696876228658994
    Total Energy =                       -431.7226977007279629
  Basis Set: (AUG-CC-PVTZ AUX)
    Blend: AUG-CC-PVTZ-RI
    Molecular point group: c1

    Geometry (in Angstrom), charge = 0, multiplicity = 1:

       Center              X                  Y                   Z               Mass
    ------------   -----------------  -----------------  -----------------  -----------------
         O            1.301226250959     1.588646889529    -0.000003992803    15.994914619570
         N           -1.423364749041     0.976070889529     0.000003007197    14.003074004430
         N            1.803648250959    -0.668599110471     0.000000007197    14.003074004430
         N           -0.988990749041    -1.210690110471     0.000000007197    14.003074004430
         C           -0.461278749041     0.015161889529     0.000005007197    12.000000000000
         C            0.810729350959     0.267112589529     0.000000007197    12.000000000000
         C           -2.639868749041     0.347082889529    -0.000000992803    12.000000000000
         C           -2.344974749041    -1.005253110471    -0.000002992803    12.000000000000
         C            3.244516250959    -0.521965110471     0.000000007197    12.000000000000
         H           -1.214766749041     1.969252889529     0.000009007197     1.007825032230
         H            1.368844250959    -1.585481110471     0.000007007197     1.007825032230
         H           -3.574350749041     0.888843889529    -0.000000992803     1.007825032230
         H           -3.041170749041    -1.833389110471    -0.000006992803     1.007825032230
         H            3.460346250959     0.546370889529    -0.000006992803     1.007825032230
         H            3.684109250959    -0.979141110471    -0.891024992803     1.007825032230
         H            3.684105250959    -0.979128110471     0.891033007197     1.007825032230

  Basis Set: AUG-CC-PVTZ
    Blend: AUG-CC-PVTZ
  Basis Set: (AUG-CC-PVTZ AUX)
    Blend: AUG-CC-PVTZ-JKFIT
	 Reference Energy          =    -431.7226977007279061 [Eh]
	 Singles Energy            =      -0.0000000000000000 [Eh]
	 Same-Spin Energy          =      -0.4623622861876340 [Eh]
	 Opposite-Spin Energy      =      -1.3919777292384652 [Eh]
	 Correlation Energy        =      -1.8543400154260992 [Eh]
	 Total Energy              =    -433.5770377161539955 [Eh]

	 ================> DF-SCS-MP2 Energies <==================
	-----------------------------------------------------------
	 SCS Same-Spin Scale       =       0.3333333333333333 [-]
	 SCS Opposite-Spin Scale   =       1.2000000000000000 [-]
	 SCS Same-Spin Energy      =      -0.1541207620625447 [Eh]
	 SCS Opposite-Spin Energy  =      -1.6703732750861582 [Eh]
	 SCS Correlation Energy    =      -1.8244940371487028 [Eh]
	 SCS Total Energy          =    -433.5471917378766307 [Eh]
	-----------------------------------------------------------

  Dipole Moment: [D]
     X:    -2.0369      Y:    -1.1504      Z:     0.0000     Total:     2.3393

*** Psi4 exiting successfully. Buy a developer a beer!
