                               Psi4 1.4a3.dev225

  ==> Input File <==

--------------------------------------------------------------------------
#psi4
#
memory 32 gb

molecule  {
0 1
  O        1.2542850     1.5918540    -0.0000040
  N       -1.4703060     0.9792780     0.0000030
  N        1.7567070    -0.6653920     0.0000000
  N       -1.0359320    -1.2074830     0.0000000
  C       -0.5082200     0.0183690     0.0000050
  C        0.9183560     0.3972400     0.0000000
  C       -2.7312244     0.3273257    -0.0000011
  C       -2.3919160    -1.0020460    -0.0000030
  C        3.1975750    -0.5187580     0.0000000
  H       -1.2617080     1.9724600     0.0000090
  H        1.3219030    -1.5822740     0.0000070
  H       -3.6212920     0.8920510    -0.0000010
  H       -3.0881120    -1.8301820    -0.0000070
  H        3.4134050     0.5495780    -0.0000070
  H        3.6371680    -0.9759340    -0.8910250
  H        3.6371640    -0.9759210     0.8910330
units angstrom
no_reorient  #important for SAPT in psi4, default
symmetry c1  #important for SAPT in psi4, default
}

set PROPERTIES_ORIGIN ["COM"]
properties('MP2/aug-cc-pvtz', properties = ['dipole'])
--------------------------------------------------------------------------

    Molecular point group: c1
  Charge       = 0
  Multiplicity = 1
  Basis Set: AUG-CC-PVTZ
    Blend: AUG-CC-PVTZ
  Basis Set: (AUG-CC-PVTZ AUX)
    Blend: AUG-CC-PVTZ-JKFIT

    Orbital Energies [Eh]
    ---------------------

    Doubly Occupied:

       1A    -20.529253     2A    -15.631950     3A    -15.594109
       4A    -15.569300     5A    -11.367938     6A    -11.314440
       7A    -11.278878     8A    -11.263866     9A    -11.262574
      10A     -1.386741    11A     -1.339604    12A     -1.240866
      13A     -1.173501    14A     -1.040074    15A     -0.964312
      16A     -0.860044    17A     -0.821387    18A     -0.794540
      19A     -0.773707    20A     -0.663979    21A     -0.654391
      22A     -0.637899    23A     -0.620883    24A     -0.604434
      25A     -0.589324    26A     -0.587400    27A     -0.551523
      28A     -0.536316    29A     -0.465234    30A     -0.443581
      31A     -0.414505    32A     -0.395580    33A     -0.333873

  @DF-RHF Final Energy:  -431.79366475021089

   => Energetics <=

    Nuclear Repulsion Energy =            431.7572110185636234
    One-Electron Energy =               -1443.6897421068331369
    Two-Electron Energy =                 580.1388663380587332
    Total Energy =                       -431.7936647502108372
  Basis Set: (AUG-CC-PVTZ AUX)
    Blend: AUG-CC-PVTZ-RI
    Molecular point group: c1

    Geometry (in Angstrom), charge = 0, multiplicity = 1:

       Center              X                  Y                   Z               Mass
    ------------   -----------------  -----------------  -----------------  -----------------
         O            1.290656496430     1.578671814731    -0.000003983208    15.994914619570
         N           -1.433934503570     0.966095814731     0.000003016792    14.003074004430
         N            1.793078496430    -0.678574185269     0.000000016792    14.003074004430
         N           -0.999560503570    -1.220665185269     0.000000016792    14.003074004430
         C           -0.471848503570     0.005186814731     0.000005016792    12.000000000000
         C            0.954727496430     0.384057814731     0.000000016792    12.000000000000
         C           -2.694852903570     0.314143514731    -0.000001083208    12.000000000000
         C           -2.355544503570    -1.015228185269    -0.000002983208    12.000000000000
         C            3.233946496430    -0.531940185269     0.000000016792    12.000000000000
         H           -1.225336503570     1.959277814731     0.000009016792     1.007825032230
         H            1.358274496430    -1.595456185269     0.000007016792     1.007825032230
         H           -3.584920503570     0.878868814731    -0.000000983208     1.007825032230
         H           -3.051740503570    -1.843364185269    -0.000006983208     1.007825032230
         H            3.449776496430     0.536395814731    -0.000006983208     1.007825032230
         H            3.673539496430    -0.989116185269    -0.891024983208     1.007825032230
         H            3.673535496430    -0.989103185269     0.891033016792     1.007825032230

  Basis Set: AUG-CC-PVTZ
    Blend: AUG-CC-PVTZ
  Basis Set: (AUG-CC-PVTZ AUX)
    Blend: AUG-CC-PVTZ-JKFIT
	 Reference Energy          =    -431.7936647502108940 [Eh]
	 Singles Energy            =      -0.0000000000000000 [Eh]
	 Same-Spin Energy          =      -0.4553325267035796 [Eh]
	 Opposite-Spin Energy      =      -1.3800688441651889 [Eh]
	 Correlation Energy        =      -1.8354013708687686 [Eh]
	 Total Energy              =    -433.6290661210796884 [Eh]

	 ================> DF-SCS-MP2 Energies <==================
	-----------------------------------------------------------
	 SCS Same-Spin Scale       =       0.3333333333333333 [-]
	 SCS Opposite-Spin Scale   =       1.2000000000000000 [-]
	 SCS Same-Spin Energy      =      -0.1517775089011932 [Eh]
	 SCS Opposite-Spin Energy  =      -1.6560826129982267 [Eh]
	 SCS Correlation Energy    =      -1.8078601218994199 [Eh]
	 SCS Total Energy          =    -433.6015248721103035 [Eh]
	-----------------------------------------------------------

  Dipole Moment: [D]
     X:    -0.9402      Y:    -0.4457      Z:     0.0000     Total:     1.0405

*** Psi4 exiting successfully. Buy a developer a beer!
