                               Psi4 1.3.2 release

  ==> Input File <==

--------------------------------------------------------------------------
#psi4
#
memory 32 gb

molecule  {
0 1
  O        1.2123889     1.6028500    -0.0000039
  N       -1.4703060     0.9792780     0.0000030
  N        1.7567070    -0.6653920     0.0000000
  N       -1.0359320    -1.2074830     0.0000000
  C       -0.5082200     0.0183690     0.0000050
  C        0.9183560     0.3972400     0.0000000
  C       -2.6868100     0.3502900    -0.0000010
  C       -2.3919160    -1.0020460    -0.0000030
  C        3.1975750    -0.5187580     0.0000000
  H       -1.2617080     1.9724600     0.0000090
  H        1.3219030    -1.5822740     0.0000070
  H       -3.6212920     0.8920510    -0.0000010
  H       -3.0881120    -1.8301820    -0.0000070
  H        3.4134050     0.5495780    -0.0000070
  H        3.6371680    -0.9759340    -0.8910250
  H        3.6371640    -0.9759210     0.8910330
units angstrom
no_reorient  #important for SAPT in psi4, default
symmetry c1  #important for SAPT in psi4, default
}

set PROPERTIES_ORIGIN ["COM"]
properties('MP2/aug-cc-pvtz', properties = ['dipole'])
--------------------------------------------------------------------------

    Molecular point group: c1
  Charge       = 0
  Multiplicity = 1
  Basis Set: AUG-CC-PVTZ
    Blend: AUG-CC-PVTZ
  Basis Set: (AUG-CC-PVTZ AUX)
    Blend: AUG-CC-PVTZ-JKFIT

    Orbital Energies [Eh]
    ---------------------

    Doubly Occupied:

       1A    -20.528643     2A    -15.633908     3A    -15.594796
       4A    -15.569450     5A    -11.367073     6A    -11.308460
       7A    -11.278374     8A    -11.264737     9A    -11.259373
      10A     -1.387302    11A     -1.346276    12A     -1.242624
      13A     -1.178893    14A     -1.037094    15A     -0.962959
      16A     -0.857929    17A     -0.823438    18A     -0.796859
      19A     -0.773697    20A     -0.668422    21A     -0.651938
      22A     -0.639245    23A     -0.612467    24A     -0.608036
      25A     -0.595693    26A     -0.586270    27A     -0.552777
      28A     -0.537328    29A     -0.463271    30A     -0.442426
      31A     -0.417322    32A     -0.396721    33A     -0.327411

  @DF-RHF Final Energy:  -431.79656059738130

   => Energetics <=

    Nuclear Repulsion Energy =            432.7350922335216410
    One-Electron Energy =               -1445.6408887844509081
    Two-Electron Energy =                 581.1092359535479090
    Total Energy =                       -431.7965605973813581
  Basis Set: (AUG-CC-PVTZ AUX)
    Blend: AUG-CC-PVTZ-RI
    Molecular point group: c1

    Geometry (in Angstrom), charge = 0, multiplicity = 1:

       Center              X                  Y                   Z               Mass
    ------------   -----------------  -----------------  -----------------  -----------------
         O            1.249857093502     1.586057902615    -0.000003905593    15.994914619570
         N           -1.432837806498     0.962485902615     0.000002994407    14.003074004430
         N            1.794175193502    -0.682184097385    -0.000000005593    14.003074004430
         N           -0.998463806498    -1.224275097385    -0.000000005593    14.003074004430
         C           -0.470751806498     0.001576902615     0.000004994407    12.000000000000
         C            0.955824193502     0.380447902615    -0.000000005593    12.000000000000
         C           -2.649341806498     0.333497902615    -0.000001005593    12.000000000000
         C           -2.354447806498    -1.018838097385    -0.000003005593    12.000000000000
         C            3.235043193502    -0.535550097385    -0.000000005593    12.000000000000
         H           -1.224239806498     1.955667902615     0.000008994407     1.007825032230
         H            1.359371193502    -1.599066097385     0.000006994407     1.007825032230
         H           -3.583823806498     0.875258902615    -0.000001005593     1.007825032230
         H           -3.050643806498    -1.846974097385    -0.000007005593     1.007825032230
         H            3.450873193502     0.532785902615    -0.000007005593     1.007825032230
         H            3.674636193502    -0.992726097385    -0.891025005593     1.007825032230
         H            3.674632193502    -0.992713097385     0.891032994407     1.007825032230

  Basis Set: AUG-CC-PVTZ
    Blend: AUG-CC-PVTZ
  Basis Set: (AUG-CC-PVTZ AUX)
    Blend: AUG-CC-PVTZ-JKFIT
	 Reference Energy          =    -431.7965605973813012 [Eh]
	 Singles Energy            =      -0.0000000000000000 [Eh]
	 Same-Spin Energy          =      -0.4556631248911411 [Eh]
	 Opposite-Spin Energy      =      -1.3795846050060014 [Eh]
	 Correlation Energy        =      -1.8352477298971426 [Eh]
	 Total Energy              =    -433.6318083272784634 [Eh]

	 ================> DF-SCS-MP2 Energies <==================
	-----------------------------------------------------------
	 SCS Same-Spin Scale       =       0.3333333333333333 [-]
	 SCS Opposite-Spin Scale   =       1.2000000000000000 [-]
	 SCS Same-Spin Energy      =      -0.1518877082970470 [Eh]
	 SCS Opposite-Spin Energy  =      -1.6555015260072017 [Eh]
	 SCS Correlation Energy    =      -1.8073892343042488 [Eh]
	 SCS Total Energy          =    -433.6039498316855543 [Eh]
	-----------------------------------------------------------

  Dipole Moment: [D]
     X:    -0.8149      Y:    -0.4190      Z:     0.0000     Total:     0.9163

*** Psi4 exiting successfully. Buy a developer a beer!
