                               Psi4 1.4a3.dev225

  ==> Input File <==

--------------------------------------------------------------------------
#psi4
#
memory 32 gb

molecule  {
0 1
  O        1.2542850     1.5918540    -0.0000040
  N       -1.4703060     0.9792780     0.0000030
  N        1.7567070    -0.6653920     0.0000000
  N       -1.0359320    -1.2074830     0.0000000
  C       -0.5082200     0.0183690     0.0000050
  C        0.9338128     0.4099320     0.0000000
  C       -2.6868100     0.3502900    -0.0000010
  C       -2.3919160    -1.0020460    -0.0000030
  C        3.1975750    -0.5187580     0.0000000
  H       -1.2617080     1.9724600     0.0000090
  H        1.3219030    -1.5822740     0.0000070
  H       -3.6212920     0.8920510    -0.0000010
  H       -3.0881120    -1.8301820    -0.0000070
  H        3.4134050     0.5495780    -0.0000070
  H        3.6371680    -0.9759340    -0.8910250
  H        3.6371640    -0.9759210     0.8910330
units angstrom
no_reorient  #important for SAPT in psi4, default
symmetry c1  #important for SAPT in psi4, default
}

set PROPERTIES_ORIGIN ["COM"]
properties('MP2/aug-cc-pvtz', properties = ['dipole'])
--------------------------------------------------------------------------

    Molecular point group: c1
  Charge       = 0
  Multiplicity = 1
  Basis Set: AUG-CC-PVTZ
    Blend: AUG-CC-PVTZ
  Basis Set: (AUG-CC-PVTZ AUX)
    Blend: AUG-CC-PVTZ-JKFIT

    Orbital Energies [Eh]
    ---------------------

    Doubly Occupied:

       1A    -20.530927     2A    -15.634173     3A    -15.591827
       4A    -15.569099     5A    -11.366920     6A    -11.309891
       7A    -11.277897     8A    -11.262766     9A    -11.259376
      10A     -1.395372    11A     -1.348677    12A     -1.241478
      13A     -1.178943    14A     -1.035228    15A     -0.961013
      16A     -0.855091    17A     -0.823467    18A     -0.796295
      19A     -0.773409    20A     -0.668785    21A     -0.653379
      22A     -0.639125    23A     -0.613382    24A     -0.607429
      25A     -0.594721    26A     -0.588390    27A     -0.551498
      28A     -0.541273    29A     -0.463670    30A     -0.442975
      31A     -0.417443    32A     -0.396680    33A     -0.327452

  @DF-RHF Final Energy:  -431.79791658925870

   => Energetics <=

    Nuclear Repulsion Energy =            432.5632604259876075
    One-Electron Energy =               -1445.2862507133083909
    Two-Electron Energy =                 580.9250736980619649
    Total Energy =                       -431.7979165892587616
  Basis Set: (AUG-CC-PVTZ AUX)
    Blend: AUG-CC-PVTZ-RI
    Molecular point group: c1

    Geometry (in Angstrom), charge = 0, multiplicity = 1:

       Center              X                  Y                   Z               Mass
    ------------   -----------------  -----------------  -----------------  -----------------
         O            1.284911568785     1.575250422415    -0.000003992803    15.994914619570
         N           -1.439679431215     0.962674422415     0.000003007197    14.003074004430
         N            1.787333568785    -0.681995577585     0.000000007197    14.003074004430
         N           -1.005305431215    -1.224086577585     0.000000007197    14.003074004430
         C           -0.477593431215     0.001765422415     0.000005007197    12.000000000000
         C            0.964439368785     0.393328422415     0.000000007197    12.000000000000
         C           -2.656183431215     0.333686422415    -0.000000992803    12.000000000000
         C           -2.361289431215    -1.018649577585    -0.000002992803    12.000000000000
         C            3.228201568785    -0.535361577585     0.000000007197    12.000000000000
         H           -1.231081431215     1.955856422415     0.000009007197     1.007825032230
         H            1.352529568785    -1.598877577585     0.000007007197     1.007825032230
         H           -3.590665431215     0.875447422415    -0.000000992803     1.007825032230
         H           -3.057485431215    -1.846785577585    -0.000006992803     1.007825032230
         H            3.444031568785     0.532974422415    -0.000006992803     1.007825032230
         H            3.667794568785    -0.992537577585    -0.891024992803     1.007825032230
         H            3.667790568785    -0.992524577585     0.891033007197     1.007825032230

  Basis Set: AUG-CC-PVTZ
    Blend: AUG-CC-PVTZ
  Basis Set: (AUG-CC-PVTZ AUX)
    Blend: AUG-CC-PVTZ-JKFIT
	 Reference Energy          =    -431.7979165892587048 [Eh]
	 Singles Energy            =      -0.0000000000000000 [Eh]
	 Same-Spin Energy          =      -0.4552127760576904 [Eh]
	 Opposite-Spin Energy      =      -1.3787021518301641 [Eh]
	 Correlation Energy        =      -1.8339149278878546 [Eh]
	 Total Energy              =    -433.6318315171465656 [Eh]

	 ================> DF-SCS-MP2 Energies <==================
	-----------------------------------------------------------
	 SCS Same-Spin Scale       =       0.3333333333333333 [-]
	 SCS Opposite-Spin Scale   =       1.2000000000000000 [-]
	 SCS Same-Spin Energy      =      -0.1517375920192301 [Eh]
	 SCS Opposite-Spin Energy  =      -1.6544425821961968 [Eh]
	 SCS Correlation Energy    =      -1.8061801742154269 [Eh]
	 SCS Total Energy          =    -433.6040967634741037 [Eh]
	-----------------------------------------------------------

  Dipole Moment: [D]
     X:    -0.8698      Y:    -0.3080      Z:     0.0000     Total:     0.9227

*** Psi4 exiting successfully. Buy a developer a beer!
