                               Psi4 1.3.2 release

  ==> Input File <==

--------------------------------------------------------------------------
#psi4
#
memory 32 gb

molecule  {
0 1
  O        1.2542850     1.5918540    -0.0000040
  N       -1.4703060     0.9792780     0.0000030
  N        1.7567070    -0.6653920     0.0000000
  N       -1.0359320    -1.2074830     0.0000000
  C       -0.5082200     0.0183690     0.0000050
  C        0.9183560     0.3972400     0.0000000
  C       -2.7338262     0.3391745    -0.0000012
  C       -2.3919160    -1.0020460    -0.0000030
  C        3.1975750    -0.5187580     0.0000000
  H       -1.2617080     1.9724600     0.0000090
  H        1.3219030    -1.5822740     0.0000070
  H       -3.6212920     0.8920510    -0.0000010
  H       -3.0881120    -1.8301820    -0.0000070
  H        3.4134050     0.5495780    -0.0000070
  H        3.6371680    -0.9759340    -0.8910250
  H        3.6371640    -0.9759210     0.8910330
units angstrom
no_reorient  #important for SAPT in psi4, default
symmetry c1  #important for SAPT in psi4, default
}

set PROPERTIES_ORIGIN ["COM"]
properties('MP2/aug-cc-pvtz', properties = ['dipole'])
--------------------------------------------------------------------------

    Molecular point group: c1
  Charge       = 0
  Multiplicity = 1
  Basis Set: AUG-CC-PVTZ
    Blend: AUG-CC-PVTZ
  Basis Set: (AUG-CC-PVTZ AUX)
    Blend: AUG-CC-PVTZ-JKFIT

    Orbital Energies [Eh]
    ---------------------

    Doubly Occupied:

       1A    -20.529055     2A    -15.633015     3A    -15.594027
       4A    -15.569957     5A    -11.367875     6A    -11.314187
       7A    -11.279559     8A    -11.264121     9A    -11.263823
      10A     -1.386638    11A     -1.339589    12A     -1.240824
      13A     -1.174303    14A     -1.038922    15A     -0.963921
      16A     -0.859634    17A     -0.821970    18A     -0.795376
      19A     -0.774070    20A     -0.665499    21A     -0.654291
      22A     -0.637875    23A     -0.619776    24A     -0.604386
      25A     -0.590677    26A     -0.587191    27A     -0.551470
      28A     -0.536174    29A     -0.465347    30A     -0.443516
      31A     -0.414988    32A     -0.395598    33A     -0.331926

  @DF-RHF Final Energy:  -431.79304291398103

   => Energetics <=

    Nuclear Repulsion Energy =            431.6219582895070630
    One-Electron Energy =               -1443.4108411438228359
    Two-Electron Energy =                 579.9958399403346903
    Total Energy =                       -431.7930429139810258
  Basis Set: (AUG-CC-PVTZ AUX)
    Blend: AUG-CC-PVTZ-RI
    Molecular point group: c1

    Geometry (in Angstrom), charge = 0, multiplicity = 1:

       Center              X                  Y                   Z               Mass
    ------------   -----------------  -----------------  -----------------  -----------------
         O            1.290906151569     1.577534865769    -0.000003973612    15.994914619570
         N           -1.433684848431     0.964958865769     0.000003026388    14.003074004430
         N            1.793328151569    -0.679711134231     0.000000026388    14.003074004430
         N           -0.999310848431    -1.221802134231     0.000000026388    14.003074004430
         C           -0.471598848431     0.004049865769     0.000005026388    12.000000000000
         C            0.954977151569     0.382920865769     0.000000026388    12.000000000000
         C           -2.697205048431     0.324855365769    -0.000001173612    12.000000000000
         C           -2.355294848431    -1.016365134231    -0.000002973612    12.000000000000
         C            3.234196151569    -0.533077134231     0.000000026388    12.000000000000
         H           -1.225086848431     1.958140865769     0.000009026388     1.007825032230
         H            1.358524151569    -1.596593134231     0.000007026388     1.007825032230
         H           -3.584670848431     0.877731865769    -0.000000973612     1.007825032230
         H           -3.051490848431    -1.844501134231    -0.000006973612     1.007825032230
         H            3.450026151569     0.535258865769    -0.000006973612     1.007825032230
         H            3.673789151569    -0.990253134231    -0.891024973612     1.007825032230
         H            3.673785151569    -0.990240134231     0.891033026388     1.007825032230

  Basis Set: AUG-CC-PVTZ
    Blend: AUG-CC-PVTZ
  Basis Set: (AUG-CC-PVTZ AUX)
    Blend: AUG-CC-PVTZ-JKFIT
	 Reference Energy          =    -431.7930429139810258 [Eh]
	 Singles Energy            =      -0.0000000000000000 [Eh]
	 Same-Spin Energy          =      -0.4555184277598855 [Eh]
	 Opposite-Spin Energy      =      -1.3803373270116444 [Eh]
	 Correlation Energy        =      -1.8358557547715297 [Eh]
	 Total Energy              =    -433.6288986687525835 [Eh]

	 ================> DF-SCS-MP2 Energies <==================
	-----------------------------------------------------------
	 SCS Same-Spin Scale       =       0.3333333333333333 [-]
	 SCS Opposite-Spin Scale   =       1.2000000000000000 [-]
	 SCS Same-Spin Energy      =      -0.1518394759199618 [Eh]
	 SCS Opposite-Spin Energy  =      -1.6564047924139731 [Eh]
	 SCS Correlation Energy    =      -1.8082442683339348 [Eh]
	 SCS Total Energy          =    -433.6012871823149339 [Eh]
	-----------------------------------------------------------

  Dipole Moment: [D]
     X:    -0.9414      Y:    -0.4400      Z:     0.0000     Total:     1.0392

*** Psi4 exiting successfully. Buy a developer a beer!
