                               Psi4 1.3.2 release

  ==> Input File <==

--------------------------------------------------------------------------
#psi4
#
memory 32 gb

molecule  {
0 1
  O        1.2542850     1.5918540    -0.0000040
  N       -1.4703060     0.9792780     0.0000030
  N        1.7567070    -0.6653920     0.0000000
  N       -1.0359320    -1.2074830     0.0000000
  C       -0.5082200     0.0183690     0.0000050
  C        1.0729239     0.5241603     0.0000000
  C       -2.6868100     0.3502900    -0.0000010
  C       -2.3919160    -1.0020460    -0.0000030
  C        3.1975750    -0.5187580     0.0000000
  H       -1.2617080     1.9724600     0.0000090
  H        1.3219030    -1.5822740     0.0000070
  H       -3.6212920     0.8920510    -0.0000010
  H       -3.0881120    -1.8301820    -0.0000070
  H        3.4134050     0.5495780    -0.0000070
  H        3.6371680    -0.9759340    -0.8910250
  H        3.6371640    -0.9759210     0.8910330
units angstrom
no_reorient  #important for SAPT in psi4, default
symmetry c1  #important for SAPT in psi4, default
}

set PROPERTIES_ORIGIN ["COM"]
properties('MP2/aug-cc-pvtz', properties = ['dipole'])
--------------------------------------------------------------------------

    Molecular point group: c1
  Charge       = 0
  Multiplicity = 1
  Basis Set: AUG-CC-PVTZ
    Blend: AUG-CC-PVTZ
  Basis Set: (AUG-CC-PVTZ AUX)
    Blend: AUG-CC-PVTZ-JKFIT

    Orbital Energies [Eh]
    ---------------------

    Doubly Occupied:

       1A    -20.564312     2A    -15.619413     3A    -15.587502
       4A    -15.550472     5A    -11.372931     6A    -11.293389
       7A    -11.261889     8A    -11.261731     9A    -11.246580
      10A     -1.509297    11A     -1.337270    12A     -1.246142
      13A     -1.164574    14A     -1.008803    15A     -0.950273
      16A     -0.830113    17A     -0.810343    18A     -0.796972
      19A     -0.767024    20A     -0.710367    21A     -0.661729
      22A     -0.653961    23A     -0.616794    24A     -0.600093
      25A     -0.598851    26A     -0.582979    27A     -0.579916
      28A     -0.558446    29A     -0.453450    30A     -0.420563
      31A     -0.415774    32A     -0.397245    33A     -0.313165

  @DF-RHF Final Energy:  -431.74734394594225

   => Energetics <=

    Nuclear Repulsion Energy =            432.6258541518319021
    One-Electron Energy =               -1445.2616687574188745
    Two-Electron Energy =                 580.8884706596447813
    Total Energy =                       -431.7473439459422480
  Basis Set: (AUG-CC-PVTZ AUX)
    Blend: AUG-CC-PVTZ-RI
    Molecular point group: c1

    Geometry (in Angstrom), charge = 0, multiplicity = 1:

       Center              X                  Y                   Z               Mass
    ------------   -----------------  -----------------  -----------------  -----------------
         O            1.271563194206     1.564289671361    -0.000003992803    15.994914619570
         N           -1.453027805794     0.951713671361     0.000003007197    14.003074004430
         N            1.773985194206    -0.692956328639     0.000000007197    14.003074004430
         N           -1.018653805794    -1.235047328639     0.000000007197    14.003074004430
         C           -0.490941805794    -0.009195328639     0.000005007197    12.000000000000
         C            1.090202094206     0.496595971361     0.000000007197    12.000000000000
         C           -2.669531805794     0.322725671361    -0.000000992803    12.000000000000
         C           -2.374637805794    -1.029610328639    -0.000002992803    12.000000000000
         C            3.214853194206    -0.546322328639     0.000000007197    12.000000000000
         H           -1.244429805794     1.944895671361     0.000009007197     1.007825032230
         H            1.339181194206    -1.609838328639     0.000007007197     1.007825032230
         H           -3.604013805794     0.864486671361    -0.000000992803     1.007825032230
         H           -3.070833805794    -1.857746328639    -0.000006992803     1.007825032230
         H            3.430683194206     0.522013671361    -0.000006992803     1.007825032230
         H            3.654446194206    -1.003498328639    -0.891024992803     1.007825032230
         H            3.654442194206    -1.003485328639     0.891033007197     1.007825032230

  Basis Set: AUG-CC-PVTZ
    Blend: AUG-CC-PVTZ
  Basis Set: (AUG-CC-PVTZ AUX)
    Blend: AUG-CC-PVTZ-JKFIT
	 Reference Energy          =    -431.7473439459422480 [Eh]
	 Singles Energy            =      -0.0000000000000000 [Eh]
	 Same-Spin Energy          =      -0.4521853434205350 [Eh]
	 Opposite-Spin Energy      =      -1.3732865310959288 [Eh]
	 Correlation Energy        =      -1.8254718745164638 [Eh]
	 Total Energy              =    -433.5728158204586862 [Eh]

	 ================> DF-SCS-MP2 Energies <==================
	-----------------------------------------------------------
	 SCS Same-Spin Scale       =       0.3333333333333333 [-]
	 SCS Opposite-Spin Scale   =       1.2000000000000000 [-]
	 SCS Same-Spin Energy      =      -0.1507284478068450 [Eh]
	 SCS Opposite-Spin Energy  =      -1.6479438373151145 [Eh]
	 SCS Correlation Energy    =      -1.7986722851219594 [Eh]
	 SCS Total Energy          =    -433.5460162310641863 [Eh]
	-----------------------------------------------------------

  Dipole Moment: [D]
     X:     0.2506      Y:     0.6676      Z:     0.0000     Total:     0.7131

*** Psi4 exiting successfully. Buy a developer a beer!
