                               Psi4 1.4a3.dev225

  ==> Input File <==

--------------------------------------------------------------------------
#psi4
#
memory 32 gb

molecule  {
0 1
  O        1.2542850     1.5918540    -0.0000040
  N       -1.4703060     0.9792780     0.0000030
  N        1.7567070    -0.6653920     0.0000000
  N       -1.0359320    -1.2074830     0.0000000
  C       -0.5435970     0.0537027     0.0000049
  C        0.9183560     0.3972400     0.0000000
  C       -2.6868100     0.3502900    -0.0000010
  C       -2.3919160    -1.0020460    -0.0000030
  C        3.1975750    -0.5187580     0.0000000
  H       -1.2617080     1.9724600     0.0000090
  H        1.3219030    -1.5822740     0.0000070
  H       -3.6212920     0.8920510    -0.0000010
  H       -3.0881120    -1.8301820    -0.0000070
  H        3.4134050     0.5495780    -0.0000070
  H        3.6371680    -0.9759340    -0.8910250
  H        3.6371640    -0.9759210     0.8910330
units angstrom
no_reorient  #important for SAPT in psi4, default
symmetry c1  #important for SAPT in psi4, default
}

set PROPERTIES_ORIGIN ["COM"]
properties('MP2/aug-cc-pvtz', properties = ['dipole'])
--------------------------------------------------------------------------

    Molecular point group: c1
  Charge       = 0
  Multiplicity = 1
  Basis Set: AUG-CC-PVTZ
    Blend: AUG-CC-PVTZ
  Basis Set: (AUG-CC-PVTZ AUX)
    Blend: AUG-CC-PVTZ-JKFIT

    Orbital Energies [Eh]
    ---------------------

    Doubly Occupied:

       1A    -20.527508     2A    -15.639162     3A    -15.593225
       4A    -15.567325     5A    -11.367722     6A    -11.309895
       7A    -11.275235     8A    -11.263465     9A    -11.261394
      10A     -1.389320    11A     -1.356638    12A     -1.239267
      13A     -1.181284    14A     -1.036539    15A     -0.961487
      16A     -0.855498    17A     -0.825094    18A     -0.806584
      19A     -0.773218    20A     -0.665978    21A     -0.650217
      22A     -0.641047    23A     -0.617421    24A     -0.612604
      25A     -0.596959    26A     -0.581109    27A     -0.550731
      28A     -0.536947    29A     -0.463825    30A     -0.440927
      31A     -0.417162    32A     -0.395464    33A     -0.328431

  @DF-RHF Final Energy:  -431.79497597220598

   => Energetics <=

    Nuclear Repulsion Energy =            432.7342261739935338
    One-Electron Energy =               -1445.6010371385161761
    Two-Electron Energy =                 581.0718349923166670
    Total Energy =                       -431.7949759722059753
  Basis Set: (AUG-CC-PVTZ AUX)
    Blend: AUG-CC-PVTZ-RI
    Molecular point group: c1

    Geometry (in Angstrom), charge = 0, multiplicity = 1:

       Center              X                  Y                   Z               Mass
    ------------   -----------------  -----------------  -----------------  -----------------
         O            1.289789314729     1.573077843141    -0.000003983208    15.994914619570
         N           -1.434801685271     0.960501843141     0.000003016792    14.003074004430
         N            1.792211314729    -0.684168156859     0.000000016792    14.003074004430
         N           -1.000427685271    -1.226259156859     0.000000016792    14.003074004430
         C           -0.508092685271     0.034926543141     0.000004916792    12.000000000000
         C            0.953860314729     0.378463843141     0.000000016792    12.000000000000
         C           -2.651305685271     0.331513843141    -0.000000983208    12.000000000000
         C           -2.356411685271    -1.020822156859    -0.000002983208    12.000000000000
         C            3.233079314729    -0.537534156859     0.000000016792    12.000000000000
         H           -1.226203685271     1.953683843141     0.000009016792     1.007825032230
         H            1.357407314729    -1.601050156859     0.000007016792     1.007825032230
         H           -3.585787685271     0.873274843141    -0.000000983208     1.007825032230
         H           -3.052607685271    -1.848958156859    -0.000006983208     1.007825032230
         H            3.448909314729     0.530801843141    -0.000006983208     1.007825032230
         H            3.672672314729    -0.994710156859    -0.891024983208     1.007825032230
         H            3.672668314729    -0.994697156859     0.891033016792     1.007825032230

  Basis Set: AUG-CC-PVTZ
    Blend: AUG-CC-PVTZ
  Basis Set: (AUG-CC-PVTZ AUX)
    Blend: AUG-CC-PVTZ-JKFIT
	 Reference Energy          =    -431.7949759722059753 [Eh]
	 Singles Energy            =      -0.0000000000000000 [Eh]
	 Same-Spin Energy          =      -0.4553394347383427 [Eh]
	 Opposite-Spin Energy      =      -1.3788631766376946 [Eh]
	 Correlation Energy        =      -1.8342026113760372 [Eh]
	 Total Energy              =    -433.6291785835820178 [Eh]

	 ================> DF-SCS-MP2 Energies <==================
	-----------------------------------------------------------
	 SCS Same-Spin Scale       =       0.3333333333333333 [-]
	 SCS Opposite-Spin Scale   =       1.2000000000000000 [-]
	 SCS Same-Spin Energy      =      -0.1517798115794475 [Eh]
	 SCS Opposite-Spin Energy  =      -1.6546358119652336 [Eh]
	 SCS Correlation Energy    =      -1.8064156235446811 [Eh]
	 SCS Total Energy          =    -433.6013915957506697 [Eh]
	-----------------------------------------------------------

  Dipole Moment: [D]
     X:    -0.9465      Y:    -0.3135      Z:     0.0000     Total:     0.9971

*** Psi4 exiting successfully. Buy a developer a beer!
