                               Psi4 1.3.2 release

  ==> Input File <==

--------------------------------------------------------------------------
#psi4
#
memory 32 gb

molecule  {
0 1
  O        1.2542850     1.5918540    -0.0000040
  N       -1.4703060     0.9792780     0.0000030
  N        1.7567070    -0.6653920     0.0000000
  N       -1.1611776    -1.1456067     0.0000010
  C       -0.5082200     0.0183690     0.0000050
  C        0.9183560     0.3972400     0.0000000
  C       -2.6868100     0.3502900    -0.0000010
  C       -2.3919160    -1.0020460    -0.0000030
  C        3.1975750    -0.5187580     0.0000000
  H       -1.2617080     1.9724600     0.0000090
  H        1.3219030    -1.5822740     0.0000070
  H       -3.6212920     0.8920510    -0.0000010
  H       -3.0881120    -1.8301820    -0.0000070
  H        3.4134050     0.5495780    -0.0000070
  H        3.6371680    -0.9759340    -0.8910250
  H        3.6371640    -0.9759210     0.8910330
units angstrom
no_reorient  #important for SAPT in psi4, default
symmetry c1  #important for SAPT in psi4, default
}

set PROPERTIES_ORIGIN ["COM"]
properties('MP2/aug-cc-pvtz', properties = ['dipole'])
--------------------------------------------------------------------------

    Molecular point group: c1
  Charge       = 0
  Multiplicity = 1
  Basis Set: AUG-CC-PVTZ
    Blend: AUG-CC-PVTZ
  Basis Set: (AUG-CC-PVTZ AUX)
    Blend: AUG-CC-PVTZ-JKFIT

    Orbital Energies [Eh]
    ---------------------

    Doubly Occupied:

       1A    -20.526533     2A    -15.638881     3A    -15.593155
       4A    -15.553006     5A    -11.368429     6A    -11.301751
       7A    -11.273572     8A    -11.263242     9A    -11.247198
      10A     -1.390280    11A     -1.363018    12A     -1.239702
      13A     -1.199417    14A     -1.039077    15A     -0.961594
      16A     -0.865093    17A     -0.835991    18A     -0.790719
      19A     -0.771587    20A     -0.680041    21A     -0.650865
      22A     -0.641871    23A     -0.620053    24A     -0.613042
      25A     -0.609505    26A     -0.589347    27A     -0.550451
      28A     -0.538164    29A     -0.447726    30A     -0.433717
      31A     -0.431835    32A     -0.398140    33A     -0.318626

  @DF-RHF Final Energy:  -431.77954057974529

   => Energetics <=

    Nuclear Repulsion Energy =            434.6343487535998520
    One-Electron Energy =               -1449.3365206279465838
    Two-Electron Energy =                 582.9226312946013877
    Total Energy =                       -431.7795405797453441
  Basis Set: (AUG-CC-PVTZ AUX)
    Blend: AUG-CC-PVTZ-RI
    Molecular point group: c1

    Geometry (in Angstrom), charge = 0, multiplicity = 1:

       Center              X                  Y                   Z               Mass
    ------------   -----------------  -----------------  -----------------  -----------------
         O            1.300418700398     1.569539878501    -0.000004104775    15.994914619570
         N           -1.424172299602     0.956963878501     0.000002895225    14.003074004430
         N            1.802840700398    -0.687706121499    -0.000000104775    14.003074004430
         N           -1.115043899602    -1.167920821499     0.000000895225    14.003074004430
         C           -0.462086299602    -0.003945121499     0.000004895225    12.000000000000
         C            0.964489700398     0.374925878501    -0.000000104775    12.000000000000
         C           -2.640676299602     0.327975878501    -0.000001104775    12.000000000000
         C           -2.345782299602    -1.024360121499    -0.000003104775    12.000000000000
         C            3.243708700398    -0.541072121499    -0.000000104775    12.000000000000
         H           -1.215574299602     1.950145878501     0.000008895225     1.007825032230
         H            1.368036700398    -1.604588121499     0.000006895225     1.007825032230
         H           -3.575158299602     0.869736878501    -0.000001104775     1.007825032230
         H           -3.041978299602    -1.852496121499    -0.000007104775     1.007825032230
         H            3.459538700398     0.527263878501    -0.000007104775     1.007825032230
         H            3.683301700398    -0.998248121499    -0.891025104775     1.007825032230
         H            3.683297700398    -0.998235121499     0.891032895225     1.007825032230

  Basis Set: AUG-CC-PVTZ
    Blend: AUG-CC-PVTZ
  Basis Set: (AUG-CC-PVTZ AUX)
    Blend: AUG-CC-PVTZ-JKFIT
	 Reference Energy          =    -431.7795405797452872 [Eh]
	 Singles Energy            =      -0.0000000000000000 [Eh]
	 Same-Spin Energy          =      -0.4566923262685623 [Eh]
	 Opposite-Spin Energy      =      -1.3780431084145270 [Eh]
	 Correlation Energy        =      -1.8347354346830893 [Eh]
	 Total Energy              =    -433.6142760144283557 [Eh]

	 ================> DF-SCS-MP2 Energies <==================
	-----------------------------------------------------------
	 SCS Same-Spin Scale       =       0.3333333333333333 [-]
	 SCS Opposite-Spin Scale   =       1.2000000000000000 [-]
	 SCS Same-Spin Energy      =      -0.1522307754228541 [Eh]
	 SCS Opposite-Spin Energy  =      -1.6536517300974325 [Eh]
	 SCS Correlation Energy    =      -1.8058825055202865 [Eh]
	 SCS Total Energy          =    -433.5854230852655746 [Eh]
	-----------------------------------------------------------

  Dipole Moment: [D]
     X:    -0.7756      Y:    -0.6157      Z:     0.0000     Total:     0.9903

*** Psi4 exiting successfully. Buy a developer a beer!
