                               Psi4 1.4a3.dev225

  ==> Input File <==

--------------------------------------------------------------------------
#psi4
#
memory 32 gb

molecule  {
0 1
  O        1.2542850     1.5918540    -0.0000040
  N       -1.4703060     0.9792780     0.0000030
  N        1.7567070    -0.6653920     0.0000000
  N       -1.0359320    -1.2074830     0.0000000
  C       -0.4728430    -0.0169647     0.0000051
  C        0.9183560     0.3972400     0.0000000
  C       -2.6868100     0.3502900    -0.0000010
  C       -2.3919160    -1.0020460    -0.0000030
  C        3.1975750    -0.5187580     0.0000000
  H       -1.2617080     1.9724600     0.0000090
  H        1.3219030    -1.5822740     0.0000070
  H       -3.6212920     0.8920510    -0.0000010
  H       -3.0881120    -1.8301820    -0.0000070
  H        3.4134050     0.5495780    -0.0000070
  H        3.6371680    -0.9759340    -0.8910250
  H        3.6371640    -0.9759210     0.8910330
units angstrom
no_reorient  #important for SAPT in psi4, default
symmetry c1  #important for SAPT in psi4, default
}

set PROPERTIES_ORIGIN ["COM"]
properties('MP2/aug-cc-pvtz', properties = ['dipole'])
--------------------------------------------------------------------------

    Molecular point group: c1
  Charge       = 0
  Multiplicity = 1
  Basis Set: AUG-CC-PVTZ
    Blend: AUG-CC-PVTZ
  Basis Set: (AUG-CC-PVTZ AUX)
    Blend: AUG-CC-PVTZ-JKFIT

    Orbital Energies [Eh]
    ---------------------

    Doubly Occupied:

       1A    -20.528034     2A    -15.631611     3A    -15.592041
       4A    -15.574515     5A    -11.365545     6A    -11.311177
       7A    -11.283824     8A    -11.262572     9A    -11.260067
      10A     -1.385897    11A     -1.340333    12A     -1.240809
      13A     -1.179042    14A     -1.040683    15A     -0.962990
      16A     -0.862472    17A     -0.825199    18A     -0.788858
      19A     -0.771548    20A     -0.671683    21A     -0.651921
      22A     -0.637973    23A     -0.610894    24A     -0.603957
      25A     -0.596604    26A     -0.588103    27A     -0.550439
      28A     -0.536416    29A     -0.464433    30A     -0.443311
      31A     -0.419730    32A     -0.395401    33A     -0.328269

  @DF-RHF Final Energy:  -431.79222880923248

   => Energetics <=

    Nuclear Repulsion Energy =            432.4760055417602302
    One-Electron Energy =               -1445.1237667050186246
    Two-Electron Energy =                 580.8555323540258541
    Total Energy =                       -431.7922288092324834
  Basis Set: (AUG-CC-PVTZ AUX)
    Blend: AUG-CC-PVTZ-RI
    Molecular point group: c1

    Geometry (in Angstrom), charge = 0, multiplicity = 1:

       Center              X                  Y                   Z               Mass
    ------------   -----------------  -----------------  -----------------  -----------------
         O            1.283000130436     1.579858717750    -0.000004002399    15.994914619570
         N           -1.441590869564     0.967282717750     0.000002997601    14.003074004430
         N            1.785422130436    -0.677387282250    -0.000000002399    14.003074004430
         N           -1.007216869564    -1.219478282250    -0.000000002399    14.003074004430
         C           -0.444127869564    -0.028959982250     0.000005097601    12.000000000000
         C            0.947071130436     0.385244717750    -0.000000002399    12.000000000000
         C           -2.658094869564     0.338294717750    -0.000001002399    12.000000000000
         C           -2.363200869564    -1.014041282250    -0.000003002399    12.000000000000
         C            3.226290130436    -0.530753282250    -0.000000002399    12.000000000000
         H           -1.232992869564     1.960464717750     0.000008997601     1.007825032230
         H            1.350618130436    -1.594269282250     0.000006997601     1.007825032230
         H           -3.592576869564     0.880055717750    -0.000001002399     1.007825032230
         H           -3.059396869564    -1.842177282250    -0.000007002399     1.007825032230
         H            3.442120130436     0.537582717750    -0.000007002399     1.007825032230
         H            3.665883130436    -0.987929282250    -0.891025002399     1.007825032230
         H            3.665879130436    -0.987916282250     0.891032997601     1.007825032230

  Basis Set: AUG-CC-PVTZ
    Blend: AUG-CC-PVTZ
  Basis Set: (AUG-CC-PVTZ AUX)
    Blend: AUG-CC-PVTZ-JKFIT
	 Reference Energy          =    -431.7922288092324834 [Eh]
	 Singles Energy            =      -0.0000000000000000 [Eh]
	 Same-Spin Energy          =      -0.4562003131319596 [Eh]
	 Opposite-Spin Energy      =      -1.3806108138128996 [Eh]
	 Correlation Energy        =      -1.8368111269448593 [Eh]
	 Total Energy              =    -433.6290399361773211 [Eh]

	 ================> DF-SCS-MP2 Energies <==================
	-----------------------------------------------------------
	 SCS Same-Spin Scale       =       0.3333333333333333 [-]
	 SCS Opposite-Spin Scale   =       1.2000000000000000 [-]
	 SCS Same-Spin Energy      =      -0.1520667710439865 [Eh]
	 SCS Opposite-Spin Energy  =      -1.6567329765754795 [Eh]
	 SCS Correlation Energy    =      -1.8087997476194659 [Eh]
	 SCS Total Energy          =    -433.6010285568519294 [Eh]
	-----------------------------------------------------------

  Dipole Moment: [D]
     X:    -0.9869      Y:    -0.4867      Z:     0.0000     Total:     1.1004

*** Psi4 exiting successfully. Buy a developer a beer!
