                               Psi4 1.3.2 release

  ==> Input File <==

--------------------------------------------------------------------------
#psi4
#
memory 32 gb

molecule  {
0 1
  O        1.2542850     1.5918540    -0.0000040
  N       -1.4703060     0.9792780     0.0000030
  N        1.7567070    -0.6653920     0.0000000
  N       -1.0535657    -1.3015712    -0.0000002
  C       -0.5082200     0.0183690     0.0000050
  C        0.9183560     0.3972400     0.0000000
  C       -2.6868100     0.3502900    -0.0000010
  C       -2.3919160    -1.0020460    -0.0000030
  C        3.1975750    -0.5187580     0.0000000
  H       -1.2617080     1.9724600     0.0000090
  H        1.3219030    -1.5822740     0.0000070
  H       -3.6212920     0.8920510    -0.0000010
  H       -3.0881120    -1.8301820    -0.0000070
  H        3.4134050     0.5495780    -0.0000070
  H        3.6371680    -0.9759340    -0.8910250
  H        3.6371640    -0.9759210     0.8910330
units angstrom
no_reorient  #important for SAPT in psi4, default
symmetry c1  #important for SAPT in psi4, default
}

set PROPERTIES_ORIGIN ["COM"]
properties('MP2/aug-cc-pvtz', properties = ['dipole'])
--------------------------------------------------------------------------

    Molecular point group: c1
  Charge       = 0
  Multiplicity = 1
  Basis Set: AUG-CC-PVTZ
    Blend: AUG-CC-PVTZ
  Basis Set: (AUG-CC-PVTZ AUX)
    Blend: AUG-CC-PVTZ-JKFIT

    Orbital Energies [Eh]
    ---------------------

    Doubly Occupied:

       1A    -20.527910     2A    -15.647370     3A    -15.592940
       4A    -15.583907     5A    -11.367614     6A    -11.321348
       7A    -11.278804     8A    -11.263743     9A    -11.263152
      10A     -1.385871    11A     -1.340805    12A     -1.239922
      13A     -1.174522    14A     -1.034492    15A     -0.961551
      16A     -0.865476    17A     -0.818715    18A     -0.799194
      19A     -0.771728    20A     -0.664664    21A     -0.651296
      22A     -0.637113    23A     -0.617387    24A     -0.605750
      25A     -0.592548    26A     -0.575915    27A     -0.550620
      28A     -0.537232    29A     -0.471565    30A     -0.443655
      31A     -0.416907    32A     -0.396283    33A     -0.322807

  @DF-RHF Final Energy:  -431.78032602037740

   => Energetics <=

    Nuclear Repulsion Energy =            430.2028384398780645
    One-Electron Energy =               -1440.5207132996999917
    Two-Electron Energy =                 578.5375488394445256
    Total Energy =                       -431.7803260203774016
  Basis Set: (AUG-CC-PVTZ AUX)
    Blend: AUG-CC-PVTZ-RI
    Molecular point group: c1

    Geometry (in Angstrom), charge = 0, multiplicity = 1:

       Center              X                  Y                   Z               Mass
    ------------   -----------------  -----------------  -----------------  -----------------
         O            1.288369200070     1.587003507467    -0.000003970409    15.994914619570
         N           -1.436221799930     0.974427507467     0.000003029591    14.003074004430
         N            1.790791200070    -0.670242492533     0.000000029591    14.003074004430
         N           -1.019481499930    -1.306421692533    -0.000000170409    14.003074004430
         C           -0.474135799930     0.013518507467     0.000005029591    12.000000000000
         C            0.952440200070     0.392389507467     0.000000029591    12.000000000000
         C           -2.652725799930     0.345439507467    -0.000000970409    12.000000000000
         C           -2.357831799930    -1.006896492533    -0.000002970409    12.000000000000
         C            3.231659200070    -0.523608492533     0.000000029591    12.000000000000
         H           -1.227623799930     1.967609507467     0.000009029591     1.007825032230
         H            1.355987200070    -1.587124492533     0.000007029591     1.007825032230
         H           -3.587207799930     0.887200507467    -0.000000970409     1.007825032230
         H           -3.054027799930    -1.835032492533    -0.000006970409     1.007825032230
         H            3.447489200070     0.544727507467    -0.000006970409     1.007825032230
         H            3.671252200070    -0.980784492533    -0.891024970409     1.007825032230
         H            3.671248200070    -0.980771492533     0.891033029591     1.007825032230

  Basis Set: AUG-CC-PVTZ
    Blend: AUG-CC-PVTZ
  Basis Set: (AUG-CC-PVTZ AUX)
    Blend: AUG-CC-PVTZ-JKFIT
	 Reference Energy          =    -431.7803260203774016 [Eh]
	 Singles Energy            =      -0.0000000000000000 [Eh]
	 Same-Spin Energy          =      -0.4579604724917401 [Eh]
	 Opposite-Spin Energy      =      -1.3846127293186377 [Eh]
	 Correlation Energy        =      -1.8425732018103778 [Eh]
	 Total Energy              =    -433.6228992221877547 [Eh]

	 ================> DF-SCS-MP2 Energies <==================
	-----------------------------------------------------------
	 SCS Same-Spin Scale       =       0.3333333333333333 [-]
	 SCS Opposite-Spin Scale   =       1.2000000000000000 [-]
	 SCS Same-Spin Energy      =      -0.1526534908305800 [Eh]
	 SCS Opposite-Spin Energy  =      -1.6615352751823651 [Eh]
	 SCS Correlation Energy    =      -1.8141887660129452 [Eh]
	 SCS Total Energy          =    -433.5945147863903344 [Eh]
	-----------------------------------------------------------

  Dipole Moment: [D]
     X:    -1.0420      Y:    -0.2142      Z:     0.0000     Total:     1.0637

*** Psi4 exiting successfully. Buy a developer a beer!
