                               Psi4 1.3.2 release

  ==> Input File <==

--------------------------------------------------------------------------
#psi4
#
memory 32 gb

molecule  {
0 1
  O        1.2542850     1.5918540    -0.0000040
  N       -1.4703060     0.9792780     0.0000030
  N        1.7567070    -0.6653920     0.0000000
  N       -1.0359320    -1.2074830     0.0000000
  C       -0.5082200     0.0183690     0.0000050
  C        0.9183560     0.3972400     0.0000000
  C       -2.7277226     0.4366812    -0.0000005
  C       -2.3919160    -1.0020460    -0.0000030
  C        3.1975750    -0.5187580     0.0000000
  H       -1.2617080     1.9724600     0.0000090
  H        1.3219030    -1.5822740     0.0000070
  H       -3.6212920     0.8920510    -0.0000010
  H       -3.0881120    -1.8301820    -0.0000070
  H        3.4134050     0.5495780    -0.0000070
  H        3.6371680    -0.9759340    -0.8910250
  H        3.6371640    -0.9759210     0.8910330
units angstrom
no_reorient  #important for SAPT in psi4, default
symmetry c1  #important for SAPT in psi4, default
}

set PROPERTIES_ORIGIN ["COM"]
properties('MP2/aug-cc-pvtz', properties = ['dipole'])
--------------------------------------------------------------------------

    Molecular point group: c1
  Charge       = 0
  Multiplicity = 1
  Basis Set: AUG-CC-PVTZ
    Blend: AUG-CC-PVTZ
  Basis Set: (AUG-CC-PVTZ AUX)
    Blend: AUG-CC-PVTZ-JKFIT

    Orbital Energies [Eh]
    ---------------------

    Doubly Occupied:

       1A    -20.526526     2A    -15.642874     3A    -15.592406
       4A    -15.575472     5A    -11.366442     6A    -11.309883
       7A    -11.285179     8A    -11.272799     9A    -11.262904
      10A     -1.385776    11A     -1.344336    12A     -1.239892
      13A     -1.183686    14A     -1.032096    15A     -0.960777
      16A     -0.857186    17A     -0.826113    18A     -0.802656
      19A     -0.775755    20A     -0.683636    21A     -0.651242
      22A     -0.638164    23A     -0.614286    24A     -0.606338
      25A     -0.592082    26A     -0.583853    27A     -0.550315
      28A     -0.535479    29A     -0.464764    30A     -0.442129
      31A     -0.421136    32A     -0.395488    33A     -0.316379

  @DF-RHF Final Energy:  -431.77978994487722

   => Energetics <=

    Nuclear Repulsion Energy =            431.1468126450292289
    One-Electron Energy =               -1442.3771108510745762
    Two-Electron Energy =                 579.4505082611681246
    Total Energy =                       -431.7797899448771659
  Basis Set: (AUG-CC-PVTZ AUX)
    Blend: AUG-CC-PVTZ-RI
    Molecular point group: c1

    Geometry (in Angstrom), charge = 0, multiplicity = 1:

       Center              X                  Y                   Z               Mass
    ------------   -----------------  -----------------  -----------------  -----------------
         O            1.290320481992     1.568178632114    -0.000004040781    15.994914619570
         N           -1.434270518008     0.955602632114     0.000002959219    14.003074004430
         N            1.792742481992    -0.689067367886    -0.000000040781    14.003074004430
         N           -0.999896518008    -1.231158367886    -0.000000040781    14.003074004430
         C           -0.472184518008    -0.005306367886     0.000004959219    12.000000000000
         C            0.954391481992     0.373564632114    -0.000000040781    12.000000000000
         C           -2.691687118008     0.413005832114    -0.000000540781    12.000000000000
         C           -2.355880518008    -1.025721367886    -0.000003040781    12.000000000000
         C            3.233610481992    -0.542433367886    -0.000000040781    12.000000000000
         H           -1.225672518008     1.948784632114     0.000008959219     1.007825032230
         H            1.357938481992    -1.605949367886     0.000006959219     1.007825032230
         H           -3.585256518008     0.868375632114    -0.000001040781     1.007825032230
         H           -3.052076518008    -1.853857367886    -0.000007040781     1.007825032230
         H            3.449440481992     0.525902632114    -0.000007040781     1.007825032230
         H            3.673203481992    -0.999609367886    -0.891025040781     1.007825032230
         H            3.673199481992    -0.999596367886     0.891032959219     1.007825032230

  Basis Set: AUG-CC-PVTZ
    Blend: AUG-CC-PVTZ
  Basis Set: (AUG-CC-PVTZ AUX)
    Blend: AUG-CC-PVTZ-JKFIT
	 Reference Energy          =    -431.7797899448772228 [Eh]
	 Singles Energy            =      -0.0000000000000000 [Eh]
	 Same-Spin Energy          =      -0.4572044777679950 [Eh]
	 Opposite-Spin Energy      =      -1.3824367387498133 [Eh]
	 Correlation Energy        =      -1.8396412165178084 [Eh]
	 Total Energy              =    -433.6194311613950276 [Eh]

	 ================> DF-SCS-MP2 Energies <==================
	-----------------------------------------------------------
	 SCS Same-Spin Scale       =       0.3333333333333333 [-]
	 SCS Opposite-Spin Scale   =       1.2000000000000000 [-]
	 SCS Same-Spin Energy      =      -0.1524014925893317 [Eh]
	 SCS Opposite-Spin Energy  =      -1.6589240864997759 [Eh]
	 SCS Correlation Energy    =      -1.8113255790891074 [Eh]
	 SCS Total Energy          =    -433.5911155239663231 [Eh]
	-----------------------------------------------------------

  Dipole Moment: [D]
     X:    -0.9696      Y:    -0.3883      Z:     0.0000     Total:     1.0444

*** Psi4 exiting successfully. Buy a developer a beer!
