                               Psi4 1.3.2 release

  ==> Input File <==

--------------------------------------------------------------------------
#psi4
#
memory 32 gb

molecule  {
0 1
  O        1.2542850     1.5918540    -0.0000040
  N       -1.4703060     0.9792780     0.0000030
  N        1.7567070    -0.6653920     0.0000000
  N       -1.0359320    -1.2074830     0.0000000
  C       -0.3829744    -0.0435073     0.0000052
  C        0.9183560     0.3972400     0.0000000
  C       -2.6868100     0.3502900    -0.0000010
  C       -2.3919160    -1.0020460    -0.0000030
  C        3.1975750    -0.5187580     0.0000000
  H       -1.2617080     1.9724600     0.0000090
  H        1.3219030    -1.5822740     0.0000070
  H       -3.6212920     0.8920510    -0.0000010
  H       -3.0881120    -1.8301820    -0.0000070
  H        3.4134050     0.5495780    -0.0000070
  H        3.6371680    -0.9759340    -0.8910250
  H        3.6371640    -0.9759210     0.8910330
units angstrom
no_reorient  #important for SAPT in psi4, default
symmetry c1  #important for SAPT in psi4, default
}

set PROPERTIES_ORIGIN ["COM"]
properties('MP2/aug-cc-pvtz', properties = ['dipole'])
--------------------------------------------------------------------------

    Molecular point group: c1
  Charge       = 0
  Multiplicity = 1
  Basis Set: AUG-CC-PVTZ
    Blend: AUG-CC-PVTZ
  Basis Set: (AUG-CC-PVTZ AUX)
    Blend: AUG-CC-PVTZ-JKFIT

    Orbital Energies [Eh]
    ---------------------

    Doubly Occupied:

       1A    -20.525663     2A    -15.629455     3A    -15.589737
       4A    -15.585110     5A    -11.359669     6A    -11.313191
       7A    -11.292997     8A    -11.262325     9A    -11.261136
      10A     -1.385343    11A     -1.324159    12A     -1.242054
      13A     -1.170115    14A     -1.050919    15A     -0.965448
      16A     -0.876320    17A     -0.824501    18A     -0.779877
      19A     -0.764521    20A     -0.678499    21A     -0.653732
      22A     -0.638043    23A     -0.607790    24A     -0.600128
      25A     -0.596134    26A     -0.583167    27A     -0.549311
      28A     -0.535186    29A     -0.457667    30A     -0.444983
      31A     -0.418762    32A     -0.394457    33A     -0.326078

  @DF-RHF Final Energy:  -431.76378407065374

   => Energetics <=

    Nuclear Repulsion Energy =            432.2702186959701294
    One-Electron Energy =               -1444.6950473107617654
    Two-Electron Energy =                 580.6610445441378943
    Total Energy =                       -431.7637840706537418
  Basis Set: (AUG-CC-PVTZ AUX)
    Blend: AUG-CC-PVTZ-RI
    Molecular point group: c1

    Geometry (in Angstrom), charge = 0, multiplicity = 1:

       Center              X                  Y                   Z               Mass
    ------------   -----------------  -----------------  -----------------  -----------------
         O            1.274376808964     1.582405607014    -0.000004011994    15.994914619570
         N           -1.450214191036     0.969829607014     0.000002988006    14.003074004430
         N            1.776798808964    -0.674840392986    -0.000000011994    14.003074004430
         N           -1.015840191036    -1.216931392986    -0.000000011994    14.003074004430
         C           -0.362882591036    -0.052955692986     0.000005188006    12.000000000000
         C            0.938447808964     0.387791607014    -0.000000011994    12.000000000000
         C           -2.666718191036     0.340841607014    -0.000001011994    12.000000000000
         C           -2.371824191036    -1.011494392986    -0.000003011994    12.000000000000
         C            3.217666808964    -0.528206392986    -0.000000011994    12.000000000000
         H           -1.241616191036     1.963011607014     0.000008988006     1.007825032230
         H            1.341994808964    -1.591722392986     0.000006988006     1.007825032230
         H           -3.601200191036     0.882602607014    -0.000001011994     1.007825032230
         H           -3.068020191036    -1.839630392986    -0.000007011994     1.007825032230
         H            3.433496808964     0.540129607014    -0.000007011994     1.007825032230
         H            3.657259808964    -0.985382392986    -0.891025011994     1.007825032230
         H            3.657255808964    -0.985369392986     0.891032988006     1.007825032230

  Basis Set: AUG-CC-PVTZ
    Blend: AUG-CC-PVTZ
  Basis Set: (AUG-CC-PVTZ AUX)
    Blend: AUG-CC-PVTZ-JKFIT
	 Reference Energy          =    -431.7637840706537418 [Eh]
	 Singles Energy            =      -0.0000000000000000 [Eh]
	 Same-Spin Energy          =      -0.4589257054921010 [Eh]
	 Opposite-Spin Energy      =      -1.3854714214936616 [Eh]
	 Correlation Energy        =      -1.8443971269857626 [Eh]
	 Total Energy              =    -433.6081811976395102 [Eh]

	 ================> DF-SCS-MP2 Energies <==================
	-----------------------------------------------------------
	 SCS Same-Spin Scale       =       0.3333333333333333 [-]
	 SCS Opposite-Spin Scale   =       1.2000000000000000 [-]
	 SCS Same-Spin Energy      =      -0.1529752351640337 [Eh]
	 SCS Opposite-Spin Energy  =      -1.6625657057923939 [Eh]
	 SCS Correlation Energy    =      -1.8155409409564276 [Eh]
	 SCS Total Energy          =    -433.5793250116101945 [Eh]
	-----------------------------------------------------------

  Dipole Moment: [D]
     X:    -1.1439      Y:    -0.6043      Z:     0.0000     Total:     1.2937

*** Psi4 exiting successfully. Buy a developer a beer!
