                               Psi4 1.3.2 release

  ==> Input File <==

--------------------------------------------------------------------------
#psi4
#
memory 32 gb

molecule  {
0 1
  O        1.2542850     1.5918540    -0.0000040
  N       -1.4703060     0.9792780     0.0000030
  N        1.7567070    -0.6653920     0.0000000
  N       -1.0359320    -1.2074830     0.0000000
  C       -0.5082200     0.0183690     0.0000050
  C        0.9183560     0.3972400     0.0000000
  C       -2.5917575     0.3675665    -0.0000007
  C       -2.3919160    -1.0020460    -0.0000030
  C        3.1975750    -0.5187580     0.0000000
  H       -1.2617080     1.9724600     0.0000090
  H        1.3219030    -1.5822740     0.0000070
  H       -3.6212920     0.8920510    -0.0000010
  H       -3.0881120    -1.8301820    -0.0000070
  H        3.4134050     0.5495780    -0.0000070
  H        3.6371680    -0.9759340    -0.8910250
  H        3.6371640    -0.9759210     0.8910330
units angstrom
no_reorient  #important for SAPT in psi4, default
symmetry c1  #important for SAPT in psi4, default
}

set PROPERTIES_ORIGIN ["COM"]
properties('MP2/aug-cc-pvtz', properties = ['dipole'])
--------------------------------------------------------------------------

    Molecular point group: c1
  Charge       = 0
  Multiplicity = 1
  Basis Set: AUG-CC-PVTZ
    Blend: AUG-CC-PVTZ
  Basis Set: (AUG-CC-PVTZ AUX)
    Blend: AUG-CC-PVTZ-JKFIT

    Orbital Energies [Eh]
    ---------------------

    Doubly Occupied:

       1A    -20.524862     2A    -15.640014     3A    -15.589476
       4A    -15.573485     5A    -11.363645     6A    -11.302716
       7A    -11.281351     8A    -11.261214     9A    -11.254851
      10A     -1.393114    11A     -1.364664    12A     -1.238238
      13A     -1.192987    14A     -1.037706    15A     -0.958575
      16A     -0.858813    17A     -0.835968    18A     -0.801732
      19A     -0.769041    20A     -0.678687    21A     -0.645884
      22A     -0.644979    23A     -0.617803    24A     -0.615152
      25A     -0.585500    26A     -0.579878    27A     -0.548461
      28A     -0.537577    29A     -0.462057    30A     -0.440211
      31A     -0.425543    32A     -0.394431    33A     -0.322462

  @DF-RHF Final Energy:  -431.78521295982819

   => Energetics <=

    Nuclear Repulsion Energy =            434.6877297556710573
    One-Electron Energy =               -1449.4637384180336994
    Two-Electron Energy =                 582.9907957025344558
    Total Energy =                       -431.7852129598281863
  Basis Set: (AUG-CC-PVTZ AUX)
    Blend: AUG-CC-PVTZ-RI
    Molecular point group: c1

    Geometry (in Angstrom), charge = 0, multiplicity = 1:

       Center              X                  Y                   Z               Mass
    ------------   -----------------  -----------------  -----------------  -----------------
         O            1.277273981141     1.574810517740    -0.000004021590    15.994914619570
         N           -1.447317018859     0.962234517740     0.000002978410    14.003074004430
         N            1.779695981141    -0.682435482260    -0.000000021590    14.003074004430
         N           -1.012943018859    -1.224526482260    -0.000000021590    14.003074004430
         C           -0.485231018859     0.001325517740     0.000004978410    12.000000000000
         C            0.941344981141     0.380196517740    -0.000000021590    12.000000000000
         C           -2.568768518859     0.350523017740    -0.000000721590    12.000000000000
         C           -2.368927018859    -1.019089482260    -0.000003021590    12.000000000000
         C            3.220563981141    -0.535801482260    -0.000000021590    12.000000000000
         H           -1.238719018859     1.955416517740     0.000008978410     1.007825032230
         H            1.344891981141    -1.599317482260     0.000006978410     1.007825032230
         H           -3.598303018859     0.875007517740    -0.000001021590     1.007825032230
         H           -3.065123018859    -1.847225482260    -0.000007021590     1.007825032230
         H            3.436393981141     0.532534517740    -0.000007021590     1.007825032230
         H            3.660156981141    -0.992977482260    -0.891025021590     1.007825032230
         H            3.660152981141    -0.992964482260     0.891032978410     1.007825032230

  Basis Set: AUG-CC-PVTZ
    Blend: AUG-CC-PVTZ
  Basis Set: (AUG-CC-PVTZ AUX)
    Blend: AUG-CC-PVTZ-JKFIT
	 Reference Energy          =    -431.7852129598281863 [Eh]
	 Singles Energy            =      -0.0000000000000000 [Eh]
	 Same-Spin Energy          =      -0.4562191752869047 [Eh]
	 Opposite-Spin Energy      =      -1.3787035872530249 [Eh]
	 Correlation Energy        =      -1.8349227625399296 [Eh]
	 Total Energy              =    -433.6201357223681043 [Eh]

	 ================> DF-SCS-MP2 Energies <==================
	-----------------------------------------------------------
	 SCS Same-Spin Scale       =       0.3333333333333333 [-]
	 SCS Opposite-Spin Scale   =       1.2000000000000000 [-]
	 SCS Same-Spin Energy      =      -0.1520730584289682 [Eh]
	 SCS Opposite-Spin Energy  =      -1.6544443047036299 [Eh]
	 SCS Correlation Energy    =      -1.8065173631325981 [Eh]
	 SCS Total Energy          =    -433.5917303229607569 [Eh]
	-----------------------------------------------------------

  Dipole Moment: [D]
     X:    -1.0374      Y:    -0.3171      Z:     0.0000     Total:     1.0848

*** Psi4 exiting successfully. Buy a developer a beer!
