                               Psi4 1.3.2 release

  ==> Input File <==

--------------------------------------------------------------------------
#psi4
#
memory 32 gb

molecule  {
0 1
  O        1.2542850     1.5918540    -0.0000040
  N       -1.4703060     0.9792780     0.0000030
  N        1.7567070    -0.6653920     0.0000000
  N       -1.0218862    -1.0646187     0.0000004
  C       -0.5082200     0.0183690     0.0000050
  C        0.9183560     0.3972400     0.0000000
  C       -2.6868100     0.3502900    -0.0000010
  C       -2.3919160    -1.0020460    -0.0000030
  C        3.1975750    -0.5187580     0.0000000
  H       -1.2617080     1.9724600     0.0000090
  H        1.3219030    -1.5822740     0.0000070
  H       -3.6212920     0.8920510    -0.0000010
  H       -3.0881120    -1.8301820    -0.0000070
  H        3.4134050     0.5495780    -0.0000070
  H        3.6371680    -0.9759340    -0.8910250
  H        3.6371640    -0.9759210     0.8910330
units angstrom
no_reorient  #important for SAPT in psi4, default
symmetry c1  #important for SAPT in psi4, default
}

set PROPERTIES_ORIGIN ["COM"]
properties('MP2/aug-cc-pvtz', properties = ['dipole'])
--------------------------------------------------------------------------

    Molecular point group: c1
  Charge       = 0
  Multiplicity = 1
  Basis Set: AUG-CC-PVTZ
    Blend: AUG-CC-PVTZ
  Basis Set: (AUG-CC-PVTZ AUX)
    Blend: AUG-CC-PVTZ-JKFIT

    Orbital Energies [Eh]
    ---------------------

    Doubly Occupied:

       1A    -20.527184     2A    -15.616749     3A    -15.592300
       4A    -15.548475     5A    -11.363868     6A    -11.290276
       7A    -11.280787     8A    -11.262873     9A    -11.257155
      10A     -1.393931    11A     -1.363736    12A     -1.239840
      13A     -1.187366    14A     -1.045513    15A     -0.963982
      16A     -0.850285    17A     -0.835458    18A     -0.791670
      19A     -0.774493    20A     -0.677958    21A     -0.650387
      22A     -0.645109    23A     -0.613244    24A     -0.610573
      25A     -0.606208    26A     -0.589224    27A     -0.550271
      28A     -0.535807    29A     -0.461723    30A     -0.426168
      31A     -0.423204    32A     -0.394596    33A     -0.335803

  @DF-RHF Final Energy:  -431.78356850085760

   => Energetics <=

    Nuclear Repulsion Energy =            436.4641263417965433
    One-Electron Energy =               -1453.0829577325455375
    Two-Electron Energy =                 584.8352628898912826
    Total Energy =                       -431.7835685008576547
  Basis Set: (AUG-CC-PVTZ AUX)
    Blend: AUG-CC-PVTZ-RI
    Molecular point group: c1

    Geometry (in Angstrom), charge = 0, multiplicity = 1:

       Center              X                  Y                   Z               Mass
    ------------   -----------------  -----------------  -----------------  -----------------
         O            1.284821988789     1.560471504720    -0.000004037592    15.994914619570
         N           -1.439769011211     0.947895504720     0.000002962408    14.003074004430
         N            1.787243988789    -0.696774495280    -0.000000037592    14.003074004430
         N           -0.991349211211    -1.096001195280     0.000000362408    14.003074004430
         C           -0.477683011211    -0.013013495280     0.000004962408    12.000000000000
         C            0.948892988789     0.365857504720    -0.000000037592    12.000000000000
         C           -2.656273011211     0.318907504720    -0.000001037592    12.000000000000
         C           -2.361379011211    -1.033428495280    -0.000003037592    12.000000000000
         C            3.228111988789    -0.550140495280    -0.000000037592    12.000000000000
         H           -1.231171011211     1.941077504720     0.000008962408     1.007825032230
         H            1.352439988789    -1.613656495280     0.000006962408     1.007825032230
         H           -3.590755011211     0.860668504720    -0.000001037592     1.007825032230
         H           -3.057575011211    -1.861564495280    -0.000007037592     1.007825032230
         H            3.443941988789     0.518195504720    -0.000007037592     1.007825032230
         H            3.667704988789    -1.007316495280    -0.891025037592     1.007825032230
         H            3.667700988789    -1.007303495280     0.891032962408     1.007825032230

  Basis Set: AUG-CC-PVTZ
    Blend: AUG-CC-PVTZ
  Basis Set: (AUG-CC-PVTZ AUX)
    Blend: AUG-CC-PVTZ-JKFIT
	 Reference Energy          =    -431.7835685008575979 [Eh]
	 Singles Energy            =      -0.0000000000000000 [Eh]
	 Same-Spin Energy          =      -0.4530895539977677 [Eh]
	 Opposite-Spin Energy      =      -1.3740018712925377 [Eh]
	 Correlation Energy        =      -1.8270914252903054 [Eh]
	 Total Energy              =    -433.6106599261478891 [Eh]

	 ================> DF-SCS-MP2 Energies <==================
	-----------------------------------------------------------
	 SCS Same-Spin Scale       =       0.3333333333333333 [-]
	 SCS Opposite-Spin Scale   =       1.2000000000000000 [-]
	 SCS Same-Spin Energy      =      -0.1510298513325892 [Eh]
	 SCS Opposite-Spin Energy  =      -1.6488022455510452 [Eh]
	 SCS Correlation Energy    =      -1.7998320968836343 [Eh]
	 SCS Total Energy          =    -433.5834005977412176 [Eh]
	-----------------------------------------------------------

  Dipole Moment: [D]
     X:    -0.8521      Y:    -0.7799      Z:     0.0000     Total:     1.1552

*** Psi4 exiting successfully. Buy a developer a beer!
