                               Psi4 1.3.2 release

  ==> Input File <==

--------------------------------------------------------------------------
#psi4
#
memory 32 gb

molecule  {
0 1
  O        1.2542850     1.5918540    -0.0000040
  N       -1.4703060     0.9792780     0.0000030
  N        1.7567070    -0.6653920     0.0000000
  N       -1.0359320    -1.2074830     0.0000000
  C       -0.5082200     0.0183690     0.0000050
  C        0.9183560     0.3972400     0.0000000
  C       -2.7458930     0.4808950    -0.0000002
  C       -2.3919160    -1.0020460    -0.0000030
  C        3.1975750    -0.5187580     0.0000000
  H       -1.2617080     1.9724600     0.0000090
  H        1.3219030    -1.5822740     0.0000070
  H       -3.6212920     0.8920510    -0.0000010
  H       -3.0881120    -1.8301820    -0.0000070
  H        3.4134050     0.5495780    -0.0000070
  H        3.6371680    -0.9759340    -0.8910250
  H        3.6371640    -0.9759210     0.8910330
units angstrom
no_reorient  #important for SAPT in psi4, default
symmetry c1  #important for SAPT in psi4, default
}

set PROPERTIES_ORIGIN ["COM"]
properties('MP2/aug-cc-pvtz', properties = ['dipole'])
--------------------------------------------------------------------------

    Molecular point group: c1
  Charge       = 0
  Multiplicity = 1
  Basis Set: AUG-CC-PVTZ
    Blend: AUG-CC-PVTZ
  Basis Set: (AUG-CC-PVTZ AUX)
    Blend: AUG-CC-PVTZ-JKFIT

    Orbital Energies [Eh]
    ---------------------

    Doubly Occupied:

       1A    -20.525969     2A    -15.646894     3A    -15.592372
       4A    -15.577839     5A    -11.366451     6A    -11.309757
       7A    -11.287960     8A    -11.278217     9A    -11.262896
      10A     -1.385357    11A     -1.343064    12A     -1.239930
      13A     -1.185714    14A     -1.029973    15A     -0.960750
      16A     -0.858805    17A     -0.826632    18A     -0.804314
      19A     -0.777210    20A     -0.693881    21A     -0.650676
      22A     -0.638003    23A     -0.617477    24A     -0.605787
      25A     -0.588169    26A     -0.577523    27A     -0.550103
      28A     -0.535026    29A     -0.463985    30A     -0.441973
      31A     -0.423017    32A     -0.395639    33A     -0.310886

  @DF-RHF Final Energy:  -431.76196070536810

   => Energetics <=

    Nuclear Repulsion Energy =            430.4957204443994669
    One-Electron Energy =               -1441.0108634408886701
    Two-Electron Energy =                 578.7531822911211066
    Total Energy =                       -431.7619607053680966
  Basis Set: (AUG-CC-PVTZ AUX)
    Blend: AUG-CC-PVTZ-RI
    Molecular point group: c1

    Geometry (in Angstrom), charge = 0, multiplicity = 1:

       Center              X                  Y                   Z               Mass
    ------------   -----------------  -----------------  -----------------  -----------------
         O            1.292064018672     1.563936106794    -0.000004069567    15.994914619570
         N           -1.432526981328     0.951360106794     0.000002930433    14.003074004430
         N            1.794486018672    -0.693309893206    -0.000000069567    14.003074004430
         N           -0.998152981328    -1.235400893206    -0.000000069567    14.003074004430
         C           -0.470440981328    -0.009548893206     0.000004930433    12.000000000000
         C            0.956135018672     0.369322106794    -0.000000069567    12.000000000000
         C           -2.708113981328     0.452977106794    -0.000000269567    12.000000000000
         C           -2.354136981328    -1.029963893206    -0.000003069567    12.000000000000
         C            3.235354018672    -0.546675893206    -0.000000069567    12.000000000000
         H           -1.223928981328     1.944542106794     0.000008930433     1.007825032230
         H            1.359682018672    -1.610191893206     0.000006930433     1.007825032230
         H           -3.583512981328     0.864133106794    -0.000001069567     1.007825032230
         H           -3.050332981328    -1.858099893206    -0.000007069567     1.007825032230
         H            3.451184018672     0.521660106794    -0.000007069567     1.007825032230
         H            3.674947018672    -1.003851893206    -0.891025069567     1.007825032230
         H            3.674943018672    -1.003838893206     0.891032930433     1.007825032230

  Basis Set: AUG-CC-PVTZ
    Blend: AUG-CC-PVTZ
  Basis Set: (AUG-CC-PVTZ AUX)
    Blend: AUG-CC-PVTZ-JKFIT
	 Reference Energy          =    -431.7619607053680966 [Eh]
	 Singles Energy            =      -0.0000000000000000 [Eh]
	 Same-Spin Energy          =      -0.4581396195250674 [Eh]
	 Opposite-Spin Energy      =      -1.3843836401524239 [Eh]
	 Correlation Energy        =      -1.8425232596774914 [Eh]
	 Total Energy              =    -433.6044839650455742 [Eh]

	 ================> DF-SCS-MP2 Energies <==================
	-----------------------------------------------------------
	 SCS Same-Spin Scale       =       0.3333333333333333 [-]
	 SCS Opposite-Spin Scale   =       1.2000000000000000 [-]
	 SCS Same-Spin Energy      =      -0.1527132065083558 [Eh]
	 SCS Opposite-Spin Energy  =      -1.6612603681829086 [Eh]
	 SCS Correlation Energy    =      -1.8139735746912644 [Eh]
	 SCS Total Energy          =    -433.5759342800593572 [Eh]
	-----------------------------------------------------------

  Dipole Moment: [D]
     X:    -0.9490      Y:    -0.3960      Z:     0.0000     Total:     1.0283

*** Psi4 exiting successfully. Buy a developer a beer!
