                               Psi4 1.4a3.dev225

  ==> Input File <==

--------------------------------------------------------------------------
#psi4
#
memory 32 gb

molecule  {
0 1
  O        1.2542850     1.5918540    -0.0000040
  N       -1.4703060     0.9792780     0.0000030
  N        1.7567070    -0.6653920     0.0000000
  N       -1.0359320    -1.2074830     0.0000000
  C       -0.5082200     0.0183690     0.0000050
  C        0.9183560     0.3972400     0.0000000
  C       -2.6868100     0.3502900    -0.0000010
  C       -2.3919160    -1.0020460    -0.0000030
  C        3.1975750    -0.5187580     0.0000000
  H       -1.2617080     1.9724600     0.0000090
  H        1.3219030    -1.5822740     0.0000070
  H       -3.6039895     0.8820199    -0.0000010
  H       -3.0881120    -1.8301820    -0.0000070
  H        3.4134050     0.5495780    -0.0000070
  H        3.6371680    -0.9759340    -0.8910250
  H        3.6371640    -0.9759210     0.8910330
units angstrom
no_reorient  #important for SAPT in psi4, default
symmetry c1  #important for SAPT in psi4, default
}

set PROPERTIES_ORIGIN ["COM"]
properties('MP2/aug-cc-pvtz', properties = ['dipole'])
--------------------------------------------------------------------------

    Molecular point group: c1
  Charge       = 0
  Multiplicity = 1
  Basis Set: AUG-CC-PVTZ
    Blend: AUG-CC-PVTZ
  Basis Set: (AUG-CC-PVTZ AUX)
    Blend: AUG-CC-PVTZ-JKFIT

    Orbital Energies [Eh]
    ---------------------

    Doubly Occupied:

       1A    -20.527688     2A    -15.635513     3A    -15.592534
       4A    -15.570873     5A    -11.366478     6A    -11.310373
       7A    -11.277510     8A    -11.262963     9A    -11.260613
      10A     -1.386844    11A     -1.347855    12A     -1.239899
      13A     -1.180249    14A     -1.038953    15A     -0.962412
      16A     -0.858877    17A     -0.825265    18A     -0.798488
      19A     -0.773583    20A     -0.669919    21A     -0.651566
      22A     -0.638846    23A     -0.615024    24A     -0.608078
      25A     -0.597403    26A     -0.586344    27A     -0.550539
      28A     -0.536649    29A     -0.464484    30A     -0.442418
      31A     -0.418021    32A     -0.395312    33A     -0.328743

  @DF-RHF Final Energy:  -431.79700674804616

   => Energetics <=

    Nuclear Repulsion Energy =            432.6937953345177448
    One-Electron Energy =               -1445.5409695391415426
    Two-Electron Energy =                 581.0501674565776966
    Total Energy =                       -431.7970067480461012
  Basis Set: (AUG-CC-PVTZ AUX)
    Blend: AUG-CC-PVTZ-RI
    Molecular point group: c1

    Geometry (in Angstrom), charge = 0, multiplicity = 1:

       Center              X                  Y                   Z               Mass
    ------------   -----------------  -----------------  -----------------  -----------------
         O            1.286255285158     1.576549119096    -0.000003992803    15.994914619570
         N           -1.438335714842     0.963973119096     0.000003007197    14.003074004430
         N            1.788677285158    -0.680696880904     0.000000007197    14.003074004430
         N           -1.003961714842    -1.222787880904     0.000000007197    14.003074004430
         C           -0.476249714842     0.003064119096     0.000005007197    12.000000000000
         C            0.950326285158     0.381935119096     0.000000007197    12.000000000000
         C           -2.654839714842     0.334985119096    -0.000000992803    12.000000000000
         C           -2.359945714842    -1.017350880904    -0.000002992803    12.000000000000
         C            3.229545285158    -0.534062880904     0.000000007197    12.000000000000
         H           -1.229737714842     1.957155119096     0.000009007197     1.007825032230
         H            1.353873285158    -1.597578880904     0.000007007197     1.007825032230
         H           -3.572019214842     0.866715019096    -0.000000992803     1.007825032230
         H           -3.056141714842    -1.845486880904    -0.000006992803     1.007825032230
         H            3.445375285158     0.534273119096    -0.000006992803     1.007825032230
         H            3.669138285158    -0.991238880904    -0.891024992803     1.007825032230
         H            3.669134285158    -0.991225880904     0.891033007197     1.007825032230

  Basis Set: AUG-CC-PVTZ
    Blend: AUG-CC-PVTZ
  Basis Set: (AUG-CC-PVTZ AUX)
    Blend: AUG-CC-PVTZ-JKFIT
	 Reference Energy          =    -431.7970067480461580 [Eh]
	 Singles Energy            =      -0.0000000000000000 [Eh]
	 Same-Spin Energy          =      -0.4556740633140740 [Eh]
	 Opposite-Spin Energy      =      -1.3794875433689890 [Eh]
	 Correlation Energy        =      -1.8351616066830629 [Eh]
	 Total Energy              =    -433.6321683547292309 [Eh]

	 ================> DF-SCS-MP2 Energies <==================
	-----------------------------------------------------------
	 SCS Same-Spin Scale       =       0.3333333333333333 [-]
	 SCS Opposite-Spin Scale   =       1.2000000000000000 [-]
	 SCS Same-Spin Energy      =      -0.1518913544380247 [Eh]
	 SCS Opposite-Spin Energy  =      -1.6553850520427869 [Eh]
	 SCS Correlation Energy    =      -1.8072764064808116 [Eh]
	 SCS Total Energy          =    -433.6042831545269678 [Eh]
	-----------------------------------------------------------

  Dipole Moment: [D]
     X:    -0.9751      Y:    -0.4003      Z:     0.0000     Total:     1.0541

*** Psi4 exiting successfully. Buy a developer a beer!
