                               Psi4 1.3.2 release

  ==> Input File <==

--------------------------------------------------------------------------
#psi4
#
memory 32 gb

molecule  {
0 1
  O        1.2542850     1.5918540    -0.0000040
  N       -1.4703060     0.9792780     0.0000030
  N        1.7567070    -0.6653920     0.0000000
  N       -1.0359320    -1.2074830     0.0000000
  C       -0.5082200     0.0183690     0.0000050
  C        0.9183560     0.3972400     0.0000000
  C       -2.6868100     0.3502900    -0.0000010
  C       -2.3493048    -1.1974540    -0.0000033
  C        3.1975750    -0.5187580     0.0000000
  H       -1.2617080     1.9724600     0.0000090
  H        1.3219030    -1.5822740     0.0000070
  H       -3.6212920     0.8920510    -0.0000010
  H       -3.0881120    -1.8301820    -0.0000070
  H        3.4134050     0.5495780    -0.0000070
  H        3.6371680    -0.9759340    -0.8910250
  H        3.6371640    -0.9759210     0.8910330
units angstrom
no_reorient  #important for SAPT in psi4, default
symmetry c1  #important for SAPT in psi4, default
}

set PROPERTIES_ORIGIN ["COM"]
properties('MP2/aug-cc-pvtz', properties = ['dipole'])
--------------------------------------------------------------------------

    Molecular point group: c1
  Charge       = 0
  Multiplicity = 1
  Basis Set: AUG-CC-PVTZ
    Blend: AUG-CC-PVTZ
  Basis Set: (AUG-CC-PVTZ AUX)
    Blend: AUG-CC-PVTZ-JKFIT

    Orbital Energies [Eh]
    ---------------------

    Doubly Occupied:

       1A    -20.521877     2A    -15.651585     3A    -15.587294
       4A    -15.576094     5A    -11.362259     6A    -11.301241
       7A    -11.299093     8A    -11.276704     9A    -11.259861
      10A     -1.382414    11A     -1.344246    12A     -1.235964
      13A     -1.197298    14A     -1.024818    15A     -0.952273
      16A     -0.857473    17A     -0.847574    18A     -0.796307
      19A     -0.769691    20A     -0.683953    21A     -0.659896
      22A     -0.635748    23A     -0.629667    24A     -0.604426
      25A     -0.592987    26A     -0.582535    27A     -0.546680
      28A     -0.532053    29A     -0.444788    30A     -0.434694
      31A     -0.433990    32A     -0.393765    33A     -0.300350

  @DF-RHF Final Energy:  -431.74828300742678

   => Energetics <=

    Nuclear Repulsion Energy =            430.6760619886686641
    One-Electron Energy =               -1441.4094938957819068
    Two-Electron Energy =                 578.9851488996864646
    Total Energy =                       -431.7482830074268350
  Basis Set: (AUG-CC-PVTZ AUX)
    Blend: AUG-CC-PVTZ-RI
    Molecular point group: c1

    Geometry (in Angstrom), charge = 0, multiplicity = 1:

       Center              X                  Y                   Z               Mass
    ------------   -----------------  -----------------  -----------------  -----------------
         O            1.282305974389     1.595218611510    -0.000003964017    15.994914619570
         N           -1.442285025611     0.982642611510     0.000003035983    14.003074004430
         N            1.784727974389    -0.662027388490     0.000000035983    14.003074004430
         N           -1.007911025611    -1.204118388490     0.000000035983    14.003074004430
         C           -0.480199025611     0.021733611510     0.000005035983    12.000000000000
         C            0.946376974389     0.400604611510     0.000000035983    12.000000000000
         C           -2.658789025611     0.353654611510    -0.000000964017    12.000000000000
         C           -2.321283825611    -1.194089388490    -0.000003264017    12.000000000000
         C            3.225595974389    -0.515393388490     0.000000035983    12.000000000000
         H           -1.233687025611     1.975824611510     0.000009035983     1.007825032230
         H            1.349923974389    -1.578909388490     0.000007035983     1.007825032230
         H           -3.593271025611     0.895415611510    -0.000000964017     1.007825032230
         H           -3.060091025611    -1.826817388490    -0.000006964017     1.007825032230
         H            3.441425974389     0.552942611510    -0.000006964017     1.007825032230
         H            3.665188974389    -0.972569388490    -0.891024964017     1.007825032230
         H            3.665184974389    -0.972556388490     0.891033035983     1.007825032230

  Basis Set: AUG-CC-PVTZ
    Blend: AUG-CC-PVTZ
  Basis Set: (AUG-CC-PVTZ AUX)
    Blend: AUG-CC-PVTZ-JKFIT
	 Reference Energy          =    -431.7482830074267781 [Eh]
	 Singles Energy            =      -0.0000000000000000 [Eh]
	 Same-Spin Energy          =      -0.4588633498249115 [Eh]
	 Opposite-Spin Energy      =      -1.3845698267174469 [Eh]
	 Correlation Energy        =      -1.8434331765423584 [Eh]
	 Total Energy              =    -433.5917161839691403 [Eh]

	 ================> DF-SCS-MP2 Energies <==================
	-----------------------------------------------------------
	 SCS Same-Spin Scale       =       0.3333333333333333 [-]
	 SCS Opposite-Spin Scale   =       1.2000000000000000 [-]
	 SCS Same-Spin Energy      =      -0.1529544499416371 [Eh]
	 SCS Opposite-Spin Energy  =      -1.6614837920609362 [Eh]
	 SCS Correlation Energy    =      -1.8144382420025733 [Eh]
	 SCS Total Energy          =    -433.5627212494293303 [Eh]
	-----------------------------------------------------------

  Dipole Moment: [D]
     X:    -1.0780      Y:    -0.6499      Z:     0.0000     Total:     1.2588

*** Psi4 exiting successfully. Buy a developer a beer!
