                               Psi4 1.4a3.dev225

  ==> Input File <==

--------------------------------------------------------------------------
#psi4
#
memory 32 gb

molecule  {
0 1
  O        1.2542850     1.5918540    -0.0000040
  N       -1.4703060     0.9792780     0.0000030
  N        1.7567070    -0.6653920     0.0000000
  N       -1.0359320    -1.2074830     0.0000000
  C       -0.4884498     0.0642944     0.0000052
  C        0.9183560     0.3972400     0.0000000
  C       -2.6868100     0.3502900    -0.0000010
  C       -2.3919160    -1.0020460    -0.0000030
  C        3.1975750    -0.5187580     0.0000000
  H       -1.2617080     1.9724600     0.0000090
  H        1.3219030    -1.5822740     0.0000070
  H       -3.6212920     0.8920510    -0.0000010
  H       -3.0881120    -1.8301820    -0.0000070
  H        3.4134050     0.5495780    -0.0000070
  H        3.6371680    -0.9759340    -0.8910250
  H        3.6371640    -0.9759210     0.8910330
units angstrom
no_reorient  #important for SAPT in psi4, default
symmetry c1  #important for SAPT in psi4, default
}

set PROPERTIES_ORIGIN ["COM"]
properties('MP2/aug-cc-pvtz', properties = ['dipole'])
--------------------------------------------------------------------------

    Molecular point group: c1
  Charge       = 0
  Multiplicity = 1
  Basis Set: AUG-CC-PVTZ
    Blend: AUG-CC-PVTZ
  Basis Set: (AUG-CC-PVTZ AUX)
    Blend: AUG-CC-PVTZ-JKFIT

    Orbital Energies [Eh]
    ---------------------

    Doubly Occupied:

       1A    -20.526016     2A    -15.641725     3A    -15.592199
       4A    -15.572719     5A    -11.364504     6A    -11.310581
       7A    -11.279768     8A    -11.262896     9A    -11.262858
      10A     -1.387945    11A     -1.346506    12A     -1.239386
      13A     -1.172143    14A     -1.042421    15A     -0.962530
      16A     -0.863852    17A     -0.823452    18A     -0.800065
      19A     -0.773244    20A     -0.669987    21A     -0.651295
      22A     -0.639646    23A     -0.613327    24A     -0.607883
      25A     -0.597935    26A     -0.586110    27A     -0.550255
      28A     -0.536796    29A     -0.458067    30A     -0.444294
      31A     -0.414218    32A     -0.394788    33A     -0.327092

  @DF-RHF Final Energy:  -431.79062921586564

   => Energetics <=

    Nuclear Repulsion Energy =            432.5194592225788028
    One-Electron Energy =               -1445.1871679917753681
    Two-Electron Energy =                 580.8770795533309865
    Total Energy =                       -431.7906292158655788
  Basis Set: (AUG-CC-PVTZ AUX)
    Blend: AUG-CC-PVTZ-RI
    Molecular point group: c1

    Geometry (in Angstrom), charge = 0, multiplicity = 1:

       Center              X                  Y                   Z               Mass
    ------------   -----------------  -----------------  -----------------  -----------------
         O            1.284497677450     1.572061518929    -0.000004011994    15.994914619570
         N           -1.440093322550     0.959485518929     0.000002988006    14.003074004430
         N            1.786919677450    -0.685184481071    -0.000000011994    14.003074004430
         N           -1.005719322550    -1.227275481071    -0.000000011994    14.003074004430
         C           -0.458237122550     0.044501918929     0.000005188006    12.000000000000
         C            0.948568677450     0.377447518929    -0.000000011994    12.000000000000
         C           -2.656597322550     0.330497518929    -0.000001011994    12.000000000000
         C           -2.361703322550    -1.021838481071    -0.000003011994    12.000000000000
         C            3.227787677450    -0.538550481071    -0.000000011994    12.000000000000
         H           -1.231495322550     1.952667518929     0.000008988006     1.007825032230
         H            1.352115677450    -1.602066481071     0.000006988006     1.007825032230
         H           -3.591079322550     0.872258518929    -0.000001011994     1.007825032230
         H           -3.057899322550    -1.849974481071    -0.000007011994     1.007825032230
         H            3.443617677450     0.529785518929    -0.000007011994     1.007825032230
         H            3.667380677450    -0.995726481071    -0.891025011994     1.007825032230
         H            3.667376677450    -0.995713481071     0.891032988006     1.007825032230

  Basis Set: AUG-CC-PVTZ
    Blend: AUG-CC-PVTZ
  Basis Set: (AUG-CC-PVTZ AUX)
    Blend: AUG-CC-PVTZ-JKFIT
	 Reference Energy          =    -431.7906292158656356 [Eh]
	 Singles Energy            =      -0.0000000000000000 [Eh]
	 Same-Spin Energy          =      -0.4569532393480583 [Eh]
	 Opposite-Spin Energy      =      -1.3816366757574345 [Eh]
	 Correlation Energy        =      -1.8385899151054930 [Eh]
	 Total Energy              =    -433.6292191309711370 [Eh]

	 ================> DF-SCS-MP2 Energies <==================
	-----------------------------------------------------------
	 SCS Same-Spin Scale       =       0.3333333333333333 [-]
	 SCS Opposite-Spin Scale   =       1.2000000000000000 [-]
	 SCS Same-Spin Energy      =      -0.1523177464493528 [Eh]
	 SCS Opposite-Spin Energy  =      -1.6579640109089213 [Eh]
	 SCS Correlation Energy    =      -1.8102817573582741 [Eh]
	 SCS Total Energy          =    -433.6009109732239040 [Eh]
	-----------------------------------------------------------

  Dipole Moment: [D]
     X:    -1.0996      Y:    -0.3540      Z:     0.0000     Total:     1.1551

*** Psi4 exiting successfully. Buy a developer a beer!
