                               Psi4 1.3.2 release

  ==> Input File <==

--------------------------------------------------------------------------
#psi4
#
memory 32 gb

molecule  {
0 1
  O        1.2542850     1.5918540    -0.0000040
  N       -1.4703060     0.9792780     0.0000030
  N        1.7567070    -0.6653920     0.0000000
  N       -1.0359320    -1.2074830     0.0000000
  C       -0.5082200     0.0183690     0.0000050
  C        0.9183560     0.3972400     0.0000000
  C       -2.6868100     0.3502900    -0.0000010
  C       -2.3919160    -1.0020460    -0.0000030
  C        3.1975750    -0.5187580     0.0000000
  H       -1.2617080     1.9724600     0.0000090
  H        1.3219030    -1.5822740     0.0000070
  H       -3.6212920     0.8920510    -0.0000010
  H       -3.0237624    -1.7536371    -0.0000066
  H        3.4134050     0.5495780    -0.0000070
  H        3.6371680    -0.9759340    -0.8910250
  H        3.6371640    -0.9759210     0.8910330
units angstrom
no_reorient  #important for SAPT in psi4, default
symmetry c1  #important for SAPT in psi4, default
}

set PROPERTIES_ORIGIN ["COM"]
properties('MP2/aug-cc-pvtz', properties = ['dipole'])
--------------------------------------------------------------------------

    Molecular point group: c1
  Charge       = 0
  Multiplicity = 1
  Basis Set: AUG-CC-PVTZ
    Blend: AUG-CC-PVTZ
  Basis Set: (AUG-CC-PVTZ AUX)
    Blend: AUG-CC-PVTZ-JKFIT

    Orbital Energies [Eh]
    ---------------------

    Doubly Occupied:

       1A    -20.527463     2A    -15.635242     3A    -15.592339
       4A    -15.570244     5A    -11.366203     6A    -11.309857
       7A    -11.279218     8A    -11.262839     9A    -11.249160
      10A     -1.386585    11A     -1.347454    12A     -1.239700
      13A     -1.180248    14A     -1.040401    15A     -0.962609
      16A     -0.858598    17A     -0.839088    18A     -0.797070
      19A     -0.772970    20A     -0.669054    21A     -0.651948
      22A     -0.638592    23A     -0.622158    24A     -0.607801
      25A     -0.604425    26A     -0.587956    27A     -0.550427
      28A     -0.536441    29A     -0.464985    30A     -0.442164
      31A     -0.417679    32A     -0.395120    33A     -0.328552

  @DF-RHF Final Energy:  -431.79075655291592

   => Energetics <=

    Nuclear Repulsion Energy =            433.1412210039019328
    One-Electron Energy =               -1446.3947747539789361
    Two-Electron Energy =                 581.4627971971610805
    Total Energy =                       -431.7907565529159228
  Basis Set: (AUG-CC-PVTZ AUX)
    Blend: AUG-CC-PVTZ-RI
    Molecular point group: c1

    Geometry (in Angstrom), charge = 0, multiplicity = 1:

       Center              X                  Y                   Z               Mass
    ------------   -----------------  -----------------  -----------------  -----------------
         O            1.285876141885     1.575851420238    -0.000003996027    15.994914619570
         N           -1.438714858115     0.963275420238     0.000003003973    14.003074004430
         N            1.788298141885    -0.681394579762     0.000000003973    14.003074004430
         N           -1.004340858115    -1.223485579762     0.000000003973    14.003074004430
         C           -0.476628858115     0.002366420238     0.000005003973    12.000000000000
         C            0.949947141885     0.381237420238     0.000000003973    12.000000000000
         C           -2.655218858115     0.334287420238    -0.000000996027    12.000000000000
         C           -2.360324858115    -1.018048579762    -0.000002996027    12.000000000000
         C            3.229166141885    -0.534760579762     0.000000003973    12.000000000000
         H           -1.230116858115     1.956457420238     0.000009003973     1.007825032230
         H            1.353494141885    -1.598276579762     0.000007003973     1.007825032230
         H           -3.589700858115     0.876048420238    -0.000000996027     1.007825032230
         H           -2.992171258115    -1.769639679762    -0.000006596027     1.007825032230
         H            3.444996141885     0.533575420238    -0.000006996027     1.007825032230
         H            3.668759141885    -0.991936579762    -0.891024996027     1.007825032230
         H            3.668755141885    -0.991923579762     0.891033003973     1.007825032230

  Basis Set: AUG-CC-PVTZ
    Blend: AUG-CC-PVTZ
  Basis Set: (AUG-CC-PVTZ AUX)
    Blend: AUG-CC-PVTZ-JKFIT
	 Reference Energy          =    -431.7907565529159228 [Eh]
	 Singles Energy            =      -0.0000000000000000 [Eh]
	 Same-Spin Energy          =      -0.4555643058104479 [Eh]
	 Opposite-Spin Energy      =      -1.3791800492432666 [Eh]
	 Correlation Energy        =      -1.8347443550537146 [Eh]
	 Total Energy              =    -433.6255009079696379 [Eh]

	 ================> DF-SCS-MP2 Energies <==================
	-----------------------------------------------------------
	 SCS Same-Spin Scale       =       0.3333333333333333 [-]
	 SCS Opposite-Spin Scale   =       1.2000000000000000 [-]
	 SCS Same-Spin Energy      =      -0.1518547686034826 [Eh]
	 SCS Opposite-Spin Energy  =      -1.6550160590919198 [Eh]
	 SCS Correlation Energy    =      -1.8068708276954024 [Eh]
	 SCS Total Energy          =    -433.5976273806112999 [Eh]
	-----------------------------------------------------------

  Dipole Moment: [D]
     X:    -0.9929      Y:    -0.3928      Z:     0.0000     Total:     1.0677

*** Psi4 exiting successfully. Buy a developer a beer!
