                               Psi4 1.3.2 release

  ==> Input File <==

--------------------------------------------------------------------------
#psi4
#
memory 32 gb

molecule  {
0 1
  O        1.1701346     1.6123772    -0.0000038
  N       -1.4703060     0.9792780     0.0000030
  N        1.7567070    -0.6653920     0.0000000
  N       -1.0359320    -1.2074830     0.0000000
  C       -0.5082200     0.0183690     0.0000050
  C        0.9183560     0.3972400     0.0000000
  C       -2.6868100     0.3502900    -0.0000010
  C       -2.3919160    -1.0020460    -0.0000030
  C        3.1975750    -0.5187580     0.0000000
  H       -1.2617080     1.9724600     0.0000090
  H        1.3219030    -1.5822740     0.0000070
  H       -3.6212920     0.8920510    -0.0000010
  H       -3.0881120    -1.8301820    -0.0000070
  H        3.4134050     0.5495780    -0.0000070
  H        3.6371680    -0.9759340    -0.8910250
  H        3.6371640    -0.9759210     0.8910330
units angstrom
no_reorient  #important for SAPT in psi4, default
symmetry c1  #important for SAPT in psi4, default
}

set PROPERTIES_ORIGIN ["COM"]
properties('MP2/aug-cc-pvtz', properties = ['dipole'])
--------------------------------------------------------------------------

    Molecular point group: c1
  Charge       = 0
  Multiplicity = 1
  Basis Set: AUG-CC-PVTZ
    Blend: AUG-CC-PVTZ
  Basis Set: (AUG-CC-PVTZ AUX)
    Blend: AUG-CC-PVTZ-JKFIT

    Orbital Energies [Eh]
    ---------------------

    Doubly Occupied:

       1A    -20.529506     2A    -15.632123     3A    -15.597019
       4A    -15.567891     5A    -11.367676     6A    -11.306488
       7A    -11.277014     8A    -11.266441     9A    -11.258023
      10A     -1.387892    11A     -1.344586    12A     -1.245257
      13A     -1.177465    14A     -1.035654    15A     -0.963829
      16A     -0.857237    17A     -0.821947    18A     -0.796385
      19A     -0.774469    20A     -0.668155    21A     -0.652918
      22A     -0.639704    23A     -0.611039    24A     -0.607853
      25A     -0.594874    26A     -0.586173    27A     -0.554935
      28A     -0.537947    29A     -0.462005    30A     -0.442183
      31A     -0.416691    32A     -0.397910    33A     -0.326018

  @DF-RHF Final Energy:  -431.79550563638725

   => Energetics <=

    Nuclear Repulsion Energy =            432.9133679917054565
    One-Electron Energy =               -1446.0071325592639369
    Two-Electron Energy =                 581.2982589311712900
    Total Energy =                       -431.7955056363872473
  Basis Set: (AUG-CC-PVTZ AUX)
    Blend: AUG-CC-PVTZ-RI
    Molecular point group: c1

    Geometry (in Angstrom), charge = 0, multiplicity = 1:

       Center              X                  Y                   Z               Mass
    ------------   -----------------  -----------------  -----------------  -----------------
         O            1.213007077857     1.594366582892    -0.000003818383    15.994914619570
         N           -1.427433522143     0.961267382892     0.000002981617    14.003074004430
         N            1.799579477857    -0.683402617108    -0.000000018383    14.003074004430
         N           -0.993059522143    -1.225493617108    -0.000000018383    14.003074004430
         C           -0.465347522143     0.000358382892     0.000004981617    12.000000000000
         C            0.961228477857     0.379229382892    -0.000000018383    12.000000000000
         C           -2.643937522143     0.332279382892    -0.000001018383    12.000000000000
         C           -2.349043522143    -1.020056617108    -0.000003018383    12.000000000000
         C            3.240447477857    -0.536768617108    -0.000000018383    12.000000000000
         H           -1.218835522143     1.954449382892     0.000008981617     1.007825032230
         H            1.364775477857    -1.600284617108     0.000006981617     1.007825032230
         H           -3.578419522143     0.874040382892    -0.000001018383     1.007825032230
         H           -3.045239522143    -1.848192617108    -0.000007018383     1.007825032230
         H            3.456277477857     0.531567382892    -0.000007018383     1.007825032230
         H            3.680040477857    -0.993944617108    -0.891025018383     1.007825032230
         H            3.680036477857    -0.993931617108     0.891032981617     1.007825032230

  Basis Set: AUG-CC-PVTZ
    Blend: AUG-CC-PVTZ
  Basis Set: (AUG-CC-PVTZ AUX)
    Blend: AUG-CC-PVTZ-JKFIT
	 Reference Energy          =    -431.7955056363872473 [Eh]
	 Singles Energy            =      -0.0000000000000000 [Eh]
	 Same-Spin Energy          =      -0.4556435225536002 [Eh]
	 Opposite-Spin Energy      =      -1.3796009886065055 [Eh]
	 Correlation Energy        =      -1.8352445111601057 [Eh]
	 Total Energy              =    -433.6307501475473600 [Eh]

	 ================> DF-SCS-MP2 Energies <==================
	-----------------------------------------------------------
	 SCS Same-Spin Scale       =       0.3333333333333333 [-]
	 SCS Opposite-Spin Scale   =       1.2000000000000000 [-]
	 SCS Same-Spin Energy      =      -0.1518811741845334 [Eh]
	 SCS Opposite-Spin Energy  =      -1.6555211863278065 [Eh]
	 SCS Correlation Energy    =      -1.8074023605123399 [Eh]
	 SCS Total Energy          =    -433.6029079968996029 [Eh]
	-----------------------------------------------------------

  Dipole Moment: [D]
     X:    -0.6514      Y:    -0.4341      Z:     0.0000     Total:     0.7828

*** Psi4 exiting successfully. Buy a developer a beer!
