                               Psi4 1.3.2 release

  ==> Input File <==

--------------------------------------------------------------------------
#psi4
#
memory 32 gb

molecule  {
0 1
  O        1.2542850     1.5918540    -0.0000040
  N       -1.4703060     0.9792780     0.0000030
  N        1.7567070    -0.6653920     0.0000000
  N       -1.0359320    -1.2074830     0.0000000
  C       -0.5082200     0.0183690     0.0000050
  C        0.9183560     0.3972400     0.0000000
  C       -2.6868100     0.3502900    -0.0000010
  C       -2.2983002    -0.9781810    -0.0000029
  C        3.1975750    -0.5187580     0.0000000
  H       -1.2617080     1.9724600     0.0000090
  H        1.3219030    -1.5822740     0.0000070
  H       -3.6212920     0.8920510    -0.0000010
  H       -3.0881120    -1.8301820    -0.0000070
  H        3.4134050     0.5495780    -0.0000070
  H        3.6371680    -0.9759340    -0.8910250
  H        3.6371640    -0.9759210     0.8910330
units angstrom
no_reorient  #important for SAPT in psi4, default
symmetry c1  #important for SAPT in psi4, default
}

set PROPERTIES_ORIGIN ["COM"]
properties('MP2/aug-cc-pvtz', properties = ['dipole'])
--------------------------------------------------------------------------

    Molecular point group: c1
  Charge       = 0
  Multiplicity = 1
  Basis Set: AUG-CC-PVTZ
    Blend: AUG-CC-PVTZ
  Basis Set: (AUG-CC-PVTZ AUX)
    Blend: AUG-CC-PVTZ-JKFIT

    Orbital Energies [Eh]
    ---------------------

    Doubly Occupied:

       1A    -20.525772     2A    -15.640331     3A    -15.592210
       4A    -15.568000     5A    -11.365150     6A    -11.309015
       7A    -11.275378     8A    -11.262799     9A    -11.260951
      10A     -1.389751    11A     -1.360164    12A     -1.239978
      13A     -1.202231    14A     -1.037436    15A     -0.961227
      16A     -0.865926    17A     -0.818472    18A     -0.800572
      19A     -0.772804    20A     -0.670163    21A     -0.652830
      22A     -0.642307    23A     -0.620036    24A     -0.612663
      25A     -0.590380    26A     -0.574514    27A     -0.549844
      28A     -0.536946    29A     -0.464872    30A     -0.442116
      31A     -0.432294    32A     -0.396611    33A     -0.322488

  @DF-RHF Final Energy:  -431.78405859517329

   => Energetics <=

    Nuclear Repulsion Energy =            434.6839140155557857
    One-Electron Energy =               -1449.4234813251937339
    Two-Electron Energy =                 582.9555087144647132
    Total Energy =                       -431.7840585951732919
  Basis Set: (AUG-CC-PVTZ AUX)
    Blend: AUG-CC-PVTZ-RI
    Molecular point group: c1

    Geometry (in Angstrom), charge = 0, multiplicity = 1:

       Center              X                  Y                   Z               Mass
    ------------   -----------------  -----------------  -----------------  -----------------
         O            1.277411839369     1.574178319692    -0.000004002399    15.994914619570
         N           -1.447179160631     0.961602319692     0.000002997601    14.003074004430
         N            1.779833839369    -0.683067680308    -0.000000002399    14.003074004430
         N           -1.012805160631    -1.225158680308    -0.000000002399    14.003074004430
         C           -0.485093160631     0.000693319692     0.000004997601    12.000000000000
         C            0.941482839369     0.379564319692    -0.000000002399    12.000000000000
         C           -2.663683160631     0.332614319692    -0.000001002399    12.000000000000
         C           -2.275173360631    -0.995856680308    -0.000002902399    12.000000000000
         C            3.220701839369    -0.536433680308    -0.000000002399    12.000000000000
         H           -1.238581160631     1.954784319692     0.000008997601     1.007825032230
         H            1.345029839369    -1.599949680308     0.000006997601     1.007825032230
         H           -3.598165160631     0.874375319692    -0.000001002399     1.007825032230
         H           -3.064985160631    -1.847857680308    -0.000007002399     1.007825032230
         H            3.436531839369     0.531902319692    -0.000007002399     1.007825032230
         H            3.660294839369    -0.993609680308    -0.891025002399     1.007825032230
         H            3.660290839369    -0.993596680308     0.891032997601     1.007825032230

  Basis Set: AUG-CC-PVTZ
    Blend: AUG-CC-PVTZ
  Basis Set: (AUG-CC-PVTZ AUX)
    Blend: AUG-CC-PVTZ-JKFIT
	 Reference Energy          =    -431.7840585951732919 [Eh]
	 Singles Energy            =      -0.0000000000000000 [Eh]
	 Same-Spin Energy          =      -0.4566043313004653 [Eh]
	 Opposite-Spin Energy      =      -1.3795068062683506 [Eh]
	 Correlation Energy        =      -1.8361111375688159 [Eh]
	 Total Energy              =    -433.6201697327421130 [Eh]

	 ================> DF-SCS-MP2 Energies <==================
	-----------------------------------------------------------
	 SCS Same-Spin Scale       =       0.3333333333333333 [-]
	 SCS Opposite-Spin Scale   =       1.2000000000000000 [-]
	 SCS Same-Spin Energy      =      -0.1522014437668218 [Eh]
	 SCS Opposite-Spin Energy  =      -1.6554081675220207 [Eh]
	 SCS Correlation Energy    =      -1.8076096112888425 [Eh]
	 SCS Total Energy          =    -433.5916682064621455 [Eh]
	-----------------------------------------------------------

  Dipole Moment: [D]
     X:    -0.9460      Y:    -0.3703      Z:     0.0000     Total:     1.0158

*** Psi4 exiting successfully. Buy a developer a beer!
