                               Psi4 1.4a3.dev225

  ==> Input File <==

--------------------------------------------------------------------------
#psi4
#
memory 32 gb

molecule  {
0 1
  O        1.2542850     1.5918540    -0.0000040
  N       -1.4703060     0.9792780     0.0000030
  N        1.7567070    -0.6653920     0.0000000
  N       -1.0359320    -1.2074830     0.0000000
  C       -0.5223708     0.0325025     0.0000050
  C        0.9183560     0.3972400     0.0000000
  C       -2.6868100     0.3502900    -0.0000010
  C       -2.3919160    -1.0020460    -0.0000030
  C        3.1975750    -0.5187580     0.0000000
  H       -1.2617080     1.9724600     0.0000090
  H        1.3219030    -1.5822740     0.0000070
  H       -3.6212920     0.8920510    -0.0000010
  H       -3.0881120    -1.8301820    -0.0000070
  H        3.4134050     0.5495780    -0.0000070
  H        3.6371680    -0.9759340    -0.8910250
  H        3.6371640    -0.9759210     0.8910330
units angstrom
no_reorient  #important for SAPT in psi4, default
symmetry c1  #important for SAPT in psi4, default
}

set PROPERTIES_ORIGIN ["COM"]
properties('MP2/aug-cc-pvtz', properties = ['dipole'])
--------------------------------------------------------------------------

    Molecular point group: c1
  Charge       = 0
  Multiplicity = 1
  Basis Set: AUG-CC-PVTZ
    Blend: AUG-CC-PVTZ
  Basis Set: (AUG-CC-PVTZ AUX)
    Blend: AUG-CC-PVTZ-JKFIT

    Orbital Energies [Eh]
    ---------------------

    Doubly Occupied:

       1A    -20.527608     2A    -15.637104     3A    -15.592802
       4A    -15.569525     5A    -11.366965     6A    -11.310191
       7A    -11.277948     8A    -11.263162     9A    -11.260960
      10A     -1.387609    11A     -1.351319    12A     -1.239629
      13A     -1.180703    14A     -1.037693    15A     -0.961799
      16A     -0.857238    17A     -0.824912    18A     -0.801087
      19A     -0.773017    20A     -0.667618    21A     -0.650681
      22A     -0.639567    23A     -0.615256    24A     -0.609906
      25A     -0.596664    26A     -0.584508    27A     -0.550608
      28A     -0.536779    29A     -0.464287    30A     -0.441911
      31A     -0.417617    32A     -0.395364    33A     -0.328729

  @DF-RHF Final Energy:  -431.79697130172002

   => Energetics <=

    Nuclear Repulsion Energy =            432.6429631569533854
    One-Electron Energy =               -1445.4383344743882844
    Two-Electron Energy =                 580.9984000157148785
    Total Energy =                       -431.7969713017200775
  Basis Set: (AUG-CC-PVTZ AUX)
    Blend: AUG-CC-PVTZ-RI
    Molecular point group: c1

    Geometry (in Angstrom), charge = 0, multiplicity = 1:

       Center              X                  Y                   Z               Mass
    ------------   -----------------  -----------------  -----------------  -----------------
         O            1.287752559441     1.575112103604    -0.000003992803    15.994914619570
         N           -1.436838440559     0.962536103604     0.000003007197    14.003074004430
         N            1.790174559441    -0.682133896396     0.000000007197    14.003074004430
         N           -1.002464440559    -1.224224896396     0.000000007197    14.003074004430
         C           -0.488903240559     0.015760603604     0.000005007197    12.000000000000
         C            0.951823559441     0.380498103604     0.000000007197    12.000000000000
         C           -2.653342440559     0.333548103604    -0.000000992803    12.000000000000
         C           -2.358448440559    -1.018787896396    -0.000002992803    12.000000000000
         C            3.231042559441    -0.535499896396     0.000000007197    12.000000000000
         H           -1.228240440559     1.955718103604     0.000009007197     1.007825032230
         H            1.355370559441    -1.599015896396     0.000007007197     1.007825032230
         H           -3.587824440559     0.875309103604    -0.000000992803     1.007825032230
         H           -3.054644440559    -1.846923896396    -0.000006992803     1.007825032230
         H            3.446872559441     0.532836103604    -0.000006992803     1.007825032230
         H            3.670635559441    -0.992675896396    -0.891024992803     1.007825032230
         H            3.670631559441    -0.992662896396     0.891033007197     1.007825032230

  Basis Set: AUG-CC-PVTZ
    Blend: AUG-CC-PVTZ
  Basis Set: (AUG-CC-PVTZ AUX)
    Blend: AUG-CC-PVTZ-JKFIT
	 Reference Energy          =    -431.7969713017200206 [Eh]
	 Singles Energy            =      -0.0000000000000000 [Eh]
	 Same-Spin Energy          =      -0.4555551012411837 [Eh]
	 Opposite-Spin Energy      =      -1.3792946857616470 [Eh]
	 Correlation Energy        =      -1.8348497870028306 [Eh]
	 Total Energy              =    -433.6318210887228588 [Eh]

	 ================> DF-SCS-MP2 Energies <==================
	-----------------------------------------------------------
	 SCS Same-Spin Scale       =       0.3333333333333333 [-]
	 SCS Opposite-Spin Scale   =       1.2000000000000000 [-]
	 SCS Same-Spin Energy      =      -0.1518517004137279 [Eh]
	 SCS Opposite-Spin Energy  =      -1.6551536229139765 [Eh]
	 SCS Correlation Energy    =      -1.8070053233277044 [Eh]
	 SCS Total Energy          =    -433.6039766250477214 [Eh]
	-----------------------------------------------------------

  Dipole Moment: [D]
     X:    -0.9670      Y:    -0.3648      Z:     0.0000     Total:     1.0336

*** Psi4 exiting successfully. Buy a developer a beer!
