                               Psi4 1.3.2 release

  ==> Input File <==

--------------------------------------------------------------------------
#psi4
#
memory 32 gb

molecule  {
0 1
  O        1.2542850     1.5918540    -0.0000040
  N       -1.4703060     0.9792780     0.0000030
  N        1.7567070    -0.6653920     0.0000000
  N       -1.0359320    -1.2074830     0.0000000
  C       -0.5082200     0.0183690     0.0000050
  C        0.9183560     0.3972400     0.0000000
  C       -2.6399707     0.2669632    -0.0000015
  C       -2.3919160    -1.0020460    -0.0000030
  C        3.1975750    -0.5187580     0.0000000
  H       -1.2617080     1.9724600     0.0000090
  H        1.3219030    -1.5822740     0.0000070
  H       -3.6212920     0.8920510    -0.0000010
  H       -3.0881120    -1.8301820    -0.0000070
  H        3.4134050     0.5495780    -0.0000070
  H        3.6371680    -0.9759340    -0.8910250
  H        3.6371640    -0.9759210     0.8910330
units angstrom
no_reorient  #important for SAPT in psi4, default
symmetry c1  #important for SAPT in psi4, default
}

set PROPERTIES_ORIGIN ["COM"]
properties('MP2/aug-cc-pvtz', properties = ['dipole'])
--------------------------------------------------------------------------

    Molecular point group: c1
  Charge       = 0
  Multiplicity = 1
  Basis Set: AUG-CC-PVTZ
    Blend: AUG-CC-PVTZ
  Basis Set: (AUG-CC-PVTZ AUX)
    Blend: AUG-CC-PVTZ-JKFIT

    Orbital Energies [Eh]
    ---------------------

    Doubly Occupied:

       1A    -20.529004     2A    -15.629656     3A    -15.592859
       4A    -15.567235     5A    -11.366747     6A    -11.311470
       7A    -11.274325     8A    -11.263166     9A    -11.247448
      10A     -1.388529    11A     -1.353161    12A     -1.240132
      13A     -1.178429    14A     -1.048018    15A     -0.964670
      16A     -0.863140    17A     -0.825256    18A     -0.791718
      19A     -0.768491    20A     -0.669124    21A     -0.647201
      22A     -0.640457    23A     -0.627877    24A     -0.611033
      25A     -0.587641    26A     -0.572151    27A     -0.550597
      28A     -0.538327    29A     -0.462585    30A     -0.442739
      31A     -0.416454    32A     -0.395719    33A     -0.342530

  @DF-RHF Final Energy:  -431.78568123150035

   => Energetics <=

    Nuclear Repulsion Energy =            434.2359286519796342
    One-Electron Energy =               -1448.6274382465878716
    Two-Electron Energy =                 582.6058283631078893
    Total Energy =                       -431.7856812315003481
  Basis Set: (AUG-CC-PVTZ AUX)
    Blend: AUG-CC-PVTZ-RI
    Molecular point group: c1

    Geometry (in Angstrom), charge = 0, multiplicity = 1:

       Center              X                  Y                   Z               Mass
    ------------   -----------------  -----------------  -----------------  -----------------
         O            1.281900267996     1.584463884958    -0.000003944826    15.994914619570
         N           -1.442690732004     0.971887884958     0.000003055174    14.003074004430
         N            1.784322267996    -0.672782115042     0.000000055174    14.003074004430
         N           -1.008316732004    -1.214873115042     0.000000055174    14.003074004430
         C           -0.480604732004     0.010978884958     0.000005055174    12.000000000000
         C            0.945971267996     0.389849884958     0.000000055174    12.000000000000
         C           -2.612355432004     0.259573084958    -0.000001444826    12.000000000000
         C           -2.364300732004    -1.009436115042    -0.000002944826    12.000000000000
         C            3.225190267996    -0.526148115042     0.000000055174    12.000000000000
         H           -1.234092732004     1.965069884958     0.000009055174     1.007825032230
         H            1.349518267996    -1.589664115042     0.000007055174     1.007825032230
         H           -3.593676732004     0.884660884958    -0.000000944826     1.007825032230
         H           -3.060496732004    -1.837572115042    -0.000006944826     1.007825032230
         H            3.441020267996     0.542187884958    -0.000006944826     1.007825032230
         H            3.664783267996    -0.983324115042    -0.891024944826     1.007825032230
         H            3.664779267996    -0.983311115042     0.891033055174     1.007825032230

  Basis Set: AUG-CC-PVTZ
    Blend: AUG-CC-PVTZ
  Basis Set: (AUG-CC-PVTZ AUX)
    Blend: AUG-CC-PVTZ-JKFIT
	 Reference Energy          =    -431.7856812315003481 [Eh]
	 Singles Energy            =      -0.0000000000000000 [Eh]
	 Same-Spin Energy          =      -0.4547874499184248 [Eh]
	 Opposite-Spin Energy      =      -1.3782756751767846 [Eh]
	 Correlation Energy        =      -1.8330631250952094 [Eh]
	 Total Energy              =    -433.6187443565955846 [Eh]

	 ================> DF-SCS-MP2 Energies <==================
	-----------------------------------------------------------
	 SCS Same-Spin Scale       =       0.3333333333333333 [-]
	 SCS Opposite-Spin Scale   =       1.2000000000000000 [-]
	 SCS Same-Spin Energy      =      -0.1515958166394749 [Eh]
	 SCS Opposite-Spin Energy  =      -1.6539308102121415 [Eh]
	 SCS Correlation Energy    =      -1.8055266268516164 [Eh]
	 SCS Total Energy          =    -433.5912078583519360 [Eh]
	-----------------------------------------------------------

  Dipole Moment: [D]
     X:    -0.9264      Y:    -0.4551      Z:     0.0000     Total:     1.0321

*** Psi4 exiting successfully. Buy a developer a beer!
