                               Psi4 1.3.2 release

  ==> Input File <==

--------------------------------------------------------------------------
#psi4
#
memory 32 gb

molecule  {
0 1
  O        1.2542850     1.5918540    -0.0000040
  N       -1.4703060     0.9792780     0.0000030
  N        1.8631897    -0.5719392    -0.0000005
  N       -1.0359320    -1.2074830     0.0000000
  C       -0.5082200     0.0183690     0.0000050
  C        0.9183560     0.3972400     0.0000000
  C       -2.6868100     0.3502900    -0.0000010
  C       -2.3919160    -1.0020460    -0.0000030
  C        3.1975750    -0.5187580     0.0000000
  H       -1.2617080     1.9724600     0.0000090
  H        1.3219030    -1.5822740     0.0000070
  H       -3.6212920     0.8920510    -0.0000010
  H       -3.0881120    -1.8301820    -0.0000070
  H        3.4134050     0.5495780    -0.0000070
  H        3.6371680    -0.9759340    -0.8910250
  H        3.6371640    -0.9759210     0.8910330
units angstrom
no_reorient  #important for SAPT in psi4, default
symmetry c1  #important for SAPT in psi4, default
}

set PROPERTIES_ORIGIN ["COM"]
properties('MP2/aug-cc-pvtz', properties = ['dipole'])
--------------------------------------------------------------------------

    Molecular point group: c1
  Charge       = 0
  Multiplicity = 1
  Basis Set: AUG-CC-PVTZ
    Blend: AUG-CC-PVTZ
  Basis Set: (AUG-CC-PVTZ AUX)
    Blend: AUG-CC-PVTZ-JKFIT

    Orbital Energies [Eh]
    ---------------------

    Doubly Occupied:

       1A    -20.522318     2A    -15.640164     3A    -15.596455
       4A    -15.575885     5A    -11.367454     6A    -11.317440
       7A    -11.283937     8A    -11.264115     9A    -11.252775
      10A     -1.389220    11A     -1.352048    12A     -1.248448
      13A     -1.185262    14A     -1.045447    15A     -0.971619
      16A     -0.857532    17A     -0.828094    18A     -0.796023
      19A     -0.753040    20A     -0.677958    21A     -0.658875
      22A     -0.648406    23A     -0.617232    24A     -0.615920
      25A     -0.608863    26A     -0.589774    27A     -0.533167
      28A     -0.520652    29A     -0.467537    30A     -0.440478
      31A     -0.420268    32A     -0.384412    33A     -0.332731

  @DF-RHF Final Energy:  -431.76618770521117

   => Energetics <=

    Nuclear Repulsion Energy =            433.0564757505621856
    One-Electron Energy =               -1446.1182284386691208
    Two-Electron Energy =                 581.2955649828957121
    Total Energy =                       -431.7661877052112231
  Basis Set: (AUG-CC-PVTZ AUX)
    Blend: AUG-CC-PVTZ-RI
    Molecular point group: c1

    Geometry (in Angstrom), charge = 0, multiplicity = 1:

       Center              X                  Y                   Z               Mass
    ------------   -----------------  -----------------  -----------------  -----------------
         O            1.274471660834     1.566004200318    -0.000003936817    15.994914619570
         N           -1.450119339166     0.953428200318     0.000003063183    14.003074004430
         N            1.883376360834    -0.597788999682    -0.000000436817    14.003074004430
         N           -1.015745339166    -1.233332799682     0.000000063183    14.003074004430
         C           -0.488033339166    -0.007480799682     0.000005063183    12.000000000000
         C            0.938542660834     0.371390200318     0.000000063183    12.000000000000
         C           -2.666623339166     0.324440200318    -0.000000936817    12.000000000000
         C           -2.371729339166    -1.027895799682    -0.000002936817    12.000000000000
         C            3.217761660834    -0.544607799682     0.000000063183    12.000000000000
         H           -1.241521339166     1.946610200318     0.000009063183     1.007825032230
         H            1.342089660834    -1.608123799682     0.000007063183     1.007825032230
         H           -3.601105339166     0.866201200318    -0.000000936817     1.007825032230
         H           -3.067925339166    -1.856031799682    -0.000006936817     1.007825032230
         H            3.433591660834     0.523728200318    -0.000006936817     1.007825032230
         H            3.657354660834    -1.001783799682    -0.891024936817     1.007825032230
         H            3.657350660834    -1.001770799682     0.891033063183     1.007825032230

  Basis Set: AUG-CC-PVTZ
    Blend: AUG-CC-PVTZ
  Basis Set: (AUG-CC-PVTZ AUX)
    Blend: AUG-CC-PVTZ-JKFIT
	 Reference Energy          =    -431.7661877052111663 [Eh]
	 Singles Energy            =      -0.0000000000000000 [Eh]
	 Same-Spin Energy          =      -0.4577233852657538 [Eh]
	 Opposite-Spin Energy      =      -1.3826873853320834 [Eh]
	 Correlation Energy        =      -1.8404107705978372 [Eh]
	 Total Energy              =    -433.6065984758089940 [Eh]

	 ================> DF-SCS-MP2 Energies <==================
	-----------------------------------------------------------
	 SCS Same-Spin Scale       =       0.3333333333333333 [-]
	 SCS Opposite-Spin Scale   =       1.2000000000000000 [-]
	 SCS Same-Spin Energy      =      -0.1525744617552512 [Eh]
	 SCS Opposite-Spin Energy  =      -1.6592248623985000 [Eh]
	 SCS Correlation Energy    =      -1.8117993241537511 [Eh]
	 SCS Total Energy          =    -433.5779870293649196 [Eh]
	-----------------------------------------------------------

  Dipole Moment: [D]
     X:    -1.3842      Y:    -0.4767      Z:     0.0000     Total:     1.4640

*** Psi4 exiting successfully. Buy a developer a beer!
