                               Psi4 1.3.2 release

  ==> Input File <==

--------------------------------------------------------------------------
#psi4
#
memory 32 gb

molecule  {
0 1
  O        1.2542850     1.5918540    -0.0000040
  N       -1.4703060     0.9792780     0.0000030
  N        1.7567070    -0.6653920     0.0000000
  N       -1.0359320    -1.2074830     0.0000000
  C       -0.5513231     0.0360391     0.0000049
  C        0.9183560     0.3972400     0.0000000
  C       -2.6868100     0.3502900    -0.0000010
  C       -2.3919160    -1.0020460    -0.0000030
  C        3.1975750    -0.5187580     0.0000000
  H       -1.2617080     1.9724600     0.0000090
  H        1.3219030    -1.5822740     0.0000070
  H       -3.6212920     0.8920510    -0.0000010
  H       -3.0881120    -1.8301820    -0.0000070
  H        3.4134050     0.5495780    -0.0000070
  H        3.6371680    -0.9759340    -0.8910250
  H        3.6371640    -0.9759210     0.8910330
units angstrom
no_reorient  #important for SAPT in psi4, default
symmetry c1  #important for SAPT in psi4, default
}

set PROPERTIES_ORIGIN ["COM"]
properties('MP2/aug-cc-pvtz', properties = ['dipole'])
--------------------------------------------------------------------------

    Molecular point group: c1
  Charge       = 0
  Multiplicity = 1
  Basis Set: AUG-CC-PVTZ
    Blend: AUG-CC-PVTZ
  Basis Set: (AUG-CC-PVTZ AUX)
    Blend: AUG-CC-PVTZ-JKFIT

    Orbital Energies [Eh]
    ---------------------

    Doubly Occupied:

       1A    -20.527931     2A    -15.636977     3A    -15.593165
       4A    -15.566793     5A    -11.368049     6A    -11.309775
       7A    -11.275499     8A    -11.263375     9A    -11.260722
      10A     -1.388806    11A     -1.356985    12A     -1.239318
      13A     -1.184830    14A     -1.035176    15A     -0.961217
      16A     -0.853881    17A     -0.825569    18A     -0.805344
      19A     -0.772862    20A     -0.665626    21A     -0.650006
      22A     -0.640693    23A     -0.617863    24A     -0.612665
      25A     -0.596516    26A     -0.580701    27A     -0.550718
      28A     -0.536786    29A     -0.466517    30A     -0.439822
      31A     -0.418712    32A     -0.395549    33A     -0.329200

  @DF-RHF Final Energy:  -431.79638565048856

   => Energetics <=

    Nuclear Repulsion Energy =            432.7705029380568362
    One-Electron Energy =               -1445.6784739758484193
    Two-Electron Energy =                 581.1115853873030801
    Total Energy =                       -431.7963856504885598
  Basis Set: (AUG-CC-PVTZ AUX)
    Blend: AUG-CC-PVTZ-RI
    Molecular point group: c1

    Geometry (in Angstrom), charge = 0, multiplicity = 1:

       Center              X                  Y                   Z               Mass
    ------------   -----------------  -----------------  -----------------  -----------------
         O            1.290530670931     1.574772749940    -0.000003983208    15.994914619570
         N           -1.434060329069     0.962196749940     0.000003016792    14.003074004430
         N            1.792952670931    -0.682473250060     0.000000016792    14.003074004430
         N           -0.999686329069    -1.224564250060     0.000000016792    14.003074004430
         C           -0.515077429069     0.018957849940     0.000004916792    12.000000000000
         C            0.954601670931     0.380158749940     0.000000016792    12.000000000000
         C           -2.650564329069     0.333208749940    -0.000000983208    12.000000000000
         C           -2.355670329069    -1.019127250060    -0.000002983208    12.000000000000
         C            3.233820670931    -0.535839250060     0.000000016792    12.000000000000
         H           -1.225462329069     1.955378749940     0.000009016792     1.007825032230
         H            1.358148670931    -1.599355250060     0.000007016792     1.007825032230
         H           -3.585046329069     0.874969749940    -0.000000983208     1.007825032230
         H           -3.051866329069    -1.847263250060    -0.000006983208     1.007825032230
         H            3.449650670931     0.532496749940    -0.000006983208     1.007825032230
         H            3.673413670931    -0.993015250060    -0.891024983208     1.007825032230
         H            3.673409670931    -0.993002250060     0.891033016792     1.007825032230

  Basis Set: AUG-CC-PVTZ
    Blend: AUG-CC-PVTZ
  Basis Set: (AUG-CC-PVTZ AUX)
    Blend: AUG-CC-PVTZ-JKFIT
	 Reference Energy          =    -431.7963856504885598 [Eh]
	 Singles Energy            =      -0.0000000000000000 [Eh]
	 Same-Spin Energy          =      -0.4549356116527322 [Eh]
	 Opposite-Spin Energy      =      -1.3782310615286573 [Eh]
	 Correlation Energy        =      -1.8331666731813896 [Eh]
	 Total Energy              =    -433.6295523236699410 [Eh]

	 ================> DF-SCS-MP2 Energies <==================
	-----------------------------------------------------------
	 SCS Same-Spin Scale       =       0.3333333333333333 [-]
	 SCS Opposite-Spin Scale   =       1.2000000000000000 [-]
	 SCS Same-Spin Energy      =      -0.1516452038842441 [Eh]
	 SCS Opposite-Spin Energy  =      -1.6538772738343888 [Eh]
	 SCS Correlation Energy    =      -1.8055224777186329 [Eh]
	 SCS Total Energy          =    -433.6019081282071852 [Eh]
	-----------------------------------------------------------

  Dipole Moment: [D]
     X:    -0.9100      Y:    -0.3328      Z:     0.0000     Total:     0.9690

*** Psi4 exiting successfully. Buy a developer a beer!
