                               Psi4 1.3.2 release

  ==> Input File <==

--------------------------------------------------------------------------
#psi4
#
memory 32 gb

molecule  {
0 1
  O        1.2542850     1.5918540    -0.0000040
  N       -1.4703060     0.9792780     0.0000030
  N        1.7567070    -0.6653920     0.0000000
  N       -1.0359320    -1.2074830     0.0000000
  C       -0.4869063     0.0089725     0.0000050
  C        0.9183560     0.3972400     0.0000000
  C       -2.6868100     0.3502900    -0.0000010
  C       -2.3919160    -1.0020460    -0.0000030
  C        3.1975750    -0.5187580     0.0000000
  H       -1.2617080     1.9724600     0.0000090
  H        1.3219030    -1.5822740     0.0000070
  H       -3.6212920     0.8920510    -0.0000010
  H       -3.0881120    -1.8301820    -0.0000070
  H        3.4134050     0.5495780    -0.0000070
  H        3.6371680    -0.9759340    -0.8910250
  H        3.6371640    -0.9759210     0.8910330
units angstrom
no_reorient  #important for SAPT in psi4, default
symmetry c1  #important for SAPT in psi4, default
}

set PROPERTIES_ORIGIN ["COM"]
properties('MP2/aug-cc-pvtz', properties = ['dipole'])
--------------------------------------------------------------------------

    Molecular point group: c1
  Charge       = 0
  Multiplicity = 1
  Basis Set: AUG-CC-PVTZ
    Blend: AUG-CC-PVTZ
  Basis Set: (AUG-CC-PVTZ AUX)
    Blend: AUG-CC-PVTZ-JKFIT

    Orbital Energies [Eh]
    ---------------------

    Doubly Occupied:

       1A    -20.527502     2A    -15.634851     3A    -15.592166
       4A    -15.573171     5A    -11.365559     6A    -11.310793
       7A    -11.281872     8A    -11.262723     9A    -11.260783
      10A     -1.386378    11A     -1.343429    12A     -1.240213
      13A     -1.178212    14A     -1.040328    15A     -0.962527
      16A     -0.861510    17A     -0.824643    18A     -0.793355
      19A     -0.772390    20A     -0.670381    21A     -0.651495
      22A     -0.638376    23A     -0.612058    24A     -0.605869
      25A     -0.596174    26A     -0.588550    27A     -0.550400
      28A     -0.536534    29A     -0.463400    30A     -0.443392
      31A     -0.417957    32A     -0.395203    33A     -0.328445

  @DF-RHF Final Energy:  -431.79478238892756

   => Energetics <=

    Nuclear Repulsion Energy =            432.5138952463696569
    One-Electron Energy =               -1445.1960783526803880
    Two-Electron Energy =                 580.8874007173832297
    Total Energy =                       -431.7947823889275014
  Basis Set: (AUG-CC-PVTZ AUX)
    Blend: AUG-CC-PVTZ-RI
    Molecular point group: c1

    Geometry (in Angstrom), charge = 0, multiplicity = 1:

       Center              X                  Y                   Z               Mass
    ------------   -----------------  -----------------  -----------------  -----------------
         O            1.284349571252     1.577369919507    -0.000003992803    15.994914619570
         N           -1.440241428748     0.964793919507     0.000003007197    14.003074004430
         N            1.786771571252    -0.679876080493     0.000000007197    14.003074004430
         N           -1.005867428748    -1.221967080493     0.000000007197    14.003074004430
         C           -0.456841728748    -0.005511580493     0.000005007197    12.000000000000
         C            0.948420571252     0.382755919507     0.000000007197    12.000000000000
         C           -2.656745428748     0.335805919507    -0.000000992803    12.000000000000
         C           -2.361851428748    -1.016530080493    -0.000002992803    12.000000000000
         C            3.227639571252    -0.533242080493     0.000000007197    12.000000000000
         H           -1.231643428748     1.957975919507     0.000009007197     1.007825032230
         H            1.351967571252    -1.596758080493     0.000007007197     1.007825032230
         H           -3.591227428748     0.877566919507    -0.000000992803     1.007825032230
         H           -3.058047428748    -1.844666080493    -0.000006992803     1.007825032230
         H            3.443469571252     0.535093919507    -0.000006992803     1.007825032230
         H            3.667232571252    -0.990418080493    -0.891024992803     1.007825032230
         H            3.667228571252    -0.990405080493     0.891033007197     1.007825032230

  Basis Set: AUG-CC-PVTZ
    Blend: AUG-CC-PVTZ
  Basis Set: (AUG-CC-PVTZ AUX)
    Blend: AUG-CC-PVTZ-JKFIT
	 Reference Energy          =    -431.7947823889275583 [Eh]
	 Singles Energy            =      -0.0000000000000000 [Eh]
	 Same-Spin Energy          =      -0.4561642042871915 [Eh]
	 Opposite-Spin Energy      =      -1.3804340814815235 [Eh]
	 Correlation Energy        =      -1.8365982857687149 [Eh]
	 Total Energy              =    -433.6313806746962882 [Eh]

	 ================> DF-SCS-MP2 Energies <==================
	-----------------------------------------------------------
	 SCS Same-Spin Scale       =       0.3333333333333333 [-]
	 SCS Opposite-Spin Scale   =       1.2000000000000000 [-]
	 SCS Same-Spin Energy      =      -0.1520547347623971 [Eh]
	 SCS Opposite-Spin Energy  =      -1.6565208977778281 [Eh]
	 SCS Correlation Energy    =      -1.8085756325402251 [Eh]
	 SCS Total Energy          =    -433.6033580214677841 [Eh]
	-----------------------------------------------------------

  Dipole Moment: [D]
     X:    -1.0092      Y:    -0.4326      Z:     0.0000     Total:     1.0980

*** Psi4 exiting successfully. Buy a developer a beer!
