                               Psi4 1.3.2 release

  ==> Input File <==

--------------------------------------------------------------------------
#psi4
#
memory 32 gb

molecule  {
0 1
  O        1.2542850     1.5918540    -0.0000040
  N       -1.4703060     0.9792780     0.0000030
  N        1.7567070    -0.6653920     0.0000000
  N       -1.0359320    -1.2074830     0.0000000
  C       -0.5789739     0.0890364     0.0000049
  C        0.9183560     0.3972400     0.0000000
  C       -2.6868100     0.3502900    -0.0000010
  C       -2.3919160    -1.0020460    -0.0000030
  C        3.1975750    -0.5187580     0.0000000
  H       -1.2617080     1.9724600     0.0000090
  H        1.3219030    -1.5822740     0.0000070
  H       -3.6212920     0.8920510    -0.0000010
  H       -3.0881120    -1.8301820    -0.0000070
  H        3.4134050     0.5495780    -0.0000070
  H        3.6371680    -0.9759340    -0.8910250
  H        3.6371640    -0.9759210     0.8910330
units angstrom
no_reorient  #important for SAPT in psi4, default
symmetry c1  #important for SAPT in psi4, default
}

set PROPERTIES_ORIGIN ["COM"]
properties('MP2/aug-cc-pvtz', properties = ['dipole'])
--------------------------------------------------------------------------

    Molecular point group: c1
  Charge       = 0
  Multiplicity = 1
  Basis Set: AUG-CC-PVTZ
    Blend: AUG-CC-PVTZ
  Basis Set: (AUG-CC-PVTZ AUX)
    Blend: AUG-CC-PVTZ-JKFIT

    Orbital Energies [Eh]
    ---------------------

    Doubly Occupied:

       1A    -20.527454     2A    -15.642205     3A    -15.594021
       4A    -15.563559     5A    -11.369127     6A    -11.309448
       7A    -11.270531     8A    -11.264016     9A    -11.262166
      10A     -1.394974    11A     -1.365072    12A     -1.238814
      13A     -1.182044    14A     -1.034772    15A     -0.961188
      16A     -0.854249    17A     -0.825781    18A     -0.814624
      19A     -0.773249    20A     -0.663469    21A     -0.649563
      22A     -0.645144    23A     -0.620824    24A     -0.616880
      25A     -0.597141    26A     -0.574328    27A     -0.550988
      28A     -0.537248    29A     -0.462564    30A     -0.438690
      31A     -0.417146    32A     -0.395771    33A     -0.327208

  @DF-RHF Final Energy:  -431.78525653716054

   => Energetics <=

    Nuclear Repulsion Energy =            432.9193827946901934
    One-Electron Energy =               -1445.9207629156351231
    Two-Electron Energy =                 581.2161235837844515
    Total Energy =                       -431.7852565371605351
  Basis Set: (AUG-CC-PVTZ AUX)
    Blend: AUG-CC-PVTZ-RI
    Molecular point group: c1

    Geometry (in Angstrom), charge = 0, multiplicity = 1:

       Center              X                  Y                   Z               Mass
    ------------   -----------------  -----------------  -----------------  -----------------
         O            1.293183897279     1.569687405837    -0.000003983208    15.994914619570
         N           -1.431407102721     0.957111405837     0.000003016792    14.003074004430
         N            1.795605897279    -0.687558594163     0.000000016792    14.003074004430
         N           -0.997033102721    -1.229649594163     0.000000016792    14.003074004430
         C           -0.540075002721     0.066869805837     0.000004916792    12.000000000000
         C            0.957254897279     0.375073405837     0.000000016792    12.000000000000
         C           -2.647911102721     0.328123405837    -0.000000983208    12.000000000000
         C           -2.353017102721    -1.024212594163    -0.000002983208    12.000000000000
         C            3.236473897279    -0.540924594163     0.000000016792    12.000000000000
         H           -1.222809102721     1.950293405837     0.000009016792     1.007825032230
         H            1.360801897279    -1.604440594163     0.000007016792     1.007825032230
         H           -3.582393102721     0.869884405837    -0.000000983208     1.007825032230
         H           -3.049213102721    -1.852348594163    -0.000006983208     1.007825032230
         H            3.452303897279     0.527411405837    -0.000006983208     1.007825032230
         H            3.676066897279    -0.998100594163    -0.891024983208     1.007825032230
         H            3.676062897279    -0.998087594163     0.891033016792     1.007825032230

  Basis Set: AUG-CC-PVTZ
    Blend: AUG-CC-PVTZ
  Basis Set: (AUG-CC-PVTZ AUX)
    Blend: AUG-CC-PVTZ-JKFIT
	 Reference Energy          =    -431.7852565371605351 [Eh]
	 Singles Energy            =      -0.0000000000000000 [Eh]
	 Same-Spin Energy          =      -0.4550281618696673 [Eh]
	 Opposite-Spin Energy      =      -1.3782824748632798 [Eh]
	 Correlation Energy        =      -1.8333106367329473 [Eh]
	 Total Energy              =    -433.6185671738934957 [Eh]

	 ================> DF-SCS-MP2 Energies <==================
	-----------------------------------------------------------
	 SCS Same-Spin Scale       =       0.3333333333333333 [-]
	 SCS Opposite-Spin Scale   =       1.2000000000000000 [-]
	 SCS Same-Spin Energy      =      -0.1516760539565558 [Eh]
	 SCS Opposite-Spin Energy  =      -1.6539389698359357 [Eh]
	 SCS Correlation Energy    =      -1.8056150237924915 [Eh]
	 SCS Total Energy          =    -433.5908715609530191 [Eh]
	-----------------------------------------------------------

  Dipole Moment: [D]
     X:    -0.8947      Y:    -0.2275      Z:     0.0000     Total:     0.9231

*** Psi4 exiting successfully. Buy a developer a beer!
