                               Psi4 1.3.2 release

  ==> Input File <==

--------------------------------------------------------------------------
#psi4
#
memory 32 gb

molecule  {
0 1
  O        1.2542850     1.5918540    -0.0000040
  N       -1.4703060     0.9792780     0.0000030
  N        1.7567070    -0.6653920     0.0000000
  N       -1.0359320    -1.2074830     0.0000000
  C       -0.4291391     0.2020704     0.0000057
  C        0.9183560     0.3972400     0.0000000
  C       -2.6868100     0.3502900    -0.0000010
  C       -2.3919160    -1.0020460    -0.0000030
  C        3.1975750    -0.5187580     0.0000000
  H       -1.2617080     1.9724600     0.0000090
  H        1.3219030    -1.5822740     0.0000070
  H       -3.6212920     0.8920510    -0.0000010
  H       -3.0881120    -1.8301820    -0.0000070
  H        3.4134050     0.5495780    -0.0000070
  H        3.6371680    -0.9759340    -0.8910250
  H        3.6371640    -0.9759210     0.8910330
units angstrom
no_reorient  #important for SAPT in psi4, default
symmetry c1  #important for SAPT in psi4, default
}

set PROPERTIES_ORIGIN ["COM"]
properties('MP2/aug-cc-pvtz', properties = ['dipole'])
--------------------------------------------------------------------------

    Molecular point group: c1
  Charge       = 0
  Multiplicity = 1
  Basis Set: AUG-CC-PVTZ
    Blend: AUG-CC-PVTZ
  Basis Set: (AUG-CC-PVTZ AUX)
    Blend: AUG-CC-PVTZ-JKFIT

    Orbital Energies [Eh]
    ---------------------

    Doubly Occupied:

       1A    -20.521189     2A    -15.658586     3A    -15.591026
       4A    -15.575043     5A    -11.357656     6A    -11.310967
       7A    -11.281142     8A    -11.269109     9A    -11.262500
      10A     -1.393447    11A     -1.347839    12A     -1.237390
      13A     -1.153781    14A     -1.052819    15A     -0.965098
      16A     -0.880423    17A     -0.821277    18A     -0.807860
      19A     -0.773834    20A     -0.676870    21A     -0.652196
      22A     -0.643874    23A     -0.615067    24A     -0.608559
      25A     -0.604516    26A     -0.567172    27A     -0.549342
      28A     -0.537731    29A     -0.450857    30A     -0.431119
      31A     -0.409534    32A     -0.393967    33A     -0.318324

  @DF-RHF Final Energy:  -431.73937578869635

   => Energetics <=

    Nuclear Repulsion Energy =            432.4673240925047821
    One-Electron Energy =               -1444.9731717530260084
    Two-Electron Energy =                 580.7664718718249333
    Total Energy =                       -431.7393757886962931
  Basis Set: (AUG-CC-PVTZ AUX)
    Blend: AUG-CC-PVTZ-RI
    Molecular point group: c1

    Geometry (in Angstrom), charge = 0, multiplicity = 1:

       Center              X                  Y                   Z               Mass
    ------------   -----------------  -----------------  -----------------  -----------------
         O            1.278806532458     1.558841253573    -0.000004059972    15.994914619570
         N           -1.445784467542     0.946265253573     0.000002940028    14.003074004430
         N            1.781228532458    -0.698404746427    -0.000000059972    14.003074004430
         N           -1.011410467542    -1.240495746427    -0.000000059972    14.003074004430
         C           -0.404617567542     0.169057653573     0.000005640028    12.000000000000
         C            0.942877532458     0.364227253573    -0.000000059972    12.000000000000
         C           -2.662288467542     0.317277253573    -0.000001059972    12.000000000000
         C           -2.367394467542    -1.035058746427    -0.000003059972    12.000000000000
         C            3.222096532458    -0.551770746427    -0.000000059972    12.000000000000
         H           -1.237186467542     1.939447253573     0.000008940028     1.007825032230
         H            1.346424532458    -1.615286746427     0.000006940028     1.007825032230
         H           -3.596770467542     0.859038253573    -0.000001059972     1.007825032230
         H           -3.063590467542    -1.863194746427    -0.000007059972     1.007825032230
         H            3.437926532458     0.516565253573    -0.000007059972     1.007825032230
         H            3.661689532458    -1.008946746427    -0.891025059972     1.007825032230
         H            3.661685532458    -1.008933746427     0.891032940028     1.007825032230

  Basis Set: AUG-CC-PVTZ
    Blend: AUG-CC-PVTZ
  Basis Set: (AUG-CC-PVTZ AUX)
    Blend: AUG-CC-PVTZ-JKFIT
	 Reference Energy          =    -431.7393757886963499 [Eh]
	 Singles Energy            =      -0.0000000000000000 [Eh]
	 Same-Spin Energy          =      -0.4615462802210579 [Eh]
	 Opposite-Spin Energy      =      -1.3899342777016672 [Eh]
	 Correlation Energy        =      -1.8514805579227251 [Eh]
	 Total Energy              =    -433.5908563466190913 [Eh]

	 ================> DF-SCS-MP2 Energies <==================
	-----------------------------------------------------------
	 SCS Same-Spin Scale       =       0.3333333333333333 [-]
	 SCS Opposite-Spin Scale   =       1.2000000000000000 [-]
	 SCS Same-Spin Energy      =      -0.1538487600736859 [Eh]
	 SCS Opposite-Spin Energy  =      -1.6679211332420005 [Eh]
	 SCS Correlation Energy    =      -1.8217698933156865 [Eh]
	 SCS Total Energy          =    -433.5611456820120111 [Eh]
	-----------------------------------------------------------

  Dipole Moment: [D]
     X:    -1.4173      Y:    -0.2817      Z:     0.0000     Total:     1.4450

*** Psi4 exiting successfully. Buy a developer a beer!
