                               Psi4 1.3.2 release

  ==> Input File <==

--------------------------------------------------------------------------
#psi4
#
memory 32 gb

molecule  {
0 1
  O        1.2542850     1.5918540    -0.0000040
  N       -1.4703060     0.9792780     0.0000030
  N        1.7567070    -0.6653920     0.0000000
  N       -1.0359320    -1.2074830     0.0000000
  C       -0.4915964     0.0353061     0.0000051
  C        0.9183560     0.3972400     0.0000000
  C       -2.6868100     0.3502900    -0.0000010
  C       -2.3919160    -1.0020460    -0.0000030
  C        3.1975750    -0.5187580     0.0000000
  H       -1.2617080     1.9724600     0.0000090
  H        1.3219030    -1.5822740     0.0000070
  H       -3.6212920     0.8920510    -0.0000010
  H       -3.0881120    -1.8301820    -0.0000070
  H        3.4134050     0.5495780    -0.0000070
  H        3.6371680    -0.9759340    -0.8910250
  H        3.6371640    -0.9759210     0.8910330
units angstrom
no_reorient  #important for SAPT in psi4, default
symmetry c1  #important for SAPT in psi4, default
}

set PROPERTIES_ORIGIN ["COM"]
properties('MP2/aug-cc-pvtz', properties = ['dipole'])
--------------------------------------------------------------------------

    Molecular point group: c1
  Charge       = 0
  Multiplicity = 1
  Basis Set: AUG-CC-PVTZ
    Blend: AUG-CC-PVTZ
  Basis Set: (AUG-CC-PVTZ AUX)
    Blend: AUG-CC-PVTZ-JKFIT

    Orbital Energies [Eh]
    ---------------------

    Doubly Occupied:

       1A    -20.526848     2A    -15.638120     3A    -15.592221
       4A    -15.572649     5A    -11.365228     6A    -11.310629
       7A    -11.280563     8A    -11.262831     9A    -11.261699
      10A     -1.387061    11A     -1.345372    12A     -1.239773
      13A     -1.175869    14A     -1.040949    15A     -0.962395
      16A     -0.862031    17A     -0.824066    18A     -0.797029
      19A     -0.772875    20A     -0.669827    21A     -0.651305
      22A     -0.638942    23A     -0.612855    24A     -0.607116
      25A     -0.596662    26A     -0.587855    27A     -0.550343
      28A     -0.536653    29A     -0.461247    30A     -0.443776
      31A     -0.416113    32A     -0.395003    33A     -0.328060

  @DF-RHF Final Energy:  -431.79422279286086

   => Energetics <=

    Nuclear Repulsion Energy =            432.5264003803200694
    One-Electron Energy =               -1445.2133173656366125
    Two-Electron Energy =                 580.8926941924556786
    Total Energy =                       -431.7942227928608645
  Basis Set: (AUG-CC-PVTZ AUX)
    Blend: AUG-CC-PVTZ-RI
    Molecular point group: c1

    Geometry (in Angstrom), charge = 0, multiplicity = 1:

       Center              X                  Y                   Z               Mass
    ------------   -----------------  -----------------  -----------------  -----------------
         O            1.284799608751     1.574843084792    -0.000004002399    15.994914619570
         N           -1.439791391249     0.962267084792     0.000002997601    14.003074004430
         N            1.787221608751    -0.682402915208    -0.000000002399    14.003074004430
         N           -1.005417391249    -1.224493915208    -0.000000002399    14.003074004430
         C           -0.461081791249     0.018295184792     0.000005097601    12.000000000000
         C            0.948870608751     0.380229084792    -0.000000002399    12.000000000000
         C           -2.656295391249     0.333279084792    -0.000001002399    12.000000000000
         C           -2.361401391249    -1.019056915208    -0.000003002399    12.000000000000
         C            3.228089608751    -0.535768915208    -0.000000002399    12.000000000000
         H           -1.231193391249     1.955449084792     0.000008997601     1.007825032230
         H            1.352417608751    -1.599284915208     0.000006997601     1.007825032230
         H           -3.590777391249     0.875040084792    -0.000001002399     1.007825032230
         H           -3.057597391249    -1.847192915208    -0.000007002399     1.007825032230
         H            3.443919608751     0.532567084792    -0.000007002399     1.007825032230
         H            3.667682608751    -0.992944915208    -0.891025002399     1.007825032230
         H            3.667678608751    -0.992931915208     0.891032997601     1.007825032230

  Basis Set: AUG-CC-PVTZ
    Blend: AUG-CC-PVTZ
  Basis Set: (AUG-CC-PVTZ AUX)
    Blend: AUG-CC-PVTZ-JKFIT
	 Reference Energy          =    -431.7942227928608645 [Eh]
	 Singles Energy            =      -0.0000000000000000 [Eh]
	 Same-Spin Energy          =      -0.4564196888517961 [Eh]
	 Opposite-Spin Energy      =      -1.3807805039826790 [Eh]
	 Correlation Energy        =      -1.8372001928344752 [Eh]
	 Total Energy              =    -433.6314229856953375 [Eh]

	 ================> DF-SCS-MP2 Energies <==================
	-----------------------------------------------------------
	 SCS Same-Spin Scale       =       0.3333333333333333 [-]
	 SCS Opposite-Spin Scale   =       1.2000000000000000 [-]
	 SCS Same-Spin Energy      =      -0.1521398962839320 [Eh]
	 SCS Opposite-Spin Energy  =      -1.6569366047792149 [Eh]
	 SCS Correlation Energy    =      -1.8090765010631469 [Eh]
	 SCS Total Energy          =    -433.6032992939240103 [Eh]
	-----------------------------------------------------------

  Dipole Moment: [D]
     X:    -1.0458      Y:    -0.3894      Z:     0.0000     Total:     1.1160

*** Psi4 exiting successfully. Buy a developer a beer!
