                               Psi4 1.3.2 release

  ==> Input File <==

--------------------------------------------------------------------------
#psi4
#
memory 32 gb

molecule  {
0 1
  O        1.2542850     1.5918540    -0.0000040
  N       -1.4703060     0.9792780     0.0000030
  N        1.7567070    -0.6653920     0.0000000
  N       -1.0572457    -1.1980865     0.0000002
  C       -0.5082200     0.0183690     0.0000050
  C        0.9183560     0.3972400     0.0000000
  C       -2.6868100     0.3502900    -0.0000010
  C       -2.3919160    -1.0020460    -0.0000030
  C        3.1975750    -0.5187580     0.0000000
  H       -1.2617080     1.9724600     0.0000090
  H        1.3219030    -1.5822740     0.0000070
  H       -3.6212920     0.8920510    -0.0000010
  H       -3.0881120    -1.8301820    -0.0000070
  H        3.4134050     0.5495780    -0.0000070
  H        3.6371680    -0.9759340    -0.8910250
  H        3.6371640    -0.9759210     0.8910330
units angstrom
no_reorient  #important for SAPT in psi4, default
symmetry c1  #important for SAPT in psi4, default
}

set PROPERTIES_ORIGIN ["COM"]
properties('MP2/aug-cc-pvtz', properties = ['dipole'])
--------------------------------------------------------------------------

    Molecular point group: c1
  Charge       = 0
  Multiplicity = 1
  Basis Set: AUG-CC-PVTZ
    Blend: AUG-CC-PVTZ
  Basis Set: (AUG-CC-PVTZ AUX)
    Blend: AUG-CC-PVTZ-JKFIT

    Orbital Energies [Eh]
    ---------------------

    Doubly Occupied:

       1A    -20.527603     2A    -15.636131     3A    -15.592764
       4A    -15.568177     5A    -11.366908     6A    -11.309003
       7A    -11.278568     8A    -11.263080     9A    -11.258540
      10A     -1.387162    11A     -1.350135    12A     -1.239939
      13A     -1.183072    14A     -1.038724    15A     -0.962050
      16A     -0.859106    17A     -0.826946    18A     -0.796439
      19A     -0.772717    20A     -0.670322    21A     -0.651119
      22A     -0.639253    23A     -0.614481    24A     -0.608817
      25A     -0.598260    26A     -0.587801    27A     -0.550565
      28A     -0.536915    29A     -0.460922    30A     -0.442537
      31A     -0.419826    32A     -0.395997    33A     -0.327127

  @DF-RHF Final Energy:  -431.79707756381646

   => Energetics <=

    Nuclear Repulsion Energy =            432.8910260198364881
    One-Electron Energy =               -1445.9341948541168676
    Two-Electron Energy =                 581.2460912704638076
    Total Energy =                       -431.7970775638165151
  Basis Set: (AUG-CC-PVTZ AUX)
    Blend: AUG-CC-PVTZ-RI
    Molecular point group: c1

    Geometry (in Angstrom), charge = 0, multiplicity = 1:

       Center              X                  Y                   Z               Mass
    ------------   -----------------  -----------------  -----------------  -----------------
         O            1.288781256369     1.575416137236    -0.000004015198    15.994914619570
         N           -1.435809743631     0.962840137236     0.000002984802    14.003074004430
         N            1.791203256369    -0.681829862764    -0.000000015198    14.003074004430
         N           -1.022749443631    -1.214524362764     0.000000184802    14.003074004430
         C           -0.473723743631     0.001931137236     0.000004984802    12.000000000000
         C            0.952852256369     0.380802137236    -0.000000015198    12.000000000000
         C           -2.652313743631     0.333852137236    -0.000001015198    12.000000000000
         C           -2.357419743631    -1.018483862764    -0.000003015198    12.000000000000
         C            3.232071256369    -0.535195862764    -0.000000015198    12.000000000000
         H           -1.227211743631     1.956022137236     0.000008984802     1.007825032230
         H            1.356399256369    -1.598711862764     0.000006984802     1.007825032230
         H           -3.586795743631     0.875613137236    -0.000001015198     1.007825032230
         H           -3.053615743631    -1.846619862764    -0.000007015198     1.007825032230
         H            3.447901256369     0.533140137236    -0.000007015198     1.007825032230
         H            3.671664256369    -0.992371862764    -0.891025015198     1.007825032230
         H            3.671660256369    -0.992358862764     0.891032984802     1.007825032230

  Basis Set: AUG-CC-PVTZ
    Blend: AUG-CC-PVTZ
  Basis Set: (AUG-CC-PVTZ AUX)
    Blend: AUG-CC-PVTZ-JKFIT
	 Reference Energy          =    -431.7970775638164582 [Eh]
	 Singles Energy            =      -0.0000000000000000 [Eh]
	 Same-Spin Energy          =      -0.4558423429238163 [Eh]
	 Opposite-Spin Energy      =      -1.3792248089305557 [Eh]
	 Correlation Energy        =      -1.8350671518543720 [Eh]
	 Total Energy              =    -433.6321447156708473 [Eh]

	 ================> DF-SCS-MP2 Energies <==================
	-----------------------------------------------------------
	 SCS Same-Spin Scale       =       0.3333333333333333 [-]
	 SCS Opposite-Spin Scale   =       1.2000000000000000 [-]
	 SCS Same-Spin Energy      =      -0.1519474476412721 [Eh]
	 SCS Opposite-Spin Energy  =      -1.6550697707166668 [Eh]
	 SCS Correlation Energy    =      -1.8070172183579389 [Eh]
	 SCS Total Energy          =    -433.6040947821743998 [Eh]
	-----------------------------------------------------------

  Dipole Moment: [D]
     X:    -0.9460      Y:    -0.4286      Z:     0.0000     Total:     1.0386

*** Psi4 exiting successfully. Buy a developer a beer!
