                               Psi4 1.3.2 release

  ==> Input File <==

--------------------------------------------------------------------------
#psi4
#
memory 32 gb

molecule  {
0 1
  O        1.2542850     1.5918540    -0.0000040
  N       -1.4703060     0.9792780     0.0000030
  N        1.7567070    -0.6653920     0.0000000
  N       -1.0295884    -1.1600347     0.0000001
  C       -0.5082200     0.0183690     0.0000050
  C        0.9183560     0.3972400     0.0000000
  C       -2.6868100     0.3502900    -0.0000010
  C       -2.3919160    -1.0020460    -0.0000030
  C        3.1975750    -0.5187580     0.0000000
  H       -1.2617080     1.9724600     0.0000090
  H        1.3219030    -1.5822740     0.0000070
  H       -3.6212920     0.8920510    -0.0000010
  H       -3.0881120    -1.8301820    -0.0000070
  H        3.4134050     0.5495780    -0.0000070
  H        3.6371680    -0.9759340    -0.8910250
  H        3.6371640    -0.9759210     0.8910330
units angstrom
no_reorient  #important for SAPT in psi4, default
symmetry c1  #important for SAPT in psi4, default
}

set PROPERTIES_ORIGIN ["COM"]
properties('MP2/aug-cc-pvtz', properties = ['dipole'])
--------------------------------------------------------------------------

    Molecular point group: c1
  Charge       = 0
  Multiplicity = 1
  Basis Set: AUG-CC-PVTZ
    Blend: AUG-CC-PVTZ
  Basis Set: (AUG-CC-PVTZ AUX)
    Blend: AUG-CC-PVTZ-JKFIT

    Orbital Energies [Eh]
    ---------------------

    Doubly Occupied:

       1A    -20.527576     2A    -15.629477     3A    -15.592422
       4A    -15.563829     5A    -11.365788     6A    -11.304127
       7A    -11.280084     8A    -11.262919     9A    -11.259351
      10A     -1.388034    11A     -1.352831    12A     -1.239911
      13A     -1.182980    14A     -1.040730    15A     -0.962560
      16A     -0.855474    17A     -0.828476    18A     -0.795783
      19A     -0.773326    20A     -0.671426    21A     -0.650839
      22A     -0.640322    23A     -0.611807    24A     -0.609662
      25A     -0.600946    26A     -0.587995    27A     -0.550457
      28A     -0.536393    29A     -0.462436    30A     -0.438983
      31A     -0.419353    32A     -0.394996    33A     -0.331434

  @DF-RHF Final Energy:  -431.79872415581656

   => Energetics <=

    Nuclear Repulsion Energy =            433.8407477925892977
    One-Electron Energy =               -1447.8534823022928322
    Two-Electron Energy =                 582.2140103538869198
    Total Energy =                       -431.7987241558165579
  Basis Set: (AUG-CC-PVTZ AUX)
    Blend: AUG-CC-PVTZ-RI
    Molecular point group: c1

    Geometry (in Angstrom), charge = 0, multiplicity = 1:

       Center              X                  Y                   Z               Mass
    ------------   -----------------  -----------------  -----------------  -----------------
         O            1.285684418143     1.571155407925    -0.000004004000    15.994914619570
         N           -1.438906581857     0.958579407925     0.000002996000    14.003074004430
         N            1.788106418143    -0.686090592075    -0.000000004000    14.003074004430
         N           -0.998188981857    -1.180733292075     0.000000096000    14.003074004430
         C           -0.476820581857    -0.002329592075     0.000004996000    12.000000000000
         C            0.949755418143     0.376541407925    -0.000000004000    12.000000000000
         C           -2.655410581857     0.329591407925    -0.000001004000    12.000000000000
         C           -2.360516581857    -1.022744592075    -0.000003004000    12.000000000000
         C            3.228974418143    -0.539456592075    -0.000000004000    12.000000000000
         H           -1.230308581857     1.951761407925     0.000008996000     1.007825032230
         H            1.353302418143    -1.602972592075     0.000006996000     1.007825032230
         H           -3.589892581857     0.871352407925    -0.000001004000     1.007825032230
         H           -3.056712581857    -1.850880592075    -0.000007004000     1.007825032230
         H            3.444804418143     0.528879407925    -0.000007004000     1.007825032230
         H            3.668567418143    -0.996632592075    -0.891025004000     1.007825032230
         H            3.668563418143    -0.996619592075     0.891032996000     1.007825032230

  Basis Set: AUG-CC-PVTZ
    Blend: AUG-CC-PVTZ
  Basis Set: (AUG-CC-PVTZ AUX)
    Blend: AUG-CC-PVTZ-JKFIT
	 Reference Energy          =    -431.7987241558165579 [Eh]
	 Singles Energy            =      -0.0000000000000000 [Eh]
	 Same-Spin Energy          =      -0.4547163502956676 [Eh]
	 Opposite-Spin Energy      =      -1.3774723976524279 [Eh]
	 Correlation Energy        =      -1.8321887479480954 [Eh]
	 Total Energy              =    -433.6309129037646812 [Eh]

	 ================> DF-SCS-MP2 Energies <==================
	-----------------------------------------------------------
	 SCS Same-Spin Scale       =       0.3333333333333333 [-]
	 SCS Opposite-Spin Scale   =       1.2000000000000000 [-]
	 SCS Same-Spin Energy      =      -0.1515721167652225 [Eh]
	 SCS Opposite-Spin Energy  =      -1.6529668771829134 [Eh]
	 SCS Correlation Energy    =      -1.8045389939481358 [Eh]
	 SCS Total Energy          =    -433.6032631497647003 [Eh]
	-----------------------------------------------------------

  Dipole Moment: [D]
     X:    -0.9386      Y:    -0.5119      Z:     0.0000     Total:     1.0691

*** Psi4 exiting successfully. Buy a developer a beer!
