                               Psi4 1.3.2 release

  ==> Input File <==

--------------------------------------------------------------------------
#psi4
#
memory 32 gb

molecule  {
0 1
  O        1.2542850     1.5918540    -0.0000040
  N       -1.4703060     0.9792780     0.0000030
  N        1.7567070    -0.6653920     0.0000000
  N       -1.0359320    -1.2074830     0.0000000
  C       -0.5082200     0.0183690     0.0000050
  C        0.9183560     0.3972400     0.0000000
  C       -2.6868100     0.3502900    -0.0000010
  C       -2.4132216    -0.9043420    -0.0000029
  C        3.1975750    -0.5187580     0.0000000
  H       -1.2617080     1.9724600     0.0000090
  H        1.3219030    -1.5822740     0.0000070
  H       -3.6212920     0.8920510    -0.0000010
  H       -3.0881120    -1.8301820    -0.0000070
  H        3.4134050     0.5495780    -0.0000070
  H        3.6371680    -0.9759340    -0.8910250
  H        3.6371640    -0.9759210     0.8910330
units angstrom
no_reorient  #important for SAPT in psi4, default
symmetry c1  #important for SAPT in psi4, default
}

set PROPERTIES_ORIGIN ["COM"]
properties('MP2/aug-cc-pvtz', properties = ['dipole'])
--------------------------------------------------------------------------

    Molecular point group: c1
  Charge       = 0
  Multiplicity = 1
  Basis Set: AUG-CC-PVTZ
    Blend: AUG-CC-PVTZ
  Basis Set: (AUG-CC-PVTZ AUX)
    Blend: AUG-CC-PVTZ-JKFIT

    Orbital Energies [Eh]
    ---------------------

    Doubly Occupied:

       1A    -20.530147     2A    -15.627117     3A    -15.594716
       4A    -15.570006     5A    -11.368127     6A    -11.314666
       7A    -11.266371     8A    -11.264264     9A    -11.252938
      10A     -1.388862    11A     -1.350593    12A     -1.241656
      13A     -1.170373    14A     -1.052467    15A     -0.968369
      16A     -0.864568    17A     -0.807864    18A     -0.798303
      19A     -0.774776    20A     -0.668822    21A     -0.652739
      22A     -0.640590    23A     -0.621642    24A     -0.610767
      25A     -0.591042    26A     -0.558892    27A     -0.551989
      28A     -0.539140    29A     -0.471704    30A     -0.443368
      31A     -0.411701    32A     -0.394458    33A     -0.348418

  @DF-RHF Final Energy:  -431.78475408837397

   => Energetics <=

    Nuclear Repulsion Energy =            433.6628774611817789
    One-Electron Energy =               -1447.4723585451813506
    Two-Electron Energy =                 582.0247269956256559
    Total Energy =                       -431.7847540883739157
  Basis Set: (AUG-CC-PVTZ AUX)
    Blend: AUG-CC-PVTZ-RI
    Molecular point group: c1

    Geometry (in Angstrom), charge = 0, multiplicity = 1:

       Center              X                  Y                   Z               Mass
    ------------   -----------------  -----------------  -----------------  -----------------
         O            1.288439096679     1.567093114913    -0.000004002399    15.994914619570
         N           -1.436151903321     0.954517114913     0.000002997601    14.003074004430
         N            1.790861096679    -0.690152885087    -0.000000002399    14.003074004430
         N           -1.001777903321    -1.232243885087    -0.000000002399    14.003074004430
         C           -0.474065903321    -0.006391885087     0.000004997601    12.000000000000
         C            0.952510096679     0.372479114913    -0.000000002399    12.000000000000
         C           -2.652655903321     0.325529114913    -0.000001002399    12.000000000000
         C           -2.379067503321    -0.929102885087    -0.000002902399    12.000000000000
         C            3.231729096679    -0.543518885087    -0.000000002399    12.000000000000
         H           -1.227553903321     1.947699114913     0.000008997601     1.007825032230
         H            1.356057096679    -1.607034885087     0.000006997601     1.007825032230
         H           -3.587137903321     0.867290114913    -0.000001002399     1.007825032230
         H           -3.053957903321    -1.854942885087    -0.000007002399     1.007825032230
         H            3.447559096679     0.524817114913    -0.000007002399     1.007825032230
         H            3.671322096679    -1.000694885087    -0.891025002399     1.007825032230
         H            3.671318096679    -1.000681885087     0.891032997601     1.007825032230

  Basis Set: AUG-CC-PVTZ
    Blend: AUG-CC-PVTZ
  Basis Set: (AUG-CC-PVTZ AUX)
    Blend: AUG-CC-PVTZ-JKFIT
	 Reference Energy          =    -431.7847540883739725 [Eh]
	 Singles Energy            =      -0.0000000000000000 [Eh]
	 Same-Spin Energy          =      -0.4544505447655379 [Eh]
	 Opposite-Spin Energy      =      -1.3785105891272156 [Eh]
	 Correlation Energy        =      -1.8329611338927534 [Eh]
	 Total Energy              =    -433.6177152222667246 [Eh]

	 ================> DF-SCS-MP2 Energies <==================
	-----------------------------------------------------------
	 SCS Same-Spin Scale       =       0.3333333333333333 [-]
	 SCS Opposite-Spin Scale   =       1.2000000000000000 [-]
	 SCS Same-Spin Energy      =      -0.1514835149218459 [Eh]
	 SCS Opposite-Spin Energy  =      -1.6542127069526587 [Eh]
	 SCS Correlation Energy    =      -1.8056962218745045 [Eh]
	 SCS Total Energy          =    -433.5904503102484568 [Eh]
	-----------------------------------------------------------

  Dipole Moment: [D]
     X:    -0.8698      Y:    -0.3223      Z:     0.0000     Total:     0.9276

*** Psi4 exiting successfully. Buy a developer a beer!
