                               Psi4 1.3.2 release

  ==> Input File <==

--------------------------------------------------------------------------
#psi4
#
memory 32 gb

molecule  {
0 1
  O        1.2542850     1.5918540    -0.0000040
  N       -1.4703060     0.9792780     0.0000030
  N        1.7567070    -0.6653920     0.0000000
  N       -1.0359320    -1.2074830     0.0000000
  C       -0.5082200     0.0183690     0.0000050
  C        0.9183560     0.3972400     0.0000000
  C       -2.6868100     0.3502900    -0.0000010
  C       -2.3919160    -1.0020460    -0.0000030
  C        3.1975750    -0.5187580     0.0000000
  H       -1.2617080     1.9724600     0.0000090
  H        1.3219030    -1.5822740     0.0000070
  H       -3.6212920     0.8920510    -0.0000010
  H       -3.1524616    -1.9067269    -0.0000074
  H        3.4134050     0.5495780    -0.0000070
  H        3.6371680    -0.9759340    -0.8910250
  H        3.6371640    -0.9759210     0.8910330
units angstrom
no_reorient  #important for SAPT in psi4, default
symmetry c1  #important for SAPT in psi4, default
}

set PROPERTIES_ORIGIN ["COM"]
properties('MP2/aug-cc-pvtz', properties = ['dipole'])
--------------------------------------------------------------------------

    Molecular point group: c1
  Charge       = 0
  Multiplicity = 1
  Basis Set: AUG-CC-PVTZ
    Blend: AUG-CC-PVTZ
  Basis Set: (AUG-CC-PVTZ AUX)
    Blend: AUG-CC-PVTZ-JKFIT

    Orbital Energies [Eh]
    ---------------------

    Doubly Occupied:

       1A    -20.528042     2A    -15.636211     3A    -15.592842
       4A    -15.571967     5A    -11.366914     6A    -11.311168
       7A    -11.280516     8A    -11.271499     9A    -11.263166
      10A     -1.387279    11A     -1.348574    12A     -1.240216
      13A     -1.180651    14A     -1.037526    15A     -0.961895
      16A     -0.859018    17A     -0.814582    18A     -0.797856
      19A     -0.772612    20A     -0.668815    21A     -0.650781
      22A     -0.639293    23A     -0.611977    24A     -0.608591
      25A     -0.590969    26A     -0.574484    27A     -0.550651
      28A     -0.537003    29A     -0.463688    30A     -0.442804
      31A     -0.418680    32A     -0.395649    33A     -0.329199

  @DF-RHF Final Energy:  -431.78924850885011

   => Energetics <=

    Nuclear Repulsion Energy =            432.1011783692885047
    One-Electron Energy =               -1444.3706142205471679
    Two-Electron Energy =                 580.4801873424084988
    Total Energy =                       -431.7892485088501644
  Basis Set: (AUG-CC-PVTZ AUX)
    Blend: AUG-CC-PVTZ-RI
    Molecular point group: c1

    Geometry (in Angstrom), charge = 0, multiplicity = 1:

       Center              X                  Y                   Z               Mass
    ------------   -----------------  -----------------  -----------------  -----------------
         O            1.286913303280     1.577085140653    -0.000003989580    15.994914619570
         N           -1.437677696720     0.964509140653     0.000003010420    14.003074004430
         N            1.789335303280    -0.680160859347     0.000000010420    14.003074004430
         N           -1.003303696720    -1.222251859347     0.000000010420    14.003074004430
         C           -0.475591696720     0.003600140653     0.000005010420    12.000000000000
         C            0.950984303280     0.382471140653     0.000000010420    12.000000000000
         C           -2.654181696720     0.335521140653    -0.000000989580    12.000000000000
         C           -2.359287696720    -1.016814859347    -0.000002989580    12.000000000000
         C            3.230203303280    -0.533526859347     0.000000010420    12.000000000000
         H           -1.229079696720     1.957691140653     0.000009010420     1.007825032230
         H            1.354531303280    -1.597042859347     0.000007010420     1.007825032230
         H           -3.588663696720     0.877282140653    -0.000000989580     1.007825032230
         H           -3.119833296720    -1.921495759347    -0.000007389580     1.007825032230
         H            3.446033303280     0.534809140653    -0.000006989580     1.007825032230
         H            3.669796303280    -0.990702859347    -0.891024989580     1.007825032230
         H            3.669792303280    -0.990689859347     0.891033010420     1.007825032230

  Basis Set: AUG-CC-PVTZ
    Blend: AUG-CC-PVTZ
  Basis Set: (AUG-CC-PVTZ AUX)
    Blend: AUG-CC-PVTZ-JKFIT
	 Reference Energy          =    -431.7892485088501076 [Eh]
	 Singles Energy            =      -0.0000000000000000 [Eh]
	 Same-Spin Energy          =      -0.4559474589912648 [Eh]
	 Opposite-Spin Energy      =      -1.3804973472196322 [Eh]
	 Correlation Energy        =      -1.8364448062108969 [Eh]
	 Total Energy              =    -433.6256933150610280 [Eh]

	 ================> DF-SCS-MP2 Energies <==================
	-----------------------------------------------------------
	 SCS Same-Spin Scale       =       0.3333333333333333 [-]
	 SCS Opposite-Spin Scale   =       1.2000000000000000 [-]
	 SCS Same-Spin Energy      =      -0.1519824863304216 [Eh]
	 SCS Opposite-Spin Energy  =      -1.6565968166635587 [Eh]
	 SCS Correlation Energy    =      -1.8085793029939803 [Eh]
	 SCS Total Energy          =    -433.5978278118440699 [Eh]
	-----------------------------------------------------------

  Dipole Moment: [D]
     X:    -0.9487      Y:    -0.3959      Z:     0.0000     Total:     1.0280

*** Psi4 exiting successfully. Buy a developer a beer!
