                               Psi4 1.3.2 release

  ==> Input File <==

--------------------------------------------------------------------------
#psi4
#
memory 32 gb

molecule  {
0 1
  O        1.2542850     1.5918540    -0.0000040
  N       -1.4703060     0.9792780     0.0000030
  N        1.7567070    -0.6653920     0.0000000
  N       -1.0359320    -1.2074830     0.0000000
  C       -0.5082200     0.0183690     0.0000050
  C        0.9183560     0.3972400     0.0000000
  C       -2.6868100     0.3502900    -0.0000010
  C       -2.4155624    -1.0069866    -0.0000030
  C        3.1975750    -0.5187580     0.0000000
  H       -1.2617080     1.9724600     0.0000090
  H        1.3219030    -1.5822740     0.0000070
  H       -3.6212920     0.8920510    -0.0000010
  H       -3.0881120    -1.8301820    -0.0000070
  H        3.4134050     0.5495780    -0.0000070
  H        3.6371680    -0.9759340    -0.8910250
  H        3.6371640    -0.9759210     0.8910330
units angstrom
no_reorient  #important for SAPT in psi4, default
symmetry c1  #important for SAPT in psi4, default
}

set PROPERTIES_ORIGIN ["COM"]
properties('MP2/aug-cc-pvtz', properties = ['dipole'])
--------------------------------------------------------------------------

    Molecular point group: c1
  Charge       = 0
  Multiplicity = 1
  Basis Set: AUG-CC-PVTZ
    Blend: AUG-CC-PVTZ
  Basis Set: (AUG-CC-PVTZ AUX)
    Blend: AUG-CC-PVTZ-JKFIT

    Orbital Energies [Eh]
    ---------------------

    Doubly Occupied:

       1A    -20.528207     2A    -15.634672     3A    -15.592674
       4A    -15.571643     5A    -11.366880     6A    -11.310897
       7A    -11.281062     8A    -11.263048     9A    -11.260836
      10A     -1.386740    11A     -1.345270    12A     -1.239997
      13A     -1.175278    14A     -1.038814    15A     -0.962378
      16A     -0.857649    17A     -0.826666    18A     -0.796662
      19A     -0.772691    20A     -0.668383    21A     -0.650828
      22A     -0.638399    23A     -0.615707    24A     -0.607164
      25A     -0.597156    26A     -0.587112    27A     -0.550637
      28A     -0.536683    29A     -0.463378    30A     -0.442125
      31A     -0.415252    32A     -0.394778    33A     -0.330461

  @DF-RHF Final Energy:  -431.79600229325547

   => Energetics <=

    Nuclear Repulsion Energy =            432.0980548344656427
    One-Electron Energy =               -1444.3678619960514879
    Two-Electron Energy =                 580.4738048683303759
    Total Energy =                       -431.7960022932554693
  Basis Set: (AUG-CC-PVTZ AUX)
    Blend: AUG-CC-PVTZ-RI
    Molecular point group: c1

    Geometry (in Angstrom), charge = 0, multiplicity = 1:

       Center              X                  Y                   Z               Mass
    ------------   -----------------  -----------------  -----------------  -----------------
         O            1.288663707622     1.576942354617    -0.000003992803    15.994914619570
         N           -1.435927292378     0.964366354617     0.000003007197    14.003074004430
         N            1.791085707622    -0.680303645383     0.000000007197    14.003074004430
         N           -1.001553292378    -1.222394645383     0.000000007197    14.003074004430
         C           -0.473841292378     0.003457354617     0.000005007197    12.000000000000
         C            0.952734707622     0.382328354617     0.000000007197    12.000000000000
         C           -2.652431292378     0.335378354617    -0.000000992803    12.000000000000
         C           -2.381183692379    -1.021898245383    -0.000002992803    12.000000000000
         C            3.231953707622    -0.533669645383     0.000000007197    12.000000000000
         H           -1.227329292378     1.957548354617     0.000009007197     1.007825032230
         H            1.356281707622    -1.597185645383     0.000007007197     1.007825032230
         H           -3.586913292379     0.877139354617    -0.000000992803     1.007825032230
         H           -3.053733292378    -1.845093645383    -0.000006992803     1.007825032230
         H            3.447783707622     0.534666354617    -0.000006992803     1.007825032230
         H            3.671546707621    -0.990845645383    -0.891024992803     1.007825032230
         H            3.671542707622    -0.990832645383     0.891033007197     1.007825032230

  Basis Set: AUG-CC-PVTZ
    Blend: AUG-CC-PVTZ
  Basis Set: (AUG-CC-PVTZ AUX)
    Blend: AUG-CC-PVTZ-JKFIT
	 Reference Energy          =    -431.7960022932554693 [Eh]
	 Singles Energy            =      -0.0000000000000000 [Eh]
	 Same-Spin Energy          =      -0.4555404153769584 [Eh]
	 Opposite-Spin Energy      =      -1.3798519498131760 [Eh]
	 Correlation Energy        =      -1.8353923651901345 [Eh]
	 Total Energy              =    -433.6313946584456289 [Eh]

	 ================> DF-SCS-MP2 Energies <==================
	-----------------------------------------------------------
	 SCS Same-Spin Scale       =       0.3333333333333333 [-]
	 SCS Opposite-Spin Scale   =       1.2000000000000000 [-]
	 SCS Same-Spin Energy      =      -0.1518468051256528 [Eh]
	 SCS Opposite-Spin Energy  =      -1.6558223397758112 [Eh]
	 SCS Correlation Energy    =      -1.8076691449014639 [Eh]
	 SCS Total Energy          =    -433.6036714381569368 [Eh]
	-----------------------------------------------------------

  Dipole Moment: [D]
     X:    -0.9722      Y:    -0.4011      Z:     0.0000     Total:     1.0517

*** Psi4 exiting successfully. Buy a developer a beer!
