                               Psi4 1.3.2 release

  ==> Input File <==

--------------------------------------------------------------------------
#psi4
#
memory 32 gb

molecule  {
0 1
  O        1.2542850     1.5918540    -0.0000040
  N       -1.4703060     0.9792780     0.0000030
  N        1.7567070    -0.6653920     0.0000000
  N       -1.0359320    -1.2074830     0.0000000
  C       -0.5082200     0.0183690     0.0000050
  C        0.9183560     0.3972400     0.0000000
  C       -2.7103666     0.3449374    -0.0000011
  C       -2.3919160    -1.0020460    -0.0000030
  C        3.1975750    -0.5187580     0.0000000
  H       -1.2617080     1.9724600     0.0000090
  H        1.3219030    -1.5822740     0.0000070
  H       -3.6212920     0.8920510    -0.0000010
  H       -3.0881120    -1.8301820    -0.0000070
  H        3.4134050     0.5495780    -0.0000070
  H        3.6371680    -0.9759340    -0.8910250
  H        3.6371640    -0.9759210     0.8910330
units angstrom
no_reorient  #important for SAPT in psi4, default
symmetry c1  #important for SAPT in psi4, default
}

set PROPERTIES_ORIGIN ["COM"]
properties('MP2/aug-cc-pvtz', properties = ['dipole'])
--------------------------------------------------------------------------

    Molecular point group: c1
  Charge       = 0
  Multiplicity = 1
  Basis Set: AUG-CC-PVTZ
    Blend: AUG-CC-PVTZ
  Basis Set: (AUG-CC-PVTZ AUX)
    Blend: AUG-CC-PVTZ-JKFIT

    Orbital Energies [Eh]
    ---------------------

    Doubly Occupied:

       1A    -20.528389     2A    -15.634368     3A    -15.593297
       4A    -15.570445     5A    -11.367200     6A    -11.312321
       7A    -11.279567     8A    -11.263404     9A    -11.262362
      10A     -1.386660    11A     -1.343637    12A     -1.240370
      13A     -1.177244    14A     -1.038710    15A     -0.962990
      16A     -0.859056    17A     -0.823181    18A     -0.796374
      19A     -0.773488    20A     -0.666902    21A     -0.652655
      22A     -0.638276    23A     -0.616466    24A     -0.606235
      25A     -0.594378    26A     -0.586811    27A     -0.551014
      28A     -0.536428    29A     -0.464924    30A     -0.442983
      31A     -0.416480    32A     -0.395490    33A     -0.330342

  @DF-RHF Final Energy:  -431.79567888186421

   => Energetics <=

    Nuclear Repulsion Energy =            432.0990780988332176
    One-Electron Energy =               -1444.3646197298592142
    Two-Electron Energy =                 580.4698627491618481
    Total Energy =                       -431.7956788818642053
  Basis Set: (AUG-CC-PVTZ AUX)
    Blend: AUG-CC-PVTZ-RI
    Molecular point group: c1

    Geometry (in Angstrom), charge = 0, multiplicity = 1:

       Center              X                  Y                   Z               Mass
    ------------   -----------------  -----------------  -----------------  -----------------
         O            1.288655090883     1.576981887985    -0.000003983208    15.994914619570
         N           -1.435935909117     0.964405887985     0.000003016792    14.003074004430
         N            1.791077090883    -0.680264112015     0.000000016792    14.003074004430
         N           -1.001561909117    -1.222355112015     0.000000016792    14.003074004430
         C           -0.473849909117     0.003496887985     0.000005016792    12.000000000000
         C            0.952726090883     0.382367887985     0.000000016792    12.000000000000
         C           -2.675996509117     0.330065287985    -0.000001083208    12.000000000000
         C           -2.357545909117    -1.016918112015    -0.000002983208    12.000000000000
         C            3.231945090883    -0.533630112015     0.000000016792    12.000000000000
         H           -1.227337909117     1.957587887985     0.000009016792     1.007825032230
         H            1.356273090883    -1.597146112015     0.000007016792     1.007825032230
         H           -3.586921909117     0.877178887985    -0.000000983208     1.007825032230
         H           -3.053741909117    -1.845054112015    -0.000006983208     1.007825032230
         H            3.447775090883     0.534705887985    -0.000006983208     1.007825032230
         H            3.671538090883    -0.990806112015    -0.891024983208     1.007825032230
         H            3.671534090883    -0.990793112015     0.891033016792     1.007825032230

  Basis Set: AUG-CC-PVTZ
    Blend: AUG-CC-PVTZ
  Basis Set: (AUG-CC-PVTZ AUX)
    Blend: AUG-CC-PVTZ-JKFIT
	 Reference Energy          =    -431.7956788818642053 [Eh]
	 Singles Energy            =      -0.0000000000000000 [Eh]
	 Same-Spin Energy          =      -0.4556120452994207 [Eh]
	 Opposite-Spin Energy      =      -1.3799601751948438 [Eh]
	 Correlation Energy        =      -1.8355722204942646 [Eh]
	 Total Energy              =    -433.6312511023584761 [Eh]

	 ================> DF-SCS-MP2 Energies <==================
	-----------------------------------------------------------
	 SCS Same-Spin Scale       =       0.3333333333333333 [-]
	 SCS Opposite-Spin Scale   =       1.2000000000000000 [-]
	 SCS Same-Spin Energy      =      -0.1518706817664736 [Eh]
	 SCS Opposite-Spin Energy  =      -1.6559522102338124 [Eh]
	 SCS Correlation Energy    =      -1.8078228920002859 [Eh]
	 SCS Total Energy          =    -433.6035017738644797 [Eh]
	-----------------------------------------------------------

  Dipole Moment: [D]
     X:    -0.9591      Y:    -0.4196      Z:     0.0000     Total:     1.0469

*** Psi4 exiting successfully. Buy a developer a beer!
