                               Psi4 1.4a3.dev225

  ==> Input File <==

--------------------------------------------------------------------------
#psi4
#
memory 32 gb

molecule  {
0 1
  O        1.2542850     1.5918540    -0.0000040
  N       -1.4703060     0.9792780     0.0000030
  N        1.7567070    -0.6653920     0.0000000
  N       -1.0359320    -1.2074830     0.0000000
  C       -0.5082200     0.0183690     0.0000050
  C        0.9183560     0.3972400     0.0000000
  C       -2.6868100     0.3502900    -0.0000010
  C       -2.3424801    -1.0095357    -0.0000029
  C        3.1975750    -0.5187580     0.0000000
  H       -1.2617080     1.9724600     0.0000090
  H        1.3219030    -1.5822740     0.0000070
  H       -3.6212920     0.8920510    -0.0000010
  H       -3.0881120    -1.8301820    -0.0000070
  H        3.4134050     0.5495780    -0.0000070
  H        3.6371680    -0.9759340    -0.8910250
  H        3.6371640    -0.9759210     0.8910330
units angstrom
no_reorient  #important for SAPT in psi4, default
symmetry c1  #important for SAPT in psi4, default
}

set PROPERTIES_ORIGIN ["COM"]
properties('MP2/aug-cc-pvtz', properties = ['dipole'])
--------------------------------------------------------------------------

    Molecular point group: c1
  Charge       = 0
  Multiplicity = 1
  Basis Set: AUG-CC-PVTZ
    Blend: AUG-CC-PVTZ
  Basis Set: (AUG-CC-PVTZ AUX)
    Blend: AUG-CC-PVTZ-JKFIT

    Orbital Energies [Eh]
    ---------------------

    Doubly Occupied:

       1A    -20.526166     2A    -15.639330     3A    -15.591844
       4A    -15.569699     5A    -11.365398     6A    -11.308657
       7A    -11.279491     8A    -11.262559     9A    -11.262009
      10A     -1.387179    11A     -1.353161    12A     -1.239455
      13A     -1.192460    14A     -1.036006    15A     -0.960339
      16A     -0.860696    17A     -0.824140    18A     -0.798647
      19A     -0.772457    20A     -0.669704    21A     -0.651510
      22A     -0.639834    23A     -0.614451    24A     -0.609756
      25A     -0.594968    26A     -0.584734    27A     -0.549955
      28A     -0.536248    29A     -0.463873    30A     -0.442187
      31A     -0.426099    32A     -0.395940    33A     -0.322366

  @DF-RHF Final Energy:  -431.79361027053250

   => Energetics <=

    Nuclear Repulsion Energy =            433.3882202550350939
    One-Electron Energy =               -1446.9010147604326448
    Two-Electron Energy =                 581.7191842348649971
    Total Energy =                       -431.7936102705325538
  Basis Set: (AUG-CC-PVTZ AUX)
    Blend: AUG-CC-PVTZ-RI
    Molecular point group: c1

    Geometry (in Angstrom), charge = 0, multiplicity = 1:

       Center              X                  Y                   Z               Mass
    ------------   -----------------  -----------------  -----------------  -----------------
         O            1.281651111822     1.577186952939    -0.000004002399    15.994914619570
         N           -1.442939888178     0.964610952939     0.000002997601    14.003074004430
         N            1.784073111822    -0.680059047061    -0.000000002399    14.003074004430
         N           -1.008565888178    -1.222150047061    -0.000000002399    14.003074004430
         C           -0.480853888178     0.003701952939     0.000004997601    12.000000000000
         C            0.945722111822     0.382572952939    -0.000000002399    12.000000000000
         C           -2.659443888178     0.335622952939    -0.000001002399    12.000000000000
         C           -2.315113988178    -1.024202747061    -0.000002902399    12.000000000000
         C            3.224941111822    -0.533425047061    -0.000000002399    12.000000000000
         H           -1.234341888178     1.957792952939     0.000008997601     1.007825032230
         H            1.349269111822    -1.596941047061     0.000006997601     1.007825032230
         H           -3.593925888178     0.877383952939    -0.000001002399     1.007825032230
         H           -3.060745888178    -1.844849047061    -0.000007002399     1.007825032230
         H            3.440771111822     0.534910952939    -0.000007002399     1.007825032230
         H            3.664534111822    -0.990601047061    -0.891025002399     1.007825032230
         H            3.664530111822    -0.990588047061     0.891032997601     1.007825032230

  Basis Set: AUG-CC-PVTZ
    Blend: AUG-CC-PVTZ
  Basis Set: (AUG-CC-PVTZ AUX)
    Blend: AUG-CC-PVTZ-JKFIT
	 Reference Energy          =    -431.7936102705324970 [Eh]
	 Singles Energy            =      -0.0000000000000000 [Eh]
	 Same-Spin Energy          =      -0.4563578904497140 [Eh]
	 Opposite-Spin Energy      =      -1.3796808969203775 [Eh]
	 Correlation Energy        =      -1.8360387873700916 [Eh]
	 Total Energy              =    -433.6296490579026113 [Eh]

	 ================> DF-SCS-MP2 Energies <==================
	-----------------------------------------------------------
	 SCS Same-Spin Scale       =       0.3333333333333333 [-]
	 SCS Opposite-Spin Scale   =       1.2000000000000000 [-]
	 SCS Same-Spin Energy      =      -0.1521192968165713 [Eh]
	 SCS Opposite-Spin Energy  =      -1.6556170763044531 [Eh]
	 SCS Correlation Energy    =      -1.8077363731210243 [Eh]
	 SCS Total Energy          =    -433.6013466436535282 [Eh]
	-----------------------------------------------------------

  Dipole Moment: [D]
     X:    -0.9926      Y:    -0.4138      Z:     0.0000     Total:     1.0754

*** Psi4 exiting successfully. Buy a developer a beer!
