                               Psi4 1.3.2 release

  ==> Input File <==

--------------------------------------------------------------------------
#psi4
#
memory 32 gb

molecule  {
0 1
  O        1.2542850     1.5918540    -0.0000040
  N       -1.4703060     0.9792780     0.0000030
  N        1.7567070    -0.6653920     0.0000000
  N       -1.0359320    -1.2074830     0.0000000
  C       -0.5082200     0.0183690     0.0000050
  C        0.8410720     0.3337799     0.0000000
  C       -2.6868100     0.3502900    -0.0000010
  C       -2.3919160    -1.0020460    -0.0000030
  C        3.1975750    -0.5187580     0.0000000
  H       -1.2617080     1.9724600     0.0000090
  H        1.3219030    -1.5822740     0.0000070
  H       -3.6212920     0.8920510    -0.0000010
  H       -3.0881120    -1.8301820    -0.0000070
  H        3.4134050     0.5495780    -0.0000070
  H        3.6371680    -0.9759340    -0.8910250
  H        3.6371640    -0.9759210     0.8910330
units angstrom
no_reorient  #important for SAPT in psi4, default
symmetry c1  #important for SAPT in psi4, default
}

set PROPERTIES_ORIGIN ["COM"]
properties('MP2/aug-cc-pvtz', properties = ['dipole'])
--------------------------------------------------------------------------

    Molecular point group: c1
  Charge       = 0
  Multiplicity = 1
  Basis Set: AUG-CC-PVTZ
    Blend: AUG-CC-PVTZ
  Basis Set: (AUG-CC-PVTZ AUX)
    Blend: AUG-CC-PVTZ-JKFIT

    Orbital Energies [Eh]
    ---------------------

    Doubly Occupied:

       1A    -20.511750     2A    -15.643013     3A    -15.595801
       4A    -15.580524     5A    -11.363565     6A    -11.309992
       7A    -11.289525     8A    -11.267546     9A    -11.263675
      10A     -1.372772    11A     -1.324634    12A     -1.226954
      13A     -1.186207    14A     -1.056370    15A     -0.966548
      16A     -0.877826    17A     -0.832021    18A     -0.805060
      19A     -0.765879    20A     -0.672525    21A     -0.645827
      22A     -0.640745    23A     -0.616326    24A     -0.610144
      25A     -0.605859    26A     -0.572428    27A     -0.540487
      28A     -0.517239    29A     -0.470776    30A     -0.430959
      31A     -0.422018    32A     -0.385803    33A     -0.334755

  @DF-RHF Final Energy:  -431.77409728757198

   => Energetics <=

    Nuclear Repulsion Energy =            432.8208741049550667
    One-Electron Energy =               -1445.7788385383314562
    Two-Electron Energy =                 581.1838671458044701
    Total Energy =                       -431.7740972875719763
  Basis Set: (AUG-CC-PVTZ AUX)
    Blend: AUG-CC-PVTZ-RI
    Molecular point group: c1

    Geometry (in Angstrom), charge = 0, multiplicity = 1:

       Center              X                  Y                   Z               Mass
    ------------   -----------------  -----------------  -----------------  -----------------
         O            1.293810491569     1.582557580190    -0.000003992803    15.994914619570
         N           -1.430780508431     0.969981580190     0.000003007197    14.003074004430
         N            1.796232491569    -0.674688419810     0.000000007197    14.003074004430
         N           -0.996406508431    -1.216779419810     0.000000007197    14.003074004430
         C           -0.468694508431     0.009072580190     0.000005007197    12.000000000000
         C            0.880597491569     0.324483480190     0.000000007197    12.000000000000
         C           -2.647284508431     0.340993580190    -0.000000992803    12.000000000000
         C           -2.352390508431    -1.011342419810    -0.000002992803    12.000000000000
         C            3.237100491569    -0.528054419810     0.000000007197    12.000000000000
         H           -1.222182508431     1.963163580190     0.000009007197     1.007825032230
         H            1.361428491569    -1.591570419810     0.000007007197     1.007825032230
         H           -3.581766508431     0.882754580190    -0.000000992803     1.007825032230
         H           -3.048586508431    -1.839478419810    -0.000006992803     1.007825032230
         H            3.452930491569     0.540281580190    -0.000006992803     1.007825032230
         H            3.676693491569    -0.985230419810    -0.891024992803     1.007825032230
         H            3.676689491569    -0.985217419810     0.891033007197     1.007825032230

  Basis Set: AUG-CC-PVTZ
    Blend: AUG-CC-PVTZ
  Basis Set: (AUG-CC-PVTZ AUX)
    Blend: AUG-CC-PVTZ-JKFIT
	 Reference Energy          =    -431.7740972875719763 [Eh]
	 Singles Energy            =      -0.0000000000000000 [Eh]
	 Same-Spin Energy          =      -0.4587413191926583 [Eh]
	 Opposite-Spin Energy      =      -1.3851932596149859 [Eh]
	 Correlation Energy        =      -1.8439345788076442 [Eh]
	 Total Energy              =    -433.6180318663796243 [Eh]

	 ================> DF-SCS-MP2 Energies <==================
	-----------------------------------------------------------
	 SCS Same-Spin Scale       =       0.3333333333333333 [-]
	 SCS Opposite-Spin Scale   =       1.2000000000000000 [-]
	 SCS Same-Spin Energy      =      -0.1529137730642194 [Eh]
	 SCS Opposite-Spin Energy  =      -1.6622319115379829 [Eh]
	 SCS Correlation Energy    =      -1.8151456846022023 [Eh]
	 SCS Total Energy          =    -433.5892429721741905 [Eh]
	-----------------------------------------------------------

  Dipole Moment: [D]
     X:    -1.4989      Y:    -0.8055      Z:     0.0000     Total:     1.7016

*** Psi4 exiting successfully. Buy a developer a beer!
