                               Psi4 1.4a3.dev225

  ==> Input File <==

--------------------------------------------------------------------------
#psi4
#
memory 32 gb

molecule  {
0 1
  O        1.2542850     1.5918540    -0.0000040
  N       -1.4703060     0.9792780     0.0000030
  N        1.7567070    -0.6653920     0.0000000
  N       -1.0359320    -1.2074830     0.0000000
  C       -0.5082200     0.0183690     0.0000050
  C        0.9183560     0.3972400     0.0000000
  C       -2.6868100     0.3502900    -0.0000010
  C       -2.3961771    -0.9825052    -0.0000030
  C        3.1975750    -0.5187580     0.0000000
  H       -1.2617080     1.9724600     0.0000090
  H        1.3219030    -1.5822740     0.0000070
  H       -3.6212920     0.8920510    -0.0000010
  H       -3.0881120    -1.8301820    -0.0000070
  H        3.4134050     0.5495780    -0.0000070
  H        3.6371680    -0.9759340    -0.8910250
  H        3.6371640    -0.9759210     0.8910330
units angstrom
no_reorient  #important for SAPT in psi4, default
symmetry c1  #important for SAPT in psi4, default
}

set PROPERTIES_ORIGIN ["COM"]
properties('MP2/aug-cc-pvtz', properties = ['dipole'])
--------------------------------------------------------------------------

    Molecular point group: c1
  Charge       = 0
  Multiplicity = 1
  Basis Set: AUG-CC-PVTZ
    Blend: AUG-CC-PVTZ
  Basis Set: (AUG-CC-PVTZ AUX)
    Blend: AUG-CC-PVTZ-JKFIT

    Orbital Energies [Eh]
    ---------------------

    Doubly Occupied:

       1A    -20.528222     2A    -15.633913     3A    -15.593012
       4A    -15.570708     5A    -11.366858     6A    -11.311295
       7A    -11.277197     8A    -11.263249     9A    -11.259154
      10A     -1.387283    11A     -1.348380    12A     -1.240280
      13A     -1.178328    14A     -1.040815    15A     -0.963313
      16A     -0.859763    17A     -0.821611    18A     -0.797575
      19A     -0.773159    20A     -0.668648    21A     -0.651148
      22A     -0.639207    23A     -0.615632    24A     -0.608593
      25A     -0.592912    26A     -0.583692    27A     -0.550860
      28A     -0.537151    29A     -0.466100    30A     -0.442742
      31A     -0.416639    32A     -0.395292    33A     -0.332385

  @DF-RHF Final Energy:  -431.79689006803176

   => Energetics <=

    Nuclear Repulsion Energy =            432.7948115611292792
    One-Electron Energy =               -1445.7531669012528255
    Two-Electron Energy =                 581.1614652720917320
    Total Energy =                       -431.7968900680317574
  Basis Set: (AUG-CC-PVTZ AUX)
    Blend: AUG-CC-PVTZ-RI
    Molecular point group: c1

    Geometry (in Angstrom), charge = 0, multiplicity = 1:

       Center              X                  Y                   Z               Mass
    ------------   -----------------  -----------------  -----------------  -----------------
         O            1.286803595483     1.574593247339    -0.000003992803    15.994914619570
         N           -1.437787404517     0.962017247339     0.000003007197    14.003074004430
         N            1.789225595483    -0.682652752661     0.000000007197    14.003074004430
         N           -1.003413404517    -1.224743752661     0.000000007197    14.003074004430
         C           -0.475701404517     0.001108247339     0.000005007197    12.000000000000
         C            0.950874595483     0.379979247339     0.000000007197    12.000000000000
         C           -2.654291404517     0.333029247339    -0.000000992803    12.000000000000
         C           -2.363658504517    -0.999765952661    -0.000002992803    12.000000000000
         C            3.230093595483    -0.536018752661     0.000000007197    12.000000000000
         H           -1.229189404517     1.955199247339     0.000009007197     1.007825032230
         H            1.354421595483    -1.599534752661     0.000007007197     1.007825032230
         H           -3.588773404517     0.874790247339    -0.000000992803     1.007825032230
         H           -3.055593404517    -1.847442752661    -0.000006992803     1.007825032230
         H            3.445923595483     0.532317247339    -0.000006992803     1.007825032230
         H            3.669686595483    -0.993194752661    -0.891024992803     1.007825032230
         H            3.669682595483    -0.993181752661     0.891033007197     1.007825032230

  Basis Set: AUG-CC-PVTZ
    Blend: AUG-CC-PVTZ
  Basis Set: (AUG-CC-PVTZ AUX)
    Blend: AUG-CC-PVTZ-JKFIT
	 Reference Energy          =    -431.7968900680317574 [Eh]
	 Singles Energy            =      -0.0000000000000000 [Eh]
	 Same-Spin Energy          =      -0.4554370730799879 [Eh]
	 Opposite-Spin Energy      =      -1.3793180644179230 [Eh]
	 Correlation Energy        =      -1.8347551374979110 [Eh]
	 Total Energy              =    -433.6316452055296509 [Eh]

	 ================> DF-SCS-MP2 Energies <==================
	-----------------------------------------------------------
	 SCS Same-Spin Scale       =       0.3333333333333333 [-]
	 SCS Opposite-Spin Scale   =       1.2000000000000000 [-]
	 SCS Same-Spin Energy      =      -0.1518123576933293 [Eh]
	 SCS Opposite-Spin Energy  =      -1.6551816773015076 [Eh]
	 SCS Correlation Energy    =      -1.8069940349948368 [Eh]
	 SCS Total Energy          =    -433.6038841030265871 [Eh]
	-----------------------------------------------------------

  Dipole Moment: [D]
     X:    -0.9570      Y:    -0.3814      Z:     0.0000     Total:     1.0302

*** Psi4 exiting successfully. Buy a developer a beer!
