                               Psi4 1.3.2 release

  ==> Input File <==

--------------------------------------------------------------------------
#psi4
#
memory 32 gb

molecule  {
0 1
  O        1.2542850     1.5918540    -0.0000040
  N       -1.4703060     0.9792780     0.0000030
  N        1.7567070    -0.6653920     0.0000000
  N       -1.0359320    -1.2074830     0.0000000
  C       -0.5082200     0.0183690     0.0000050
  C        0.9183560     0.3972400     0.0000000
  C       -2.6868100     0.3502900    -0.0000010
  C       -2.5348891    -1.0254626    -0.0000032
  C        3.1975750    -0.5187580     0.0000000
  H       -1.2617080     1.9724600     0.0000090
  H        1.3219030    -1.5822740     0.0000070
  H       -3.6212920     0.8920510    -0.0000010
  H       -3.0881120    -1.8301820    -0.0000070
  H        3.4134050     0.5495780    -0.0000070
  H        3.6371680    -0.9759340    -0.8910250
  H        3.6371640    -0.9759210     0.8910330
units angstrom
no_reorient  #important for SAPT in psi4, default
symmetry c1  #important for SAPT in psi4, default
}

set PROPERTIES_ORIGIN ["COM"]
properties('MP2/aug-cc-pvtz', properties = ['dipole'])
--------------------------------------------------------------------------

    Molecular point group: c1
  Charge       = 0
  Multiplicity = 1
  Basis Set: AUG-CC-PVTZ
    Blend: AUG-CC-PVTZ
  Basis Set: (AUG-CC-PVTZ AUX)
    Blend: AUG-CC-PVTZ-JKFIT

    Orbital Energies [Eh]
    ---------------------

    Doubly Occupied:

       1A    -20.530590     2A    -15.630968     3A    -15.593304
       4A    -15.573989     5A    -11.368667     6A    -11.313395
       7A    -11.289371     8A    -11.263435     9A    -11.262917
      10A     -1.387165    11A     -1.335085    12A     -1.240550
      13A     -1.154096    14A     -1.040540    15A     -0.964200
      16A     -0.858493    17A     -0.835303    18A     -0.793466
      19A     -0.772067    20A     -0.667878    21A     -0.651581
      22A     -0.640447    23A     -0.637069    24A     -0.603396
      25A     -0.590755    26A     -0.580809    27A     -0.550905
      28A     -0.536990    29A     -0.457901    30A     -0.435925
      31A     -0.406465    32A     -0.389193    33A     -0.339472

  @DF-RHF Final Energy:  -431.77090911754954

   => Energetics <=

    Nuclear Repulsion Energy =            429.8243893683697365
    One-Electron Energy =               -1439.7978230954081482
    Two-Electron Energy =                 578.2025246094888189
    Total Energy =                       -431.7709091175495359
  Basis Set: (AUG-CC-PVTZ AUX)
    Blend: AUG-CC-PVTZ-RI
    Molecular point group: c1

    Geometry (in Angstrom), charge = 0, multiplicity = 1:

       Center              X                  Y                   Z               Mass
    ------------   -----------------  -----------------  -----------------  -----------------
         O            1.300113674511     1.578715215076    -0.000003973612    15.994914619570
         N           -1.424477325489     0.966139215076     0.000003026388    14.003074004430
         N            1.802535674511    -0.678530784924     0.000000026388    14.003074004430
         N           -0.990103325489    -1.220621784924     0.000000026388    14.003074004430
         C           -0.462391325489     0.005230215076     0.000005026388    12.000000000000
         C            0.964184674511     0.384101215076     0.000000026388    12.000000000000
         C           -2.640981325489     0.337151215076    -0.000000973612    12.000000000000
         C           -2.489060425489    -1.038601384924    -0.000003173612    12.000000000000
         C            3.243403674511    -0.531896784924     0.000000026388    12.000000000000
         H           -1.215879325489     1.959321215076     0.000009026388     1.007825032230
         H            1.367731674511    -1.595412784924     0.000007026388     1.007825032230
         H           -3.575463325489     0.878912215076    -0.000000973612     1.007825032230
         H           -3.042283325489    -1.843320784924    -0.000006973612     1.007825032230
         H            3.459233674511     0.536439215076    -0.000006973612     1.007825032230
         H            3.682996674511    -0.989072784924    -0.891024973612     1.007825032230
         H            3.682992674511    -0.989059784924     0.891033026388     1.007825032230

  Basis Set: AUG-CC-PVTZ
    Blend: AUG-CC-PVTZ
  Basis Set: (AUG-CC-PVTZ AUX)
    Blend: AUG-CC-PVTZ-JKFIT
	 Reference Energy          =    -431.7709091175495359 [Eh]
	 Singles Energy            =      -0.0000000000000000 [Eh]
	 Same-Spin Energy          =      -0.4550236845302122 [Eh]
	 Opposite-Spin Energy      =      -1.3821359080220650 [Eh]
	 Correlation Energy        =      -1.8371595925522772 [Eh]
	 Total Energy              =    -433.6080687101018043 [Eh]

	 ================> DF-SCS-MP2 Energies <==================
	-----------------------------------------------------------
	 SCS Same-Spin Scale       =       0.3333333333333333 [-]
	 SCS Opposite-Spin Scale   =       1.2000000000000000 [-]
	 SCS Same-Spin Energy      =      -0.1516745615100707 [Eh]
	 SCS Opposite-Spin Energy  =      -1.6585630896264780 [Eh]
	 SCS Correlation Energy    =      -1.8102376511365488 [Eh]
	 SCS Total Energy          =    -433.5811467686860965 [Eh]
	-----------------------------------------------------------

  Dipole Moment: [D]
     X:    -0.9033      Y:    -0.3940      Z:     0.0000     Total:     0.9855

*** Psi4 exiting successfully. Buy a developer a beer!
