                               Psi4 1.3.2 release

  ==> Input File <==

--------------------------------------------------------------------------
#psi4
#
memory 32 gb

molecule  {
0 1
  O        1.3773159     1.5501956    -0.0000042
  N       -1.4703060     0.9792780     0.0000030
  N        1.7567070    -0.6653920     0.0000000
  N       -1.0359320    -1.2074830     0.0000000
  C       -0.5082200     0.0183690     0.0000050
  C        0.9183560     0.3972400     0.0000000
  C       -2.6868100     0.3502900    -0.0000010
  C       -2.3919160    -1.0020460    -0.0000030
  C        3.1975750    -0.5187580     0.0000000
  H       -1.2617080     1.9724600     0.0000090
  H        1.3219030    -1.5822740     0.0000070
  H       -3.6212920     0.8920510    -0.0000010
  H       -3.0881120    -1.8301820    -0.0000070
  H        3.4134050     0.5495780    -0.0000070
  H        3.6371680    -0.9759340    -0.8910250
  H        3.6371640    -0.9759210     0.8910330
units angstrom
no_reorient  #important for SAPT in psi4, default
symmetry c1  #important for SAPT in psi4, default
}

set PROPERTIES_ORIGIN ["COM"]
properties('MP2/aug-cc-pvtz', properties = ['dipole'])
--------------------------------------------------------------------------

    Molecular point group: c1
  Charge       = 0
  Multiplicity = 1
  Basis Set: AUG-CC-PVTZ
    Blend: AUG-CC-PVTZ
  Basis Set: (AUG-CC-PVTZ AUX)
    Blend: AUG-CC-PVTZ-JKFIT

    Orbital Energies [Eh]
    ---------------------

    Doubly Occupied:

       1A    -20.524424     2A    -15.640487     3A    -15.585679
       4A    -15.575286     5A    -11.365035     6A    -11.316206
       7A    -11.283454     8A    -11.264416     9A    -11.257325
      10A     -1.386528    11A     -1.352646    12A     -1.231352
      13A     -1.184033    14A     -1.042554    15A     -0.959356
      16A     -0.860614    17A     -0.829044    18A     -0.799219
      19A     -0.769302    20A     -0.670109    21A     -0.648659
      22A     -0.638435    23A     -0.617730    24A     -0.607842
      25A     -0.598227    26A     -0.586466    27A     -0.543325
      28A     -0.534516    29A     -0.467621    30A     -0.440988
      31A     -0.420784    32A     -0.390410    33A     -0.332483

  @DF-RHF Final Energy:  -431.79341619429169

   => Energetics <=

    Nuclear Repulsion Energy =            432.3449059267994130
    One-Electron Energy =               -1444.8275411972435904
    Two-Electron Energy =                 580.6892190761525399
    Total Energy =                       -431.7934161942916944
  Basis Set: (AUG-CC-PVTZ AUX)
    Blend: AUG-CC-PVTZ-RI
    Molecular point group: c1

    Geometry (in Angstrom), charge = 0, multiplicity = 1:

       Center              X                  Y                   Z               Mass
    ------------   -----------------  -----------------  -----------------  -----------------
         O            1.393690088730     1.540137949763    -0.000004167223    15.994914619570
         N           -1.453931811270     0.969220349763     0.000003032777    14.003074004430
         N            1.773081188730    -0.675449650237     0.000000032777    14.003074004430
         N           -1.019557811270    -1.217540650237     0.000000032777    14.003074004430
         C           -0.491845811270     0.008311349763     0.000005032777    12.000000000000
         C            0.934730188730     0.387182349763     0.000000032777    12.000000000000
         C           -2.670435811270     0.340232349763    -0.000000967223    12.000000000000
         C           -2.375541811270    -1.012103650237    -0.000002967223    12.000000000000
         C            3.213949188730    -0.528815650237     0.000000032777    12.000000000000
         H           -1.245333811270     1.962402349763     0.000009032777     1.007825032230
         H            1.338277188730    -1.592331650237     0.000007032777     1.007825032230
         H           -3.604917811270     0.881993349763    -0.000000967223     1.007825032230
         H           -3.071737811270    -1.840239650237    -0.000006967223     1.007825032230
         H            3.429779188730     0.539520349763    -0.000006967223     1.007825032230
         H            3.653542188730    -0.985991650237    -0.891024967223     1.007825032230
         H            3.653538188730    -0.985978650237     0.891033032777     1.007825032230

  Basis Set: AUG-CC-PVTZ
    Blend: AUG-CC-PVTZ
  Basis Set: (AUG-CC-PVTZ AUX)
    Blend: AUG-CC-PVTZ-JKFIT
	 Reference Energy          =    -431.7934161942916944 [Eh]
	 Singles Energy            =      -0.0000000000000000 [Eh]
	 Same-Spin Energy          =      -0.4560775759752744 [Eh]
	 Opposite-Spin Energy      =      -1.3800766971426524 [Eh]
	 Correlation Energy        =      -1.8361542731179268 [Eh]
	 Total Energy              =    -433.6295704674096214 [Eh]

	 ================> DF-SCS-MP2 Energies <==================
	-----------------------------------------------------------
	 SCS Same-Spin Scale       =       0.3333333333333333 [-]
	 SCS Opposite-Spin Scale   =       1.2000000000000000 [-]
	 SCS Same-Spin Energy      =      -0.1520258586584248 [Eh]
	 SCS Opposite-Spin Energy  =      -1.6560920365711829 [Eh]
	 SCS Correlation Energy    =      -1.8081178952296075 [Eh]
	 SCS Total Energy          =    -433.6015340895212944 [Eh]
	-----------------------------------------------------------

  Dipole Moment: [D]
     X:    -1.4501      Y:    -0.3116      Z:     0.0000     Total:     1.4832

*** Psi4 exiting successfully. Buy a developer a beer!
