                               Psi4 1.4a3.dev225

  ==> Input File <==

--------------------------------------------------------------------------
#psi4
#
memory 32 gb

molecule  {
0 1
  O        1.2542850     1.5918540    -0.0000040
  N       -1.4703060     0.9792780     0.0000030
  N        1.7567070    -0.6653920     0.0000000
  N       -1.0359320    -1.2074830     0.0000000
  C       -0.5082200     0.0183690     0.0000050
  C        0.9183560     0.3972400     0.0000000
  C       -2.6868100     0.3502900    -0.0000010
  C       -2.4413519    -0.9945563    -0.0000031
  C        3.1975750    -0.5187580     0.0000000
  H       -1.2617080     1.9724600     0.0000090
  H        1.3219030    -1.5822740     0.0000070
  H       -3.6212920     0.8920510    -0.0000010
  H       -3.0881120    -1.8301820    -0.0000070
  H        3.4134050     0.5495780    -0.0000070
  H        3.6371680    -0.9759340    -0.8910250
  H        3.6371640    -0.9759210     0.8910330
units angstrom
no_reorient  #important for SAPT in psi4, default
symmetry c1  #important for SAPT in psi4, default
}

set PROPERTIES_ORIGIN ["COM"]
properties('MP2/aug-cc-pvtz', properties = ['dipole'])
--------------------------------------------------------------------------

    Molecular point group: c1
  Charge       = 0
  Multiplicity = 1
  Basis Set: AUG-CC-PVTZ
    Blend: AUG-CC-PVTZ
  Basis Set: (AUG-CC-PVTZ AUX)
    Blend: AUG-CC-PVTZ-JKFIT

    Orbital Energies [Eh]
    ---------------------

    Doubly Occupied:

       1A    -20.529051     2A    -15.632384     3A    -15.593138
       4A    -15.571892     5A    -11.367474     6A    -11.311995
       7A    -11.280201     8A    -11.263323     9A    -11.259734
      10A     -1.387003    11A     -1.343318    12A     -1.240362
      13A     -1.169330    14A     -1.041103    15A     -0.963656
      16A     -0.858105    17A     -0.825257    18A     -0.796087
      19A     -0.772864    20A     -0.668029    21A     -0.650682
      22A     -0.638259    23A     -0.619853    24A     -0.606680
      25A     -0.593731    26A     -0.585899    27A     -0.550947
      28A     -0.537080    29A     -0.463378    30A     -0.441863
      31A     -0.411972    32A     -0.393885    33A     -0.335189

  @DF-RHF Final Energy:  -431.79448993439598

   => Energetics <=

    Nuclear Repulsion Energy =            431.8254860896772698
    One-Electron Energy =               -1443.8324973185915496
    Two-Electron Energy =                 580.2125212945182966
    Total Energy =                       -431.7944899343959833
  Basis Set: (AUG-CC-PVTZ AUX)
    Blend: AUG-CC-PVTZ-RI
    Molecular point group: c1

    Geometry (in Angstrom), charge = 0, multiplicity = 1:

       Center              X                  Y                   Z               Mass
    ------------   -----------------  -----------------  -----------------  -----------------
         O            1.291138333343     1.575749607952    -0.000003983208    15.994914619570
         N           -1.433452666657     0.963173607952     0.000003016792    14.003074004430
         N            1.793560333343    -0.681496392048     0.000000016792    14.003074004430
         N           -0.999078666657    -1.223587392048     0.000000016792    14.003074004430
         C           -0.471366666657     0.002264607952     0.000005016792    12.000000000000
         C            0.955209333343     0.381135607952     0.000000016792    12.000000000000
         C           -2.649956666657     0.334185607952    -0.000000983208    12.000000000000
         C           -2.404498566657    -1.010660692048    -0.000003083208    12.000000000000
         C            3.234428333343    -0.534862392048     0.000000016792    12.000000000000
         H           -1.224854666657     1.956355607952     0.000009016792     1.007825032230
         H            1.358756333343    -1.598378392048     0.000007016792     1.007825032230
         H           -3.584438666657     0.875946607952    -0.000000983208     1.007825032230
         H           -3.051258666657    -1.846286392048    -0.000006983208     1.007825032230
         H            3.450258333343     0.533473607952    -0.000006983208     1.007825032230
         H            3.674021333343    -0.992038392048    -0.891024983208     1.007825032230
         H            3.674017333343    -0.992025392048     0.891033016792     1.007825032230

  Basis Set: AUG-CC-PVTZ
    Blend: AUG-CC-PVTZ
  Basis Set: (AUG-CC-PVTZ AUX)
    Blend: AUG-CC-PVTZ-JKFIT
	 Reference Energy          =    -431.7944899343959833 [Eh]
	 Singles Energy            =      -0.0000000000000000 [Eh]
	 Same-Spin Energy          =      -0.4551453156862739 [Eh]
	 Opposite-Spin Energy      =      -1.3798354343305310 [Eh]
	 Correlation Energy        =      -1.8349807500168049 [Eh]
	 Total Energy              =    -433.6294706844128086 [Eh]

	 ================> DF-SCS-MP2 Energies <==================
	-----------------------------------------------------------
	 SCS Same-Spin Scale       =       0.3333333333333333 [-]
	 SCS Opposite-Spin Scale   =       1.2000000000000000 [-]
	 SCS Same-Spin Energy      =      -0.1517151052287579 [Eh]
	 SCS Opposite-Spin Energy  =      -1.6558025211966372 [Eh]
	 SCS Correlation Energy    =      -1.8075176264253952 [Eh]
	 SCS Total Energy          =    -433.6020075608213915 [Eh]
	-----------------------------------------------------------

  Dipole Moment: [D]
     X:    -0.9508      Y:    -0.3913      Z:     0.0000     Total:     1.0282

*** Psi4 exiting successfully. Buy a developer a beer!
