                               Psi4 1.3.2 release

  ==> Input File <==

--------------------------------------------------------------------------
#psi4
#
memory 32 gb

molecule  {
0 1
  O        1.2542850     1.5918540    -0.0000040
  N       -1.4595139     0.9579513     0.0000030
  N        1.7567070    -0.6653920     0.0000000
  N       -1.0359320    -1.2074830     0.0000000
  C       -0.5082200     0.0183690     0.0000050
  C        0.9183560     0.3972400     0.0000000
  C       -2.6868100     0.3502900    -0.0000010
  C       -2.3919160    -1.0020460    -0.0000030
  C        3.1975750    -0.5187580     0.0000000
  H       -1.2617080     1.9724600     0.0000090
  H        1.3219030    -1.5822740     0.0000070
  H       -3.6212920     0.8920510    -0.0000010
  H       -3.0881120    -1.8301820    -0.0000070
  H        3.4134050     0.5495780    -0.0000070
  H        3.6371680    -0.9759340    -0.8910250
  H        3.6371640    -0.9759210     0.8910330
units angstrom
no_reorient  #important for SAPT in psi4, default
symmetry c1  #important for SAPT in psi4, default
}

set PROPERTIES_ORIGIN ["COM"]
properties('MP2/aug-cc-pvtz', properties = ['dipole'])
--------------------------------------------------------------------------

    Molecular point group: c1
  Charge       = 0
  Multiplicity = 1
  Basis Set: AUG-CC-PVTZ
    Blend: AUG-CC-PVTZ
  Basis Set: (AUG-CC-PVTZ AUX)
    Blend: AUG-CC-PVTZ-JKFIT

    Orbital Energies [Eh]
    ---------------------

    Doubly Occupied:

       1A    -20.528017     2A    -15.636889     3A    -15.592707
       4A    -15.567889     5A    -11.366674     6A    -11.308139
       7A    -11.277831     8A    -11.263052     9A    -11.260457
      10A     -1.388357    11A     -1.351868    12A     -1.239999
      13A     -1.177891    14A     -1.040397    15A     -0.962526
      16A     -0.856239    17A     -0.823300    18A     -0.799531
      19A     -0.773303    20A     -0.668998    21A     -0.650978
      22A     -0.640448    23A     -0.611699    24A     -0.609993
      25A     -0.596584    26A     -0.586676    27A     -0.550625
      28A     -0.536937    29A     -0.462730    30A     -0.442400
      31A     -0.416523    32A     -0.395234    33A     -0.329682

  @DF-RHF Final Energy:  -431.79633814418384

   => Energetics <=

    Nuclear Repulsion Energy =            433.1321036132053450
    One-Electron Energy =               -1446.4277374285738915
    Two-Electron Energy =                 581.4992956711846546
    Total Energy =                       -431.7963381441838919
  Basis Set: (AUG-CC-PVTZ AUX)
    Blend: AUG-CC-PVTZ-RI
    Molecular point group: c1

    Geometry (in Angstrom), charge = 0, multiplicity = 1:

       Center              X                  Y                   Z               Mass
    ------------   -----------------  -----------------  -----------------  -----------------
         O            1.285186311501     1.578856269865    -0.000003992803    15.994914619570
         N           -1.428612588499     0.944953569865     0.000003007197    14.003074004430
         N            1.787608311501    -0.678389730135     0.000000007197    14.003074004430
         N           -1.005030688499    -1.220480730135     0.000000007197    14.003074004430
         C           -0.477318688499     0.005371269865     0.000005007197    12.000000000000
         C            0.949257311501     0.384242269865     0.000000007197    12.000000000000
         C           -2.655908688499     0.337292269865    -0.000000992803    12.000000000000
         C           -2.361014688499    -1.015043730135    -0.000002992803    12.000000000000
         C            3.228476311501    -0.531755730135     0.000000007197    12.000000000000
         H           -1.230806688499     1.959462269865     0.000009007197     1.007825032230
         H            1.352804311501    -1.595271730135     0.000007007197     1.007825032230
         H           -3.590390688499     0.879053269865    -0.000000992803     1.007825032230
         H           -3.057210688499    -1.843179730135    -0.000006992803     1.007825032230
         H            3.444306311501     0.536580269865    -0.000006992803     1.007825032230
         H            3.668069311501    -0.988931730135    -0.891024992803     1.007825032230
         H            3.668065311501    -0.988918730135     0.891033007197     1.007825032230

  Basis Set: AUG-CC-PVTZ
    Blend: AUG-CC-PVTZ
  Basis Set: (AUG-CC-PVTZ AUX)
    Blend: AUG-CC-PVTZ-JKFIT
	 Reference Energy          =    -431.7963381441838351 [Eh]
	 Singles Energy            =      -0.0000000000000000 [Eh]
	 Same-Spin Energy          =      -0.4558005334817065 [Eh]
	 Opposite-Spin Energy      =      -1.3794714984031786 [Eh]
	 Correlation Energy        =      -1.8352720318848852 [Eh]
	 Total Energy              =    -433.6316101760687047 [Eh]

	 ================> DF-SCS-MP2 Energies <==================
	-----------------------------------------------------------
	 SCS Same-Spin Scale       =       0.3333333333333333 [-]
	 SCS Opposite-Spin Scale   =       1.2000000000000000 [-]
	 SCS Same-Spin Energy      =      -0.1519335111605688 [Eh]
	 SCS Opposite-Spin Energy  =      -1.6553657980838143 [Eh]
	 SCS Correlation Energy    =      -1.8072993092443832 [Eh]
	 SCS Total Energy          =    -433.6036374534282345 [Eh]
	-----------------------------------------------------------

  Dipole Moment: [D]
     X:    -0.9737      Y:    -0.3433      Z:     0.0000     Total:     1.0324

*** Psi4 exiting successfully. Buy a developer a beer!
