                               Psi4 1.3.2 release

  ==> Input File <==

--------------------------------------------------------------------------
#psi4
#
memory 32 gb

molecule  {
0 1
  O        1.2542850     1.5918540    -0.0000040
  N       -1.4361847     1.0122690     0.0000028
  N        1.7567070    -0.6653920     0.0000000
  N       -1.0359320    -1.2074830     0.0000000
  C       -0.5082200     0.0183690     0.0000050
  C        0.9183560     0.3972400     0.0000000
  C       -2.6868100     0.3502900    -0.0000010
  C       -2.3919160    -1.0020460    -0.0000030
  C        3.1975750    -0.5187580     0.0000000
  H       -1.2617080     1.9724600     0.0000090
  H        1.3219030    -1.5822740     0.0000070
  H       -3.6212920     0.8920510    -0.0000010
  H       -3.0881120    -1.8301820    -0.0000070
  H        3.4134050     0.5495780    -0.0000070
  H        3.6371680    -0.9759340    -0.8910250
  H        3.6371640    -0.9759210     0.8910330
units angstrom
no_reorient  #important for SAPT in psi4, default
symmetry c1  #important for SAPT in psi4, default
}

set PROPERTIES_ORIGIN ["COM"]
properties('MP2/aug-cc-pvtz', properties = ['dipole'])
--------------------------------------------------------------------------

    Molecular point group: c1
  Charge       = 0
  Multiplicity = 1
  Basis Set: AUG-CC-PVTZ
    Blend: AUG-CC-PVTZ
  Basis Set: (AUG-CC-PVTZ AUX)
    Blend: AUG-CC-PVTZ-JKFIT

    Orbital Energies [Eh]
    ---------------------

    Doubly Occupied:

       1A    -20.527953     2A    -15.632175     3A    -15.592834
       4A    -15.571548     5A    -11.365855     6A    -11.315021
       7A    -11.282306     8A    -11.264498     9A    -11.263043
      10A     -1.386445    11A     -1.340903    12A     -1.240057
      13A     -1.181873    14A     -1.036375    15A     -0.961666
      16A     -0.865335    17A     -0.825468    18A     -0.797676
      19A     -0.772365    20A     -0.661628    21A     -0.651646
      22A     -0.637761    23A     -0.622582    24A     -0.604974
      25A     -0.593792    26A     -0.584646    27A     -0.550644
      28A     -0.535333    29A     -0.465833    30A     -0.442729
      31A     -0.418060    32A     -0.395394    33A     -0.330870

  @DF-RHF Final Energy:  -431.79362738599150

   => Energetics <=

    Nuclear Repulsion Energy =            432.1416611794575147
    One-Electron Energy =               -1444.4320041818136815
    Two-Electron Energy =                 580.4967156163646678
    Total Energy =                       -431.7936273859914991
  Basis Set: (AUG-CC-PVTZ AUX)
    Blend: AUG-CC-PVTZ-RI
    Molecular point group: c1

    Geometry (in Angstrom), charge = 0, multiplicity = 1:

       Center              X                  Y                   Z               Mass
    ------------   -----------------  -----------------  -----------------  -----------------
         O            1.282574098511     1.572774218122    -0.000003970409    15.994914619570
         N           -1.407895601489     0.993189218122     0.000002829591    14.003074004430
         N            1.784996098511    -0.684471781878     0.000000029591    14.003074004430
         N           -1.007642901489    -1.226562781878     0.000000029591    14.003074004430
         C           -0.479930901489    -0.000710781878     0.000005029591    12.000000000000
         C            0.946645098511     0.378160218122     0.000000029591    12.000000000000
         C           -2.658520901489     0.331210218122    -0.000000970409    12.000000000000
         C           -2.363626901489    -1.021125781878    -0.000002970409    12.000000000000
         C            3.225864098511    -0.537837781878     0.000000029591    12.000000000000
         H           -1.233418901489     1.953380218122     0.000009029591     1.007825032230
         H            1.350192098511    -1.601353781878     0.000007029591     1.007825032230
         H           -3.593002901489     0.872971218122    -0.000000970409     1.007825032230
         H           -3.059822901489    -1.849261781878    -0.000006970409     1.007825032230
         H            3.441694098511     0.530498218122    -0.000006970409     1.007825032230
         H            3.665457098511    -0.995013781878    -0.891024970409     1.007825032230
         H            3.665453098511    -0.995000781878     0.891033029591     1.007825032230

  Basis Set: AUG-CC-PVTZ
    Blend: AUG-CC-PVTZ
  Basis Set: (AUG-CC-PVTZ AUX)
    Blend: AUG-CC-PVTZ-JKFIT
	 Reference Energy          =    -431.7936273859914991 [Eh]
	 Singles Energy            =      -0.0000000000000000 [Eh]
	 Same-Spin Energy          =      -0.4551546611820596 [Eh]
	 Opposite-Spin Energy      =      -1.3797918111135008 [Eh]
	 Correlation Energy        =      -1.8349464722955604 [Eh]
	 Total Energy              =    -433.6285738582870408 [Eh]

	 ================> DF-SCS-MP2 Energies <==================
	-----------------------------------------------------------
	 SCS Same-Spin Scale       =       0.3333333333333333 [-]
	 SCS Opposite-Spin Scale   =       1.2000000000000000 [-]
	 SCS Same-Spin Energy      =      -0.1517182203940199 [Eh]
	 SCS Opposite-Spin Energy  =      -1.6557501733362010 [Eh]
	 SCS Correlation Energy    =      -1.8074683937302209 [Eh]
	 SCS Total Energy          =    -433.6010957797217316 [Eh]
	-----------------------------------------------------------

  Dipole Moment: [D]
     X:    -0.9825      Y:    -0.5109      Z:     0.0000     Total:     1.1074

*** Psi4 exiting successfully. Buy a developer a beer!
