                               Psi4 1.3.2 release

  ==> Input File <==

--------------------------------------------------------------------------
#psi4
#
memory 32 gb

molecule  {
0 1
  O        1.2542850     1.5918540    -0.0000040
  N       -1.4703060     0.9792780     0.0000030
  N        1.7567070    -0.6653920     0.0000000
  N       -1.0359320    -1.2074830     0.0000000
  C       -0.5082200     0.0183690     0.0000050
  C        0.9183560     0.3972400     0.0000000
  C       -2.8265521     0.3120569    -0.0000015
  C       -2.3919160    -1.0020460    -0.0000030
  C        3.1975750    -0.5187580     0.0000000
  H       -1.2617080     1.9724600     0.0000090
  H        1.3219030    -1.5822740     0.0000070
  H       -3.6212920     0.8920510    -0.0000010
  H       -3.0881120    -1.8301820    -0.0000070
  H        3.4134050     0.5495780    -0.0000070
  H        3.6371680    -0.9759340    -0.8910250
  H        3.6371640    -0.9759210     0.8910330
units angstrom
no_reorient  #important for SAPT in psi4, default
symmetry c1  #important for SAPT in psi4, default
}

set PROPERTIES_ORIGIN ["COM"]
properties('MP2/aug-cc-pvtz', properties = ['dipole'])
--------------------------------------------------------------------------

    Molecular point group: c1
  Charge       = 0
  Multiplicity = 1
  Basis Set: AUG-CC-PVTZ
    Blend: AUG-CC-PVTZ
  Basis Set: (AUG-CC-PVTZ AUX)
    Blend: AUG-CC-PVTZ-JKFIT

    Orbital Energies [Eh]
    ---------------------

    Doubly Occupied:

       1A    -20.531422     2A    -15.626617     3A    -15.596701
       4A    -15.568279     5A    -11.370277     6A    -11.321101
       7A    -11.280843     8A    -11.271977     9A    -11.265343
      10A     -1.387346    11A     -1.326149    12A     -1.242511
      13A     -1.163484    14A     -1.039902    15A     -0.967712
      16A     -0.862971    17A     -0.822354    18A     -0.791530
      19A     -0.774916    20A     -0.669089    21A     -0.655298
      22A     -0.637418    23A     -0.630828    24A     -0.597856
      25A     -0.588846    26A     -0.568249    27A     -0.553094
      28A     -0.535054    29A     -0.466704    30A     -0.445433
      31A     -0.410219    32A     -0.395448    33A     -0.338168

  @DF-RHF Final Energy:  -431.77027621924890

   => Energetics <=

    Nuclear Repulsion Energy =            429.8348593062415262
    One-Electron Energy =               -1439.8039939840914485
    Two-Electron Energy =                 578.1988584586010802
    Total Energy =                       -431.7702762192488990
  Basis Set: (AUG-CC-PVTZ AUX)
    Blend: AUG-CC-PVTZ-RI
    Molecular point group: c1

    Geometry (in Angstrom), charge = 0, multiplicity = 1:

       Center              X                  Y                   Z               Mass
    ------------   -----------------  -----------------  -----------------  -----------------
         O            1.299803644626     1.580136929030    -0.000003944826    15.994914619570
         N           -1.424787355374     0.967560929030     0.000003055174    14.003074004430
         N            1.802225644626    -0.677109070970     0.000000055174    14.003074004430
         N           -0.990413355374    -1.219200070970     0.000000055174    14.003074004430
         C           -0.462701355374     0.006651929030     0.000005055174    12.000000000000
         C            0.963874644626     0.385522929030     0.000000055174    12.000000000000
         C           -2.781033455374     0.300339829030    -0.000001444826    12.000000000000
         C           -2.346397355374    -1.013763070970    -0.000002944826    12.000000000000
         C            3.243093644626    -0.530475070970     0.000000055174    12.000000000000
         H           -1.216189355374     1.960742929030     0.000009055174     1.007825032230
         H            1.367421644626    -1.593991070970     0.000007055174     1.007825032230
         H           -3.575773355374     0.880333929030    -0.000000944826     1.007825032230
         H           -3.042593355374    -1.841899070970    -0.000006944826     1.007825032230
         H            3.458923644626     0.537860929030    -0.000006944826     1.007825032230
         H            3.682686644626    -0.987651070970    -0.891024944826     1.007825032230
         H            3.682682644626    -0.987638070970     0.891033055174     1.007825032230

  Basis Set: AUG-CC-PVTZ
    Blend: AUG-CC-PVTZ
  Basis Set: (AUG-CC-PVTZ AUX)
    Blend: AUG-CC-PVTZ-JKFIT
	 Reference Energy          =    -431.7702762192488990 [Eh]
	 Singles Energy            =      -0.0000000000000000 [Eh]
	 Same-Spin Energy          =      -0.4552639307298246 [Eh]
	 Opposite-Spin Energy      =      -1.3822038814002267 [Eh]
	 Correlation Energy        =      -1.8374678121300514 [Eh]
	 Total Energy              =    -433.6077440313789566 [Eh]

	 ================> DF-SCS-MP2 Energies <==================
	-----------------------------------------------------------
	 SCS Same-Spin Scale       =       0.3333333333333333 [-]
	 SCS Opposite-Spin Scale   =       1.2000000000000000 [-]
	 SCS Same-Spin Energy      =      -0.1517546435766082 [Eh]
	 SCS Opposite-Spin Energy  =      -1.6586446576802720 [Eh]
	 SCS Correlation Energy    =      -1.8103993012568802 [Eh]
	 SCS Total Energy          =    -433.5806755205057925 [Eh]
	-----------------------------------------------------------

  Dipole Moment: [D]
     X:    -0.8729      Y:    -0.5209      Z:     0.0000     Total:     1.0165

*** Psi4 exiting successfully. Buy a developer a beer!
