                               Psi4 1.3.2 release

  ==> Input File <==

--------------------------------------------------------------------------
#psi4
#
memory 32 gb

molecule  {
0 1
  O        1.2542850     1.5918540    -0.0000040
  N       -1.4703060     0.9792780     0.0000030
  N        1.7567070    -0.6653920     0.0000000
  N       -1.0359320    -1.2074830     0.0000000
  C       -0.5082200     0.0183690     0.0000050
  C        0.9183560     0.3972400     0.0000000
  C       -2.6868100     0.3502900    -0.0000010
  C       -2.1941726    -1.0320049    -0.0000026
  C        3.1975750    -0.5187580     0.0000000
  H       -1.2617080     1.9724600     0.0000090
  H        1.3219030    -1.5822740     0.0000070
  H       -3.6212920     0.8920510    -0.0000010
  H       -3.0881120    -1.8301820    -0.0000070
  H        3.4134050     0.5495780    -0.0000070
  H        3.6371680    -0.9759340    -0.8910250
  H        3.6371640    -0.9759210     0.8910330
units angstrom
no_reorient  #important for SAPT in psi4, default
symmetry c1  #important for SAPT in psi4, default
}

set PROPERTIES_ORIGIN ["COM"]
properties('MP2/aug-cc-pvtz', properties = ['dipole'])
--------------------------------------------------------------------------

    Molecular point group: c1
  Charge       = 0
  Multiplicity = 1
  Basis Set: AUG-CC-PVTZ
    Blend: AUG-CC-PVTZ
  Basis Set: (AUG-CC-PVTZ AUX)
    Blend: AUG-CC-PVTZ-JKFIT

    Orbital Energies [Eh]
    ---------------------

    Doubly Occupied:

       1A    -20.520657     2A    -15.652850     3A    -15.589215
       4A    -15.564176     5A    -11.361499     6A    -11.302961
       7A    -11.280418     8A    -11.267006     9A    -11.261054
      10A     -1.400006    11A     -1.367612    12A     -1.242807
      13A     -1.229181    14A     -1.029485    15A     -0.954636
      16A     -0.877058    17A     -0.818437    18A     -0.801925
      19A     -0.769733    20A     -0.673115    21A     -0.654148
      22A     -0.647383    23A     -0.624133    24A     -0.615239
      25A     -0.593011    26A     -0.578916    27A     -0.547358
      28A     -0.535334    29A     -0.459036    30A     -0.446898
      31A     -0.437284    32A     -0.395569    33A     -0.304625

  @DF-RHF Final Energy:  -431.73705170980583

   => Energetics <=

    Nuclear Repulsion Energy =            436.0730435423471363
    One-Electron Energy =               -1452.0146575882154139
    Two-Electron Energy =                 584.2045623360625086
    Total Energy =                       -431.7370517098057690
  Basis Set: (AUG-CC-PVTZ AUX)
    Blend: AUG-CC-PVTZ-RI
    Molecular point group: c1

    Geometry (in Angstrom), charge = 0, multiplicity = 1:

       Center              X                  Y                   Z               Mass
    ------------   -----------------  -----------------  -----------------  -----------------
         O            1.267420298731     1.579342980014    -0.000004031185    15.994914619570
         N           -1.457170701269     0.966766980014     0.000002968815    14.003074004430
         N            1.769842298731    -0.677903019986    -0.000000031185    14.003074004430
         N           -1.022796701269    -1.219994019986    -0.000000031185    14.003074004430
         C           -0.495084701269     0.005857980014     0.000004968815    12.000000000000
         C            0.931491298731     0.384728980014    -0.000000031185    12.000000000000
         C           -2.673674701269     0.337778980014    -0.000001031185    12.000000000000
         C           -2.181037301269    -1.044515919986    -0.000002631185    12.000000000000
         C            3.210710298731    -0.531269019986    -0.000000031185    12.000000000000
         H           -1.248572701269     1.959948980014     0.000008968815     1.007825032230
         H            1.335038298731    -1.594785019986     0.000006968815     1.007825032230
         H           -3.608156701269     0.879539980014    -0.000001031185     1.007825032230
         H           -3.074976701269    -1.842693019986    -0.000007031185     1.007825032230
         H            3.426540298731     0.537066980014    -0.000007031185     1.007825032230
         H            3.650303298731    -0.988445019986    -0.891025031185     1.007825032230
         H            3.650299298731    -0.988432019986     0.891032968815     1.007825032230

  Basis Set: AUG-CC-PVTZ
    Blend: AUG-CC-PVTZ
  Basis Set: (AUG-CC-PVTZ AUX)
    Blend: AUG-CC-PVTZ-JKFIT
	 Reference Energy          =    -431.7370517098058258 [Eh]
	 Singles Energy            =      -0.0000000000000000 [Eh]
	 Same-Spin Energy          =      -0.4582235502403670 [Eh]
	 Opposite-Spin Energy      =      -1.3812931480715542 [Eh]
	 Correlation Energy        =      -1.8395166983119213 [Eh]
	 Total Energy              =    -433.5765684081177369 [Eh]

	 ================> DF-SCS-MP2 Energies <==================
	-----------------------------------------------------------
	 SCS Same-Spin Scale       =       0.3333333333333333 [-]
	 SCS Opposite-Spin Scale   =       1.2000000000000000 [-]
	 SCS Same-Spin Energy      =      -0.1527411834134557 [Eh]
	 SCS Opposite-Spin Energy  =      -1.6575517776858650 [Eh]
	 SCS Correlation Energy    =      -1.8102929610993206 [Eh]
	 SCS Total Energy          =    -433.5473446709051473 [Eh]
	-----------------------------------------------------------

  Dipole Moment: [D]
     X:    -0.9342      Y:    -0.4967      Z:     0.0000     Total:     1.0580

*** Psi4 exiting successfully. Buy a developer a beer!
