                               Psi4 1.3.2 release

  ==> Input File <==

--------------------------------------------------------------------------
#psi4
#
memory 32 gb

molecule  {
0 1
  O        1.2542850     1.5918540    -0.0000040
  N       -1.4703060     0.9792780     0.0000030
  N        1.7567070    -0.6653920     0.0000000
  N       -1.0359320    -1.2074830     0.0000000
  C       -0.5775932    -0.0464020     0.0000042
  C        0.9183560     0.3972400     0.0000000
  C       -2.6868100     0.3502900    -0.0000010
  C       -2.3919160    -1.0020460    -0.0000030
  C        3.1975750    -0.5187580     0.0000000
  H       -1.2617080     1.9724600     0.0000090
  H        1.3219030    -1.5822740     0.0000070
  H       -3.6212920     0.8920510    -0.0000010
  H       -3.0881120    -1.8301820    -0.0000070
  H        3.4134050     0.5495780    -0.0000070
  H        3.6371680    -0.9759340    -0.8910250
  H        3.6371640    -0.9759210     0.8910330
units angstrom
no_reorient  #important for SAPT in psi4, default
symmetry c1  #important for SAPT in psi4, default
}

set PROPERTIES_ORIGIN ["COM"]
properties('MP2/aug-cc-pvtz', properties = ['dipole'])
--------------------------------------------------------------------------

    Molecular point group: c1
  Charge       = 0
  Multiplicity = 1
  Basis Set: AUG-CC-PVTZ
    Blend: AUG-CC-PVTZ
  Basis Set: (AUG-CC-PVTZ AUX)
    Blend: AUG-CC-PVTZ-JKFIT

    Orbital Energies [Eh]
    ---------------------

    Doubly Occupied:

       1A    -20.529682     2A    -15.626519     3A    -15.592810
       4A    -15.564222     5A    -11.368811     6A    -11.309002
       7A    -11.277612     8A    -11.262874     9A    -11.257913
      10A     -1.387487    11A     -1.360109    12A     -1.239575
      13A     -1.200006    14A     -1.029565    15A     -0.960454
      16A     -0.847017    17A     -0.828531    18A     -0.798653
      19A     -0.770943    20A     -0.665697    21A     -0.649168
      22A     -0.639743    23A     -0.619307    24A     -0.613035
      25A     -0.596700    26A     -0.574220    27A     -0.550635
      28A     -0.536107    29A     -0.477969    30A     -0.433185
      31A     -0.428428    32A     -0.395999    33A     -0.330846

  @DF-RHF Final Energy:  -431.79006163282833

   => Energetics <=

    Nuclear Repulsion Energy =            432.9668750503025194
    One-Electron Energy =               -1446.0682203671310617
    Two-Electron Energy =                 581.3112836840002728
    Total Energy =                       -431.7900616328282695
  Basis Set: (AUG-CC-PVTZ AUX)
    Blend: AUG-CC-PVTZ-RI
    Molecular point group: c1

    Geometry (in Angstrom), charge = 0, multiplicity = 1:

       Center              X                  Y                   Z               Mass
    ------------   -----------------  -----------------  -----------------  -----------------
         O            1.293051412519     1.582683367307    -0.000003916039    15.994914619570
         N           -1.431539587481     0.970107367307     0.000003083961    14.003074004430
         N            1.795473412519    -0.674562632693     0.000000083961    14.003074004430
         N           -0.997165587481    -1.216653632693     0.000000083961    14.003074004430
         C           -0.538826787481    -0.055572632693     0.000004283961    12.000000000000
         C            0.957122412519     0.388069367307     0.000000083961    12.000000000000
         C           -2.648043587481     0.341119367307    -0.000000916039    12.000000000000
         C           -2.353149587481    -1.011216632693    -0.000002916039    12.000000000000
         C            3.236341412519    -0.527928632693     0.000000083961    12.000000000000
         H           -1.222941587481     1.963289367307     0.000009083961     1.007825032230
         H            1.360669412519    -1.591444632693     0.000007083961     1.007825032230
         H           -3.582525587481     0.882880367307    -0.000000916039     1.007825032230
         H           -3.049345587481    -1.839352632693    -0.000006916039     1.007825032230
         H            3.452171412519     0.540407367307    -0.000006916039     1.007825032230
         H            3.675934412519    -0.985104632693    -0.891024916039     1.007825032230
         H            3.675930412519    -0.985091632693     0.891033083961     1.007825032230

  Basis Set: AUG-CC-PVTZ
    Blend: AUG-CC-PVTZ
  Basis Set: (AUG-CC-PVTZ AUX)
    Blend: AUG-CC-PVTZ-JKFIT
	 Reference Energy          =    -431.7900616328283263 [Eh]
	 Singles Energy            =      -0.0000000000000000 [Eh]
	 Same-Spin Energy          =      -0.4534279993270472 [Eh]
	 Opposite-Spin Energy      =      -1.3761597421135470 [Eh]
	 Correlation Energy        =      -1.8295877414405943 [Eh]
	 Total Energy              =    -433.6196493742689313 [Eh]

	 ================> DF-SCS-MP2 Energies <==================
	-----------------------------------------------------------
	 SCS Same-Spin Scale       =       0.3333333333333333 [-]
	 SCS Opposite-Spin Scale   =       1.2000000000000000 [-]
	 SCS Same-Spin Energy      =      -0.1511426664423491 [Eh]
	 SCS Opposite-Spin Energy  =      -1.6513916905362562 [Eh]
	 SCS Correlation Energy    =      -1.8025343569786054 [Eh]
	 SCS Total Energy          =    -433.5925959898069095 [Eh]
	-----------------------------------------------------------

  Dipole Moment: [D]
     X:    -0.7556      Y:    -0.4658      Z:     0.0000     Total:     0.8876

*** Psi4 exiting successfully. Buy a developer a beer!
