                               Psi4 1.3.2 release

  ==> Input File <==

--------------------------------------------------------------------------
#psi4
#
memory 32 gb

molecule  {
0 1
  O        1.2542850     1.5918540    -0.0000040
  N       -1.4703060     0.9792780     0.0000030
  N        1.7567070    -0.6653920     0.0000000
  N       -1.0359320    -1.2074830     0.0000000
  C       -0.5082200     0.0183690     0.0000050
  C        0.9183560     0.3972400     0.0000000
  C       -2.6868100     0.3502900    -0.0000010
  C       -2.2521739    -0.9638129    -0.0000028
  C        3.1975750    -0.5187580     0.0000000
  H       -1.2617080     1.9724600     0.0000090
  H        1.3219030    -1.5822740     0.0000070
  H       -3.6212920     0.8920510    -0.0000010
  H       -3.0881120    -1.8301820    -0.0000070
  H        3.4134050     0.5495780    -0.0000070
  H        3.6371680    -0.9759340    -0.8910250
  H        3.6371640    -0.9759210     0.8910330
units angstrom
no_reorient  #important for SAPT in psi4, default
symmetry c1  #important for SAPT in psi4, default
}

set PROPERTIES_ORIGIN ["COM"]
properties('MP2/aug-cc-pvtz', properties = ['dipole'])
--------------------------------------------------------------------------

    Molecular point group: c1
  Charge       = 0
  Multiplicity = 1
  Basis Set: AUG-CC-PVTZ
    Blend: AUG-CC-PVTZ
  Basis Set: (AUG-CC-PVTZ AUX)
    Blend: AUG-CC-PVTZ-JKFIT

    Orbital Energies [Eh]
    ---------------------

    Doubly Occupied:

       1A    -20.524951     2A    -15.643245     3A    -15.592207
       4A    -15.566603     5A    -11.364662     6A    -11.308832
       7A    -11.274024     8A    -11.262831     9A    -11.261701
      10A     -1.394344    11A     -1.366089    12A     -1.240548
      13A     -1.213858    14A     -1.037083    15A     -0.961140
      16A     -0.871357    17A     -0.816032    18A     -0.802271
      19A     -0.772605    20A     -0.670758    21A     -0.654501
      22A     -0.645420    23A     -0.624029    24A     -0.615191
      25A     -0.589966    26A     -0.568686    27A     -0.549123
      28A     -0.537349    29A     -0.460910    30A     -0.441122
      31A     -0.440784    32A     -0.397035    33A     -0.319832

  @DF-RHF Final Energy:  -431.76675022046857

   => Energetics <=

    Nuclear Repulsion Energy =            435.8107916139668419
    One-Electron Energy =               -1451.5769065460451657
    Two-Electron Energy =                 583.9993647116098145
    Total Energy =                       -431.7667502204685661
  Basis Set: (AUG-CC-PVTZ AUX)
    Blend: AUG-CC-PVTZ-RI
    Molecular point group: c1

    Geometry (in Angstrom), charge = 0, multiplicity = 1:

       Center              X                  Y                   Z               Mass
    ------------   -----------------  -----------------  -----------------  -----------------
         O            1.272985800539     1.572799631860    -0.000004011994    15.994914619570
         N           -1.451605199461     0.960223631860     0.000002988006    14.003074004430
         N            1.775407800539    -0.684446368140    -0.000000011994    14.003074004430
         N           -1.017231199461    -1.226537368140    -0.000000011994    14.003074004430
         C           -0.489519199461    -0.000685368140     0.000004988006    12.000000000000
         C            0.937056800539     0.378185631860    -0.000000011994    12.000000000000
         C           -2.668109199461     0.331235631860    -0.000001011994    12.000000000000
         C           -2.233473099461    -0.982867268140    -0.000002811994    12.000000000000
         C            3.216275800539    -0.537812368140    -0.000000011994    12.000000000000
         H           -1.243007199461     1.953405631860     0.000008988006     1.007825032230
         H            1.340603800539    -1.601328368140     0.000006988006     1.007825032230
         H           -3.602591199461     0.872996631860    -0.000001011994     1.007825032230
         H           -3.069411199461    -1.849236368140    -0.000007011994     1.007825032230
         H            3.432105800539     0.530523631860    -0.000007011994     1.007825032230
         H            3.655868800539    -0.994988368140    -0.891025011994     1.007825032230
         H            3.655864800539    -0.994975368140     0.891032988006     1.007825032230

  Basis Set: AUG-CC-PVTZ
    Blend: AUG-CC-PVTZ
  Basis Set: (AUG-CC-PVTZ AUX)
    Blend: AUG-CC-PVTZ-JKFIT
	 Reference Energy          =    -431.7667502204685661 [Eh]
	 Singles Energy            =      -0.0000000000000000 [Eh]
	 Same-Spin Energy          =      -0.4571348148882105 [Eh]
	 Opposite-Spin Energy      =      -1.3799287303794734 [Eh]
	 Correlation Energy        =      -1.8370635452676840 [Eh]
	 Total Energy              =    -433.6038137657362768 [Eh]

	 ================> DF-SCS-MP2 Energies <==================
	-----------------------------------------------------------
	 SCS Same-Spin Scale       =       0.3333333333333333 [-]
	 SCS Opposite-Spin Scale   =       1.2000000000000000 [-]
	 SCS Same-Spin Energy      =      -0.1523782716294035 [Eh]
	 SCS Opposite-Spin Energy  =      -1.6559144764553679 [Eh]
	 SCS Correlation Energy    =      -1.8082927480847715 [Eh]
	 SCS Total Energy          =    -433.5750429685533618 [Eh]
	-----------------------------------------------------------

  Dipole Moment: [D]
     X:    -0.8925      Y:    -0.3367      Z:     0.0000     Total:     0.9539

*** Psi4 exiting successfully. Buy a developer a beer!
