                               Psi4 1.3.2 release

  ==> Input File <==

--------------------------------------------------------------------------
#psi4
#
memory 32 gb

molecule  {
0 1
  O        1.2542850     1.5918540    -0.0000040
  N       -1.4703060     0.9792780     0.0000030
  N        1.7567070    -0.6653920     0.0000000
  N       -1.0144576    -1.2165061    -0.0000002
  C       -0.5082200     0.0183690     0.0000050
  C        0.9183560     0.3972400     0.0000000
  C       -2.6868100     0.3502900    -0.0000010
  C       -2.3919160    -1.0020460    -0.0000030
  C        3.1975750    -0.5187580     0.0000000
  H       -1.2617080     1.9724600     0.0000090
  H        1.3219030    -1.5822740     0.0000070
  H       -3.6212920     0.8920510    -0.0000010
  H       -3.0881120    -1.8301820    -0.0000070
  H        3.4134050     0.5495780    -0.0000070
  H        3.6371680    -0.9759340    -0.8910250
  H        3.6371640    -0.9759210     0.8910330
units angstrom
no_reorient  #important for SAPT in psi4, default
symmetry c1  #important for SAPT in psi4, default
}

set PROPERTIES_ORIGIN ["COM"]
properties('MP2/aug-cc-pvtz', properties = ['dipole'])
--------------------------------------------------------------------------

    Molecular point group: c1
  Charge       = 0
  Multiplicity = 1
  Basis Set: AUG-CC-PVTZ
    Blend: AUG-CC-PVTZ
  Basis Set: (AUG-CC-PVTZ AUX)
    Blend: AUG-CC-PVTZ-JKFIT

    Orbital Energies [Eh]
    ---------------------

    Doubly Occupied:

       1A    -20.527763     2A    -15.635165     3A    -15.592289
       4A    -15.573670     5A    -11.366069     6A    -11.311819
       7A    -11.280858     8A    -11.262844     9A    -11.262780
      10A     -1.386622    11A     -1.345866    12A     -1.239869
      13A     -1.177653    14A     -1.038237    15A     -0.962062
      16A     -0.858292    17A     -0.822909    18A     -0.798241
      19A     -0.772786    20A     -0.667347    21A     -0.650845
      22A     -0.638543    23A     -0.613269    24A     -0.607495
      25A     -0.595142    26A     -0.584238    27A     -0.550504
      28A     -0.536428    29A     -0.467832    30A     -0.442157
      31A     -0.416577    32A     -0.394603    33A     -0.330339

  @DF-RHF Final Energy:  -431.79571433227852

   => Energetics <=

    Nuclear Repulsion Energy =            432.3027720276493255
    One-Electron Energy =               -1444.7747475798817050
    Two-Electron Energy =                 580.6762612199538580
    Total Energy =                       -431.7957143322785214
  Basis Set: (AUG-CC-PVTZ AUX)
    Blend: AUG-CC-PVTZ-RI
    Molecular point group: c1

    Geometry (in Angstrom), charge = 0, multiplicity = 1:

       Center              X                  Y                   Z               Mass
    ------------   -----------------  -----------------  -----------------  -----------------
         O            1.283990194925     1.577478613377    -0.000003970409    15.994914619570
         N           -1.440600805075     0.964902613377     0.000003029591    14.003074004430
         N            1.786412194925    -0.679767386623     0.000000029591    14.003074004430
         N           -0.984752405075    -1.230881486623    -0.000000170409    14.003074004430
         C           -0.478514805075     0.003993613377     0.000005029591    12.000000000000
         C            0.948061194925     0.382864613377     0.000000029591    12.000000000000
         C           -2.657104805075     0.335914613377    -0.000000970409    12.000000000000
         C           -2.362210805075    -1.016421386623    -0.000002970409    12.000000000000
         C            3.227280194925    -0.533133386623     0.000000029591    12.000000000000
         H           -1.232002805075     1.958084613377     0.000009029591     1.007825032230
         H            1.351608194925    -1.596649386623     0.000007029591     1.007825032230
         H           -3.591586805075     0.877675613377    -0.000000970409     1.007825032230
         H           -3.058406805075    -1.844557386623    -0.000006970409     1.007825032230
         H            3.443110194925     0.535202613377    -0.000006970409     1.007825032230
         H            3.666873194925    -0.990309386623    -0.891024970409     1.007825032230
         H            3.666869194925    -0.990296386623     0.891033029591     1.007825032230

  Basis Set: AUG-CC-PVTZ
    Blend: AUG-CC-PVTZ
  Basis Set: (AUG-CC-PVTZ AUX)
    Blend: AUG-CC-PVTZ-JKFIT
	 Reference Energy          =    -431.7957143322785214 [Eh]
	 Singles Energy            =      -0.0000000000000000 [Eh]
	 Same-Spin Energy          =      -0.4556087783069878 [Eh]
	 Opposite-Spin Energy      =      -1.3800754214543709 [Eh]
	 Correlation Energy        =      -1.8356841997613587 [Eh]
	 Total Energy              =    -433.6313985320398956 [Eh]

	 ================> DF-SCS-MP2 Energies <==================
	-----------------------------------------------------------
	 SCS Same-Spin Scale       =       0.3333333333333333 [-]
	 SCS Opposite-Spin Scale   =       1.2000000000000000 [-]
	 SCS Same-Spin Energy      =      -0.1518695927689959 [Eh]
	 SCS Opposite-Spin Energy  =      -1.6560905057452451 [Eh]
	 SCS Correlation Energy    =      -1.8079600985142410 [Eh]
	 SCS Total Energy          =    -433.6036744307927506 [Eh]
	-----------------------------------------------------------

  Dipole Moment: [D]
     X:    -1.0066      Y:    -0.3723      Z:     0.0000     Total:     1.0733

*** Psi4 exiting successfully. Buy a developer a beer!
