                               Psi4 1.3.2 release

  ==> Input File <==

--------------------------------------------------------------------------
#psi4
#
memory 32 gb

molecule  {
0 1
  O        1.2542850     1.5918540    -0.0000040
  N       -1.4490957     0.9364395     0.0000030
  N        1.7567070    -0.6653920     0.0000000
  N       -1.0359320    -1.2074830     0.0000000
  C       -0.5082200     0.0183690     0.0000050
  C        0.9183560     0.3972400     0.0000000
  C       -2.6868100     0.3502900    -0.0000010
  C       -2.3919160    -1.0020460    -0.0000030
  C        3.1975750    -0.5187580     0.0000000
  H       -1.2617080     1.9724600     0.0000090
  H        1.3219030    -1.5822740     0.0000070
  H       -3.6212920     0.8920510    -0.0000010
  H       -3.0881120    -1.8301820    -0.0000070
  H        3.4134050     0.5495780    -0.0000070
  H        3.6371680    -0.9759340    -0.8910250
  H        3.6371640    -0.9759210     0.8910330
units angstrom
no_reorient  #important for SAPT in psi4, default
symmetry c1  #important for SAPT in psi4, default
}

set PROPERTIES_ORIGIN ["COM"]
properties('MP2/aug-cc-pvtz', properties = ['dipole'])
--------------------------------------------------------------------------

    Molecular point group: c1
  Charge       = 0
  Multiplicity = 1
  Basis Set: AUG-CC-PVTZ
    Blend: AUG-CC-PVTZ
  Basis Set: (AUG-CC-PVTZ AUX)
    Blend: AUG-CC-PVTZ-JKFIT

    Orbital Energies [Eh]
    ---------------------

    Doubly Occupied:

       1A    -20.528372     2A    -15.638076     3A    -15.592903
       4A    -15.564788     5A    -11.366892     6A    -11.305805
       7A    -11.276022     8A    -11.263153     9A    -11.260245
      10A     -1.390232    11A     -1.355857    12A     -1.240117
      13A     -1.175538    14A     -1.042517    15A     -0.963122
      16A     -0.854183    17A     -0.821941    18A     -0.801096
      19A     -0.773812    20A     -0.669881    21A     -0.650891
      22A     -0.642322    23A     -0.611810    24A     -0.610320
      25A     -0.595165    26A     -0.586788    27A     -0.550732
      28A     -0.537233    29A     -0.461028    30A     -0.442301
      31A     -0.415043    32A     -0.395137    33A     -0.330601

  @DF-RHF Final Energy:  -431.79392123203718

   => Energetics <=

    Nuclear Repulsion Energy =            433.6844080273695567
    One-Electron Energy =               -1447.5288124314745346
    Two-Electron Energy =                 582.0504831720678567
    Total Energy =                       -431.7939212320371780
  Basis Set: (AUG-CC-PVTZ AUX)
    Blend: AUG-CC-PVTZ-RI
    Molecular point group: c1

    Geometry (in Angstrom), charge = 0, multiplicity = 1:

       Center              X                  Y                   Z               Mass
    ------------   -----------------  -----------------  -----------------  -----------------
         O            1.284019766683     1.581264985269    -0.000003992803    15.994914619570
         N           -1.419360933317     0.925850485269     0.000003007197    14.003074004430
         N            1.786441766683    -0.675981014731     0.000000007197    14.003074004430
         N           -1.006197233317    -1.218072014731     0.000000007197    14.003074004430
         C           -0.478485233317     0.007779985269     0.000005007197    12.000000000000
         C            0.948090766683     0.386650985269     0.000000007197    12.000000000000
         C           -2.657075233317     0.339700985269    -0.000000992803    12.000000000000
         C           -2.362181233317    -1.012635014731    -0.000002992803    12.000000000000
         C            3.227309766683    -0.529347014731     0.000000007197    12.000000000000
         H           -1.231973233317     1.961870985269     0.000009007197     1.007825032230
         H            1.351637766683    -1.592863014731     0.000007007197     1.007825032230
         H           -3.591557233317     0.881461985269    -0.000000992803     1.007825032230
         H           -3.058377233317    -1.840771014731    -0.000006992803     1.007825032230
         H            3.443139766683     0.538988985269    -0.000006992803     1.007825032230
         H            3.666902766683    -0.986523014731    -0.891024992803     1.007825032230
         H            3.666898766683    -0.986510014731     0.891033007197     1.007825032230

  Basis Set: AUG-CC-PVTZ
    Blend: AUG-CC-PVTZ
  Basis Set: (AUG-CC-PVTZ AUX)
    Blend: AUG-CC-PVTZ-JKFIT
	 Reference Energy          =    -431.7939212320371780 [Eh]
	 Singles Energy            =      -0.0000000000000000 [Eh]
	 Same-Spin Energy          =      -0.4559170739350826 [Eh]
	 Opposite-Spin Energy      =      -1.3794093114938564 [Eh]
	 Correlation Energy        =      -1.8353263854289390 [Eh]
	 Total Energy              =    -433.6292476174660919 [Eh]

	 ================> DF-SCS-MP2 Energies <==================
	-----------------------------------------------------------
	 SCS Same-Spin Scale       =       0.3333333333333333 [-]
	 SCS Opposite-Spin Scale   =       1.2000000000000000 [-]
	 SCS Same-Spin Energy      =      -0.1519723579783608 [Eh]
	 SCS Opposite-Spin Energy  =      -1.6552911737926277 [Eh]
	 SCS Correlation Energy    =      -1.8072635317709884 [Eh]
	 SCS Total Energy          =    -433.6011847638081917 [Eh]
	-----------------------------------------------------------

  Dipole Moment: [D]
     X:    -0.9667      Y:    -0.2895      Z:     0.0000     Total:     1.0092

*** Psi4 exiting successfully. Buy a developer a beer!
