                               Psi4 1.4a3.dev225

  ==> Input File <==

--------------------------------------------------------------------------
#psi4
#
memory 32 gb

molecule  {
0 1
  O        1.2542850     1.5918540    -0.0000040
  N       -1.4703060     0.9792780     0.0000030
  N        1.7567070    -0.6653920     0.0000000
  N       -1.0359320    -1.2074830     0.0000000
  C       -0.5082200     0.0183690     0.0000050
  C        0.9183560     0.3972400     0.0000000
  C       -2.6868100     0.3502900    -0.0000010
  C       -2.3919160    -1.0020460    -0.0000030
  C        3.1975750    -0.5187580     0.0000000
  H       -1.2617080     1.9724600     0.0000090
  H        1.3219030    -1.5822740     0.0000070
  H       -3.6645484     0.9171286    -0.0000010
  H       -3.0881120    -1.8301820    -0.0000070
  H        3.4134050     0.5495780    -0.0000070
  H        3.6371680    -0.9759340    -0.8910250
  H        3.6371640    -0.9759210     0.8910330
units angstrom
no_reorient  #important for SAPT in psi4, default
symmetry c1  #important for SAPT in psi4, default
}

set PROPERTIES_ORIGIN ["COM"]
properties('MP2/aug-cc-pvtz', properties = ['dipole'])
--------------------------------------------------------------------------

    Molecular point group: c1
  Charge       = 0
  Multiplicity = 1
  Basis Set: AUG-CC-PVTZ
    Blend: AUG-CC-PVTZ
  Basis Set: (AUG-CC-PVTZ AUX)
    Blend: AUG-CC-PVTZ-JKFIT

    Orbital Energies [Eh]
    ---------------------

    Doubly Occupied:

       1A    -20.527754     2A    -15.635974     3A    -15.592604
       4A    -15.571231     5A    -11.366587     6A    -11.310567
       7A    -11.285015     8A    -11.263013     9A    -11.260912
      10A     -1.386966    11A     -1.348115    12A     -1.239969
      13A     -1.180356    14A     -1.037571    15A     -0.961344
      16A     -0.858148    17A     -0.824241    18A     -0.795110
      19A     -0.770666    20A     -0.666435    21A     -0.649551
      22A     -0.638999    23A     -0.611240    24A     -0.608281
      25A     -0.592957    26A     -0.586292    27A     -0.550548
      28A     -0.536746    29A     -0.464403    30A     -0.442498
      31A     -0.418267    32A     -0.395409    33A     -0.328822

  @DF-RHF Final Energy:  -431.79431047434520

   => Energetics <=

    Nuclear Repulsion Energy =            432.3387182272801965
    One-Electron Energy =               -1444.8528754359292634
    Two-Electron Energy =                 580.7198467343039283
    Total Energy =                       -431.7943104743451386
  Basis Set: (AUG-CC-PVTZ AUX)
    Blend: AUG-CC-PVTZ-RI
    Molecular point group: c1

    Geometry (in Angstrom), charge = 0, multiplicity = 1:

       Center              X                  Y                   Z               Mass
    ------------   -----------------  -----------------  -----------------  -----------------
         O            1.286743317353     1.576266185028    -0.000003992803    15.994914619570
         N           -1.437847682647     0.963690185028     0.000003007197    14.003074004430
         N            1.789165317353    -0.680979814972     0.000000007197    14.003074004430
         N           -1.003473682647    -1.223070814972     0.000000007197    14.003074004430
         C           -0.475761682647     0.002781185028     0.000005007197    12.000000000000
         C            0.950814317353     0.381652185028     0.000000007197    12.000000000000
         C           -2.654351682647     0.334702185028    -0.000000992803    12.000000000000
         C           -2.359457682647    -1.017633814972    -0.000002992803    12.000000000000
         C            3.230033317353    -0.534345814972     0.000000007197    12.000000000000
         H           -1.229249682647     1.956872185028     0.000009007197     1.007825032230
         H            1.354361317353    -1.597861814972     0.000007007197     1.007825032230
         H           -3.632090082647     0.901540785028    -0.000000992803     1.007825032230
         H           -3.055653682647    -1.845769814972    -0.000006992803     1.007825032230
         H            3.445863317353     0.533990185028    -0.000006992803     1.007825032230
         H            3.669626317353    -0.991521814972    -0.891024992803     1.007825032230
         H            3.669622317353    -0.991508814972     0.891033007197     1.007825032230

  Basis Set: AUG-CC-PVTZ
    Blend: AUG-CC-PVTZ
  Basis Set: (AUG-CC-PVTZ AUX)
    Blend: AUG-CC-PVTZ-JKFIT
	 Reference Energy          =    -431.7943104743451954 [Eh]
	 Singles Energy            =      -0.0000000000000000 [Eh]
	 Same-Spin Energy          =      -0.4558357069931912 [Eh]
	 Opposite-Spin Energy      =      -1.3800373363337828 [Eh]
	 Correlation Energy        =      -1.8358730433269739 [Eh]
	 Total Energy              =    -433.6301835176721511 [Eh]

	 ================> DF-SCS-MP2 Energies <==================
	-----------------------------------------------------------
	 SCS Same-Spin Scale       =       0.3333333333333333 [-]
	 SCS Opposite-Spin Scale   =       1.2000000000000000 [-]
	 SCS Same-Spin Energy      =      -0.1519452356643970 [Eh]
	 SCS Opposite-Spin Energy  =      -1.6560448036005393 [Eh]
	 SCS Correlation Energy    =      -1.8079900392649364 [Eh]
	 SCS Total Energy          =    -433.6023005136101460 [Eh]
	-----------------------------------------------------------

  Dipole Moment: [D]
     X:    -0.9786      Y:    -0.3970      Z:     0.0000     Total:     1.0561

*** Psi4 exiting successfully. Buy a developer a beer!
