                               Psi4 1.3.2 release

  ==> Input File <==

--------------------------------------------------------------------------
#psi4
#
memory 32 gb

molecule  {
0 1
  O        1.2542850     1.5918540    -0.0000040
  N       -1.4703060     0.9792780     0.0000030
  N        1.7567070    -0.6653920     0.0000000
  N       -1.0359320    -1.2074830     0.0000000
  C       -0.5082200     0.0183690     0.0000050
  C        1.1116552     0.4485765    -0.0000007
  C       -2.6868100     0.3502900    -0.0000010
  C       -2.3919160    -1.0020460    -0.0000030
  C        3.1975750    -0.5187580     0.0000000
  H       -1.2617080     1.9724600     0.0000090
  H        1.3219030    -1.5822740     0.0000070
  H       -3.6212920     0.8920510    -0.0000010
  H       -3.0881120    -1.8301820    -0.0000070
  H        3.4134050     0.5495780    -0.0000070
  H        3.6371680    -0.9759340    -0.8910250
  H        3.6371640    -0.9759210     0.8910330
units angstrom
no_reorient  #important for SAPT in psi4, default
symmetry c1  #important for SAPT in psi4, default
}

set PROPERTIES_ORIGIN ["COM"]
properties('MP2/aug-cc-pvtz', properties = ['dipole'])
--------------------------------------------------------------------------

    Molecular point group: c1
  Charge       = 0
  Multiplicity = 1
  Basis Set: AUG-CC-PVTZ
    Blend: AUG-CC-PVTZ
  Basis Set: (AUG-CC-PVTZ AUX)
    Blend: AUG-CC-PVTZ-JKFIT

    Orbital Energies [Eh]
    ---------------------

    Doubly Occupied:

       1A    -20.546202     2A    -15.617898     3A    -15.605054
       4A    -15.548739     5A    -11.373853     6A    -11.293595
       7A    -11.271839     8A    -11.260477     9A    -11.244974
      10A     -1.448393    11A     -1.334819    12A     -1.283929
      13A     -1.163076    14A     -1.009418    15A     -0.967694
      16A     -0.834310    17A     -0.816276    18A     -0.798273
      19A     -0.765883    20A     -0.685763    21A     -0.662502
      22A     -0.658323    23A     -0.601891    24A     -0.598340
      25A     -0.594445    26A     -0.580123    27A     -0.568402
      28A     -0.565636    29A     -0.450444    30A     -0.426127
      31A     -0.417631    32A     -0.398173    33A     -0.311884

  @DF-RHF Final Energy:  -431.76292547983951

   => Energetics <=

    Nuclear Repulsion Energy =            432.3262846835911546
    One-Electron Energy =               -1444.7696525018811826
    Two-Electron Energy =                 580.6804423384504616
    Total Energy =                       -431.7629254798395095
  Basis Set: (AUG-CC-PVTZ AUX)
    Blend: AUG-CC-PVTZ-RI
    Molecular point group: c1

    Geometry (in Angstrom), charge = 0, multiplicity = 1:

       Center              X                  Y                   Z               Mass
    ------------   -----------------  -----------------  -----------------  -----------------
         O            1.267846740951     1.571542298035    -0.000003925635    15.994914619570
         N           -1.456744259049     0.958966298035     0.000003074365    14.003074004430
         N            1.770268740951    -0.685703701965     0.000000074365    14.003074004430
         N           -1.022370259049    -1.227794701965     0.000000074365    14.003074004430
         C           -0.494658259049    -0.001942701965     0.000005074365    12.000000000000
         C            1.125216940951     0.428264798035    -0.000000625635    12.000000000000
         C           -2.673248259049     0.329978298035    -0.000000925635    12.000000000000
         C           -2.378354259049    -1.022357701965    -0.000002925635    12.000000000000
         C            3.211136740951    -0.539069701965     0.000000074365    12.000000000000
         H           -1.248146259049     1.952148298035     0.000009074365     1.007825032230
         H            1.335464740951    -1.602585701965     0.000007074365     1.007825032230
         H           -3.607730259049     0.871739298035    -0.000000925635     1.007825032230
         H           -3.074550259049    -1.850493701965    -0.000006925635     1.007825032230
         H            3.426966740951     0.529266298035    -0.000006925635     1.007825032230
         H            3.650729740951    -0.996245701965    -0.891024925635     1.007825032230
         H            3.650725740951    -0.996232701965     0.891033074365     1.007825032230

  Basis Set: AUG-CC-PVTZ
    Blend: AUG-CC-PVTZ
  Basis Set: (AUG-CC-PVTZ AUX)
    Blend: AUG-CC-PVTZ-JKFIT
	 Reference Energy          =    -431.7629254798395095 [Eh]
	 Singles Energy            =      -0.0000000000000000 [Eh]
	 Same-Spin Energy          =      -0.4535618456601042 [Eh]
	 Opposite-Spin Energy      =      -1.3757272065778494 [Eh]
	 Correlation Energy        =      -1.8292890522379537 [Eh]
	 Total Energy              =    -433.5922145320774916 [Eh]

	 ================> DF-SCS-MP2 Energies <==================
	-----------------------------------------------------------
	 SCS Same-Spin Scale       =       0.3333333333333333 [-]
	 SCS Opposite-Spin Scale   =       1.2000000000000000 [-]
	 SCS Same-Spin Energy      =      -0.1511872818867014 [Eh]
	 SCS Opposite-Spin Energy  =      -1.6508726478934193 [Eh]
	 SCS Correlation Energy    =      -1.8020599297801208 [Eh]
	 SCS Total Energy          =    -433.5649854096196236 [Eh]
	-----------------------------------------------------------

  Dipole Moment: [D]
     X:     0.6497      Y:    -0.0302      Z:     0.0000     Total:     0.6504

*** Psi4 exiting successfully. Buy a developer a beer!
