                               Psi4 1.3.2 release

  ==> Input File <==

--------------------------------------------------------------------------
#psi4
#
memory 32 gb

molecule  {
0 1
  O        1.2542850     1.5918540    -0.0000040
  N       -1.4703060     0.9792780     0.0000030
  N        1.7567070    -0.6653920     0.0000000
  N       -1.0359320    -1.2074830     0.0000000
  C       -0.5082200     0.0183690     0.0000050
  C        0.9183560     0.3972400     0.0000000
  C       -2.6868100     0.3502900    -0.0000010
  C       -2.4869685    -1.0193225    -0.0000031
  C        3.1975750    -0.5187580     0.0000000
  H       -1.2617080     1.9724600     0.0000090
  H        1.3219030    -1.5822740     0.0000070
  H       -3.6212920     0.8920510    -0.0000010
  H       -3.0881120    -1.8301820    -0.0000070
  H        3.4134050     0.5495780    -0.0000070
  H        3.6371680    -0.9759340    -0.8910250
  H        3.6371640    -0.9759210     0.8910330
units angstrom
no_reorient  #important for SAPT in psi4, default
symmetry c1  #important for SAPT in psi4, default
}

set PROPERTIES_ORIGIN ["COM"]
properties('MP2/aug-cc-pvtz', properties = ['dipole'])
--------------------------------------------------------------------------

    Molecular point group: c1
  Charge       = 0
  Multiplicity = 1
  Basis Set: AUG-CC-PVTZ
    Blend: AUG-CC-PVTZ
  Basis Set: (AUG-CC-PVTZ AUX)
    Blend: AUG-CC-PVTZ-JKFIT

    Orbital Energies [Eh]
    ---------------------

    Doubly Occupied:

       1A    -20.529683     2A    -15.632240     3A    -15.593067
       4A    -15.573293     5A    -11.367990     6A    -11.312418
       7A    -11.285762     8A    -11.263287     9A    -11.261799
      10A     -1.386869    11A     -1.338578    12A     -1.240325
      13A     -1.161800    14A     -1.039814    15A     -0.963435
      16A     -0.857004    17A     -0.831989    18A     -0.794639
      19A     -0.772325    20A     -0.667535    21A     -0.650847
      22A     -0.637444    23A     -0.630415    24A     -0.604698
      25A     -0.592140    26A     -0.586204    27A     -0.550843
      28A     -0.536831    29A     -0.459758    30A     -0.439530
      31A     -0.408911    32A     -0.392011    33A     -0.335792

  @DF-RHF Final Energy:  -431.78477117209877

   => Energetics <=

    Nuclear Repulsion Energy =            430.6987583084037965
    One-Electron Energy =               -1441.5685095892083609
    Two-Electron Energy =                 579.0849801087058495
    Total Energy =                       -431.7847711720987718
  Basis Set: (AUG-CC-PVTZ AUX)
    Blend: AUG-CC-PVTZ-RI
    Molecular point group: c1

    Geometry (in Angstrom), charge = 0, multiplicity = 1:

       Center              X                  Y                   Z               Mass
    ------------   -----------------  -----------------  -----------------  -----------------
         O            1.295515464024     1.578126043150    -0.000003983208    15.994914619570
         N           -1.429075535976     0.965550043150     0.000003016792    14.003074004430
         N            1.797937464024    -0.679119956850     0.000000016792    14.003074004430
         N           -0.994701535976    -1.221210956850     0.000000016792    14.003074004430
         C           -0.466989535976     0.004641043150     0.000005016792    12.000000000000
         C            0.959586464024     0.383512043150     0.000000016792    12.000000000000
         C           -2.645579535976     0.336562043150    -0.000000983208    12.000000000000
         C           -2.445738035976    -1.033050456850    -0.000003083208    12.000000000000
         C            3.238805464024    -0.532485956850     0.000000016792    12.000000000000
         H           -1.220477535976     1.958732043150     0.000009016792     1.007825032230
         H            1.363133464024    -1.596001956850     0.000007016792     1.007825032230
         H           -3.580061535976     0.878323043150    -0.000000983208     1.007825032230
         H           -3.046881535976    -1.843909956850    -0.000006983208     1.007825032230
         H            3.454635464024     0.535850043150    -0.000006983208     1.007825032230
         H            3.678398464024    -0.989661956850    -0.891024983208     1.007825032230
         H            3.678394464024    -0.989648956850     0.891033016792     1.007825032230

  Basis Set: AUG-CC-PVTZ
    Blend: AUG-CC-PVTZ
  Basis Set: (AUG-CC-PVTZ AUX)
    Blend: AUG-CC-PVTZ-JKFIT
	 Reference Energy          =    -431.7847711720987718 [Eh]
	 Singles Energy            =      -0.0000000000000000 [Eh]
	 Same-Spin Energy          =      -0.4551517288809654 [Eh]
	 Opposite-Spin Energy      =      -1.3810012493114945 [Eh]
	 Correlation Energy        =      -1.8361529781924599 [Eh]
	 Total Energy              =    -433.6209241502912164 [Eh]

	 ================> DF-SCS-MP2 Energies <==================
	-----------------------------------------------------------
	 SCS Same-Spin Scale       =       0.3333333333333333 [-]
	 SCS Opposite-Spin Scale   =       1.2000000000000000 [-]
	 SCS Same-Spin Energy      =      -0.1517172429603218 [Eh]
	 SCS Opposite-Spin Energy  =      -1.6572014991737933 [Eh]
	 SCS Correlation Energy    =      -1.8089187421341151 [Eh]
	 SCS Total Energy          =    -433.5936899142328684 [Eh]
	-----------------------------------------------------------

  Dipole Moment: [D]
     X:    -0.9388      Y:    -0.3993      Z:     0.0000     Total:     1.0202

*** Psi4 exiting successfully. Buy a developer a beer!
