                               Psi4 1.3.2 release

  ==> Input File <==

--------------------------------------------------------------------------
#psi4
#
memory 32 gb

molecule  {
0 1
  O        1.2542850     1.5918540    -0.0000040
  N       -1.5654779     0.8734487     0.0000037
  N        1.7567070    -0.6653920     0.0000000
  N       -1.0359320    -1.2074830     0.0000000
  C       -0.5082200     0.0183690     0.0000050
  C        0.9183560     0.3972400     0.0000000
  C       -2.6868100     0.3502900    -0.0000010
  C       -2.3919160    -1.0020460    -0.0000030
  C        3.1975750    -0.5187580     0.0000000
  H       -1.2617080     1.9724600     0.0000090
  H        1.3219030    -1.5822740     0.0000070
  H       -3.6212920     0.8920510    -0.0000010
  H       -3.0881120    -1.8301820    -0.0000070
  H        3.4134050     0.5495780    -0.0000070
  H        3.6371680    -0.9759340    -0.8910250
  H        3.6371640    -0.9759210     0.8910330
units angstrom
no_reorient  #important for SAPT in psi4, default
symmetry c1  #important for SAPT in psi4, default
}

set PROPERTIES_ORIGIN ["COM"]
properties('MP2/aug-cc-pvtz', properties = ['dipole'])
--------------------------------------------------------------------------

    Molecular point group: c1
  Charge       = 0
  Multiplicity = 1
  Basis Set: AUG-CC-PVTZ
    Blend: AUG-CC-PVTZ
  Basis Set: (AUG-CC-PVTZ AUX)
    Blend: AUG-CC-PVTZ-JKFIT

    Orbital Energies [Eh]
    ---------------------

    Doubly Occupied:

       1A    -20.526056     2A    -15.645113     3A    -15.591178
       4A    -15.569585     5A    -11.367944     6A    -11.297499
       7A    -11.272050     8A    -11.262409     9A    -11.250067
      10A     -1.396123    11A     -1.370231    12A     -1.239261
      13A     -1.182736    14A     -1.043463    15A     -0.963505
      16A     -0.848960    17A     -0.827373    18A     -0.790493
      19A     -0.774330    20A     -0.692691    21A     -0.648829
      22A     -0.647786    23A     -0.618159    24A     -0.603995
      25A     -0.584804    26A     -0.576332    27A     -0.549771
      28A     -0.540293    29A     -0.460387    30A     -0.440869
      31A     -0.420906    32A     -0.395186    33A     -0.320718

  @DF-RHF Final Energy:  -431.76092842672301

   => Energetics <=

    Nuclear Repulsion Energy =            434.3345821978168715
    One-Electron Energy =               -1448.7528099365206344
    Two-Electron Energy =                 582.6572993119807506
    Total Energy =                       -431.7609284267230123
  Basis Set: (AUG-CC-PVTZ AUX)
    Blend: AUG-CC-PVTZ-RI
    Molecular point group: c1

    Geometry (in Angstrom), charge = 0, multiplicity = 1:

       Center              X                  Y                   Z               Mass
    ------------   -----------------  -----------------  -----------------  -----------------
         O            1.297051293466     1.588318179806    -0.000004071184    15.994914619570
         N           -1.522711606534     0.869912879806     0.000003628816    14.003074004430
         N            1.799473293466    -0.668927820194    -0.000000071184    14.003074004430
         N           -0.993165706534    -1.211018820194    -0.000000071184    14.003074004430
         C           -0.465453706534     0.014833179806     0.000004928816    12.000000000000
         C            0.961122293466     0.393704179806    -0.000000071184    12.000000000000
         C           -2.644043706534     0.346754179806    -0.000001071184    12.000000000000
         C           -2.349149706534    -1.005581820194    -0.000003071184    12.000000000000
         C            3.240341293466    -0.522293820194    -0.000000071184    12.000000000000
         H           -1.218941706534     1.968924179806     0.000008928816     1.007825032230
         H            1.364669293466    -1.585809820194     0.000006928816     1.007825032230
         H           -3.578525706534     0.888515179806    -0.000001071184     1.007825032230
         H           -3.045345706534    -1.833717820194    -0.000007071184     1.007825032230
         H            3.456171293466     0.546042179806    -0.000007071184     1.007825032230
         H            3.679934293466    -0.979469820194    -0.891025071184     1.007825032230
         H            3.679930293466    -0.979456820194     0.891032928816     1.007825032230

  Basis Set: AUG-CC-PVTZ
    Blend: AUG-CC-PVTZ
  Basis Set: (AUG-CC-PVTZ AUX)
    Blend: AUG-CC-PVTZ-JKFIT
	 Reference Energy          =    -431.7609284267230123 [Eh]
	 Singles Energy            =      -0.0000000000000000 [Eh]
	 Same-Spin Energy          =      -0.4579844944748491 [Eh]
	 Opposite-Spin Energy      =      -1.3809132247565041 [Eh]
	 Correlation Energy        =      -1.8388977192313534 [Eh]
	 Total Energy              =    -433.5998261459543528 [Eh]

	 ================> DF-SCS-MP2 Energies <==================
	-----------------------------------------------------------
	 SCS Same-Spin Scale       =       0.3333333333333333 [-]
	 SCS Opposite-Spin Scale   =       1.2000000000000000 [-]
	 SCS Same-Spin Energy      =      -0.1526614981582830 [Eh]
	 SCS Opposite-Spin Energy  =      -1.6570958697078049 [Eh]
	 SCS Correlation Energy    =      -1.8097573678660879 [Eh]
	 SCS Total Energy          =    -433.5706857945891102 [Eh]
	-----------------------------------------------------------

  Dipole Moment: [D]
     X:    -1.0261      Y:    -0.0845      Z:     0.0000     Total:     1.0296

*** Psi4 exiting successfully. Buy a developer a beer!
