                               Psi4 1.4a3.dev225

  ==> Input File <==

--------------------------------------------------------------------------
#psi4
#
memory 32 gb

molecule  {
0 1
  O        1.2542850     1.5918540    -0.0000040
  N       -1.4703060     0.9792780     0.0000030
  N        1.7567070    -0.6653920     0.0000000
  N       -1.0359320    -1.2074830     0.0000000
  C       -0.5082200     0.0183690     0.0000050
  C        0.9183560     0.3972400     0.0000000
  C       -2.6868100     0.3502900    -0.0000010
  C       -2.3876549    -1.0215868    -0.0000030
  C        3.1975750    -0.5187580     0.0000000
  H       -1.2617080     1.9724600     0.0000090
  H        1.3219030    -1.5822740     0.0000070
  H       -3.6212920     0.8920510    -0.0000010
  H       -3.0881120    -1.8301820    -0.0000070
  H        3.4134050     0.5495780    -0.0000070
  H        3.6371680    -0.9759340    -0.8910250
  H        3.6371640    -0.9759210     0.8910330
units angstrom
no_reorient  #important for SAPT in psi4, default
symmetry c1  #important for SAPT in psi4, default
}

set PROPERTIES_ORIGIN ["COM"]
properties('MP2/aug-cc-pvtz', properties = ['dipole'])
--------------------------------------------------------------------------

    Molecular point group: c1
  Charge       = 0
  Multiplicity = 1
  Basis Set: AUG-CC-PVTZ
    Blend: AUG-CC-PVTZ
  Basis Set: (AUG-CC-PVTZ AUX)
    Blend: AUG-CC-PVTZ-JKFIT

    Orbital Energies [Eh]
    ---------------------

    Doubly Occupied:

       1A    -20.527169     2A    -15.637352     3A    -15.592074
       4A    -15.571266     5A    -11.366138     6A    -11.309534
       7A    -11.282104     8A    -11.262692     9A    -11.262219
      10A     -1.386458    11A     -1.347491    12A     -1.239541
      13A     -1.182179    14A     -1.036408    15A     -0.960858
      16A     -0.857533    17A     -0.828095    18A     -0.797222
      19A     -0.772406    20A     -0.668951    21A     -0.651053
      22A     -0.638566    23A     -0.612006    24A     -0.607693
      25A     -0.601397    26A     -0.587174    27A     -0.550209
      28A     -0.536199    29A     -0.462726    30A     -0.442074
      31A     -0.419596    32A     -0.395328    33A     -0.325276

  @DF-RHF Final Energy:  -431.79581262385648

   => Energetics <=

    Nuclear Repulsion Energy =            432.3873956766852302
    One-Electron Energy =               -1444.9324394845536972
    Two-Electron Energy =                 580.7492311840120465
    Total Energy =                       -431.7958126238564773
  Basis Set: (AUG-CC-PVTZ AUX)
    Blend: AUG-CC-PVTZ-RI
    Molecular point group: c1

    Geometry (in Angstrom), charge = 0, multiplicity = 1:

       Center              X                  Y                   Z               Mass
    ------------   -----------------  -----------------  -----------------  -----------------
         O            1.285985849682     1.578343313552    -0.000003992803    15.994914619570
         N           -1.438605150318     0.965767313552     0.000003007197    14.003074004430
         N            1.788407849682    -0.678902686448     0.000000007197    14.003074004430
         N           -1.004231150318    -1.220993686448     0.000000007197    14.003074004430
         C           -0.476519150318     0.004858313552     0.000005007197    12.000000000000
         C            0.950056849682     0.383729313552     0.000000007197    12.000000000000
         C           -2.655109150318     0.336779313552    -0.000000992803    12.000000000000
         C           -2.355954050318    -1.035097486448    -0.000002992803    12.000000000000
         C            3.229275849682    -0.532268686448     0.000000007197    12.000000000000
         H           -1.230007150318     1.958949313552     0.000009007197     1.007825032230
         H            1.353603849682    -1.595784686448     0.000007007197     1.007825032230
         H           -3.589591150318     0.878540313552    -0.000000992803     1.007825032230
         H           -3.056411150318    -1.843692686448    -0.000006992803     1.007825032230
         H            3.445105849682     0.536067313552    -0.000006992803     1.007825032230
         H            3.668868849682    -0.989444686448    -0.891024992803     1.007825032230
         H            3.668864849682    -0.989431686448     0.891033007197     1.007825032230

  Basis Set: AUG-CC-PVTZ
    Blend: AUG-CC-PVTZ
  Basis Set: (AUG-CC-PVTZ AUX)
    Blend: AUG-CC-PVTZ-JKFIT
	 Reference Energy          =    -431.7958126238564773 [Eh]
	 Singles Energy            =      -0.0000000000000000 [Eh]
	 Same-Spin Energy          =      -0.4560052307255842 [Eh]
	 Opposite-Spin Energy      =      -1.3799675716774424 [Eh]
	 Correlation Energy        =      -1.8359728024030266 [Eh]
	 Total Energy              =    -433.6317854262595120 [Eh]

	 ================> DF-SCS-MP2 Energies <==================
	-----------------------------------------------------------
	 SCS Same-Spin Scale       =       0.3333333333333333 [-]
	 SCS Opposite-Spin Scale   =       1.2000000000000000 [-]
	 SCS Same-Spin Energy      =      -0.1520017435751947 [Eh]
	 SCS Opposite-Spin Energy  =      -1.6559610860129308 [Eh]
	 SCS Correlation Energy    =      -1.8079628295881256 [Eh]
	 SCS Total Energy          =    -433.6037754534445980 [Eh]
	-----------------------------------------------------------

  Dipole Moment: [D]
     X:    -0.9950      Y:    -0.4182      Z:     0.0000     Total:     1.0793

*** Psi4 exiting successfully. Buy a developer a beer!
