                               Psi4 1.3.2 release

  ==> Input File <==

--------------------------------------------------------------------------
#psi4
#
memory 32 gb

molecule  {
0 1
  O        1.2542850     1.5918540    -0.0000040
  N       -1.4703060     0.9792780     0.0000030
  N        1.7567070    -0.6653920     0.0000000
  N       -1.0359320    -1.2074830     0.0000000
  C       -0.5082200     0.0183690     0.0000050
  C        0.9183560     0.3972400     0.0000000
  C       -2.6868100     0.3502900    -0.0000010
  C       -2.3919160    -1.0020460    -0.0000030
  C        3.1975750    -0.5187580     0.0000000
  H       -1.2617080     1.9724600     0.0000090
  H        1.3219030    -1.5822740     0.0000070
  H       -3.7078047     0.9422063    -0.0000010
  H       -3.0881120    -1.8301820    -0.0000070
  H        3.4134050     0.5495780    -0.0000070
  H        3.6371680    -0.9759340    -0.8910250
  H        3.6371640    -0.9759210     0.8910330
units angstrom
no_reorient  #important for SAPT in psi4, default
symmetry c1  #important for SAPT in psi4, default
}

set PROPERTIES_ORIGIN ["COM"]
properties('MP2/aug-cc-pvtz', properties = ['dipole'])
--------------------------------------------------------------------------

    Molecular point group: c1
  Charge       = 0
  Multiplicity = 1
  Basis Set: AUG-CC-PVTZ
    Blend: AUG-CC-PVTZ
  Basis Set: (AUG-CC-PVTZ AUX)
    Blend: AUG-CC-PVTZ-JKFIT

    Orbital Energies [Eh]
    ---------------------

    Doubly Occupied:

       1A    -20.527826     2A    -15.636358     3A    -15.592678
       4A    -15.571526     5A    -11.366693     6A    -11.310756
       7A    -11.290092     8A    -11.263065     9A    -11.261190
      10A     -1.387081    11A     -1.348349    12A     -1.240043
      13A     -1.180496    14A     -1.036870    15A     -0.960776
      16A     -0.857860    17A     -0.823875    18A     -0.793424
      19A     -0.768537    20A     -0.664868    21A     -0.648104
      22A     -0.639137    23A     -0.609411    24A     -0.608458
      25A     -0.588461    26A     -0.585484    27A     -0.550554
      28A     -0.536841    29A     -0.464330    30A     -0.442581
      31A     -0.418478    32A     -0.395500    33A     -0.328941

  @DF-RHF Final Energy:  -431.78915256130136

   => Energetics <=

    Nuclear Repulsion Energy =            432.1024190039020709
    One-Electron Energy =               -1444.3858618346232561
    Two-Electron Energy =                 580.4942902694199347
    Total Energy =                       -431.7891525613013073
  Basis Set: (AUG-CC-PVTZ AUX)
    Blend: AUG-CC-PVTZ-RI
    Molecular point group: c1

    Geometry (in Angstrom), charge = 0, multiplicity = 1:

       Center              X                  Y                   Z               Mass
    ------------   -----------------  -----------------  -----------------  -----------------
         O            1.287091911318     1.576064088804    -0.000003992803    15.994914619570
         N           -1.437499088682     0.963488088804     0.000003007197    14.003074004430
         N            1.789513911318    -0.681181911196     0.000000007197    14.003074004430
         N           -1.003125088682    -1.223272911196     0.000000007197    14.003074004430
         C           -0.475413088682     0.002579088804     0.000005007197    12.000000000000
         C            0.951162911318     0.381450088804     0.000000007197    12.000000000000
         C           -2.654003088682     0.334500088804    -0.000000992803    12.000000000000
         C           -2.359109088682    -1.017835911196    -0.000002992803    12.000000000000
         C            3.230381911318    -0.534547911196     0.000000007197    12.000000000000
         H           -1.228901088682     1.956670088804     0.000009007197     1.007825032230
         H            1.354709911318    -1.598063911196     0.000007007197     1.007825032230
         H           -3.674997788682     0.926416388804    -0.000000992803     1.007825032230
         H           -3.055305088682    -1.845971911196    -0.000006992803     1.007825032230
         H            3.446211911318     0.533788088804    -0.000006992803     1.007825032230
         H            3.669974911318    -0.991723911196    -0.891024992803     1.007825032230
         H            3.669970911318    -0.991710911196     0.891033007197     1.007825032230

  Basis Set: AUG-CC-PVTZ
    Blend: AUG-CC-PVTZ
  Basis Set: (AUG-CC-PVTZ AUX)
    Blend: AUG-CC-PVTZ-JKFIT
	 Reference Energy          =    -431.7891525613013641 [Eh]
	 Singles Energy            =      -0.0000000000000000 [Eh]
	 Same-Spin Energy          =      -0.4559713157640409 [Eh]
	 Opposite-Spin Energy      =      -1.3805476309005824 [Eh]
	 Correlation Energy        =      -1.8365189466646232 [Eh]
	 Total Energy              =    -433.6256715079659898 [Eh]

	 ================> DF-SCS-MP2 Energies <==================
	-----------------------------------------------------------
	 SCS Same-Spin Scale       =       0.3333333333333333 [-]
	 SCS Opposite-Spin Scale   =       1.2000000000000000 [-]
	 SCS Same-Spin Energy      =      -0.1519904385880136 [Eh]
	 SCS Opposite-Spin Energy  =      -1.6566571570806989 [Eh]
	 SCS Correlation Energy    =      -1.8086475956687125 [Eh]
	 SCS Total Energy          =    -433.5978001569700950 [Eh]
	-----------------------------------------------------------

  Dipole Moment: [D]
     X:    -0.9782      Y:    -0.3959      Z:     0.0000     Total:     1.0552

*** Psi4 exiting successfully. Buy a developer a beer!
