                               Psi4 1.3.2 release

  ==> Input File <==

--------------------------------------------------------------------------
#psi4
#
memory 32 gb

molecule  {
0 1
  O        1.2542850     1.5918540    -0.0000040
  N       -1.3645933     1.0745794     0.0000037
  N        1.7567070    -0.6653920     0.0000000
  N       -1.0359320    -1.2074830     0.0000000
  C       -0.5082200     0.0183690     0.0000050
  C        0.9183560     0.3972400     0.0000000
  C       -2.6868100     0.3502900    -0.0000010
  C       -2.3919160    -1.0020460    -0.0000030
  C        3.1975750    -0.5187580     0.0000000
  H       -1.2617080     1.9724600     0.0000090
  H        1.3219030    -1.5822740     0.0000070
  H       -3.6212920     0.8920510    -0.0000010
  H       -3.0881120    -1.8301820    -0.0000070
  H        3.4134050     0.5495780    -0.0000070
  H        3.6371680    -0.9759340    -0.8910250
  H        3.6371640    -0.9759210     0.8910330
units angstrom
no_reorient  #important for SAPT in psi4, default
symmetry c1  #important for SAPT in psi4, default
}

set PROPERTIES_ORIGIN ["COM"]
properties('MP2/aug-cc-pvtz', properties = ['dipole'])
--------------------------------------------------------------------------

    Molecular point group: c1
  Charge       = 0
  Multiplicity = 1
  Basis Set: AUG-CC-PVTZ
    Blend: AUG-CC-PVTZ
  Basis Set: (AUG-CC-PVTZ AUX)
    Blend: AUG-CC-PVTZ-JKFIT

    Orbital Energies [Eh]
    ---------------------

    Doubly Occupied:

       1A    -20.528029     2A    -15.625188     3A    -15.593143
       4A    -15.572865     5A    -11.364348     6A    -11.324519
       7A    -11.287258     8A    -11.272033     9A    -11.263002
      10A     -1.386248    11A     -1.329841    12A     -1.240261
      13A     -1.187828    14A     -1.032581    15A     -0.961084
      16A     -0.883427    17A     -0.825598    18A     -0.797989
      19A     -0.771548    20A     -0.654809    21A     -0.649022
      22A     -0.636485    23A     -0.635220    24A     -0.599923
      25A     -0.593315    26A     -0.569944    27A     -0.550511
      28A     -0.532655    29A     -0.468611    30A     -0.443076
      31A     -0.419264    32A     -0.395509    33A     -0.334085

  @DF-RHF Final Energy:  -431.76659348976079

   => Energetics <=

    Nuclear Repulsion Energy =            431.4371930967910771
    One-Electron Energy =               -1442.9491348294416184
    Two-Electron Energy =                 579.7453482428896905
    Total Energy =                       -431.7665934897607940
  Basis Set: (AUG-CC-PVTZ AUX)
    Blend: AUG-CC-PVTZ-RI
    Molecular point group: c1

    Geometry (in Angstrom), charge = 0, multiplicity = 1:

       Center              X                  Y                   Z               Mass
    ------------   -----------------  -----------------  -----------------  -----------------
         O            1.274557879136     1.565797209211    -0.000004071184    15.994914619570
         N           -1.344320420864     1.048522609211     0.000003628816    14.003074004430
         N            1.776979879136    -0.691448790789    -0.000000071184    14.003074004430
         N           -1.015659120864    -1.233539790789    -0.000000071184    14.003074004430
         C           -0.487947120864    -0.007687790789     0.000004928816    12.000000000000
         C            0.938628879136     0.371183209211    -0.000000071184    12.000000000000
         C           -2.666537120864     0.324233209211    -0.000001071184    12.000000000000
         C           -2.371643120864    -1.028102790789    -0.000003071184    12.000000000000
         C            3.217847879136    -0.544814790789    -0.000000071184    12.000000000000
         H           -1.241435120864     1.946403209211     0.000008928816     1.007825032230
         H            1.342175879136    -1.608330790789     0.000006928816     1.007825032230
         H           -3.601019120864     0.865994209211    -0.000001071184     1.007825032230
         H           -3.067839120864    -1.856238790789    -0.000007071184     1.007825032230
         H            3.433677879136     0.523521209211    -0.000007071184     1.007825032230
         H            3.657440879136    -1.001990790789    -0.891025071184     1.007825032230
         H            3.657436879136    -1.001977790789     0.891032928816     1.007825032230

  Basis Set: AUG-CC-PVTZ
    Blend: AUG-CC-PVTZ
  Basis Set: (AUG-CC-PVTZ AUX)
    Blend: AUG-CC-PVTZ-JKFIT
	 Reference Energy          =    -431.7665934897607940 [Eh]
	 Singles Energy            =      -0.0000000000000000 [Eh]
	 Same-Spin Energy          =      -0.4544759365694691 [Eh]
	 Opposite-Spin Energy      =      -1.3811305518326584 [Eh]
	 Correlation Energy        =      -1.8356064884021275 [Eh]
	 Total Energy              =    -433.6021999781629006 [Eh]

	 ================> DF-SCS-MP2 Energies <==================
	-----------------------------------------------------------
	 SCS Same-Spin Scale       =       0.3333333333333333 [-]
	 SCS Opposite-Spin Scale   =       1.2000000000000000 [-]
	 SCS Same-Spin Energy      =      -0.1514919788564897 [Eh]
	 SCS Opposite-Spin Energy  =      -1.6573566621991900 [Eh]
	 SCS Correlation Energy    =      -1.8088486410556797 [Eh]
	 SCS Total Energy          =    -433.5754421308164979 [Eh]
	-----------------------------------------------------------

  Dipole Moment: [D]
     X:    -1.0153      Y:    -0.7301      Z:     0.0000     Total:     1.2506

*** Psi4 exiting successfully. Buy a developer a beer!
