                               Psi4 1.3.2 release

  ==> Input File <==

--------------------------------------------------------------------------
#psi4
#
memory 32 gb

molecule  {
0 1
  O        1.2542850     1.5918540    -0.0000040
  N       -1.4703060     0.9792780     0.0000030
  N        1.7567070    -0.6653920     0.0000000
  N       -1.0359320    -1.2074830     0.0000000
  C       -0.3667121    -0.1229658     0.0000053
  C        0.9183560     0.3972400     0.0000000
  C       -2.6868100     0.3502900    -0.0000010
  C       -2.3919160    -1.0020460    -0.0000030
  C        3.1975750    -0.5187580     0.0000000
  H       -1.2617080     1.9724600     0.0000090
  H        1.3219030    -1.5822740     0.0000070
  H       -3.6212920     0.8920510    -0.0000010
  H       -3.0881120    -1.8301820    -0.0000070
  H        3.4134050     0.5495780    -0.0000070
  H        3.6371680    -0.9759340    -0.8910250
  H        3.6371640    -0.9759210     0.8910330
units angstrom
no_reorient  #important for SAPT in psi4, default
symmetry c1  #important for SAPT in psi4, default
}

set PROPERTIES_ORIGIN ["COM"]
properties('MP2/aug-cc-pvtz', properties = ['dipole'])
--------------------------------------------------------------------------

    Molecular point group: c1
  Charge       = 0
  Multiplicity = 1
  Basis Set: AUG-CC-PVTZ
    Blend: AUG-CC-PVTZ
  Basis Set: (AUG-CC-PVTZ AUX)
    Blend: AUG-CC-PVTZ-JKFIT

    Orbital Energies [Eh]
    ---------------------

    Doubly Occupied:

       1A    -20.529651     2A    -15.616069     3A    -15.591850
       4A    -15.585292     5A    -11.364650     6A    -11.316062
       7A    -11.293738     8A    -11.262122     9A    -11.258865
      10A     -1.386348    11A     -1.325732    12A     -1.245537
      13A     -1.174443    14A     -1.048601    15A     -0.967943
      16A     -0.874148    17A     -0.828443    18A     -0.778941
      19A     -0.757434    20A     -0.679852    21A     -0.655135
      22A     -0.639537    23A     -0.611467    24A     -0.600308
      25A     -0.595026    26A     -0.569979    27A     -0.550763
      28A     -0.535521    29A     -0.461280    30A     -0.441186
      31A     -0.426507    32A     -0.396684    33A     -0.323403

  @DF-RHF Final Energy:  -431.74866381037373

   => Energetics <=

    Nuclear Repulsion Energy =            432.2513375666952697
    One-Electron Energy =               -1444.6149681990507361
    Two-Electron Energy =                 580.6149668219817386
    Total Energy =                       -431.7486638103737278
  Basis Set: (AUG-CC-PVTZ AUX)
    Blend: AUG-CC-PVTZ-RI
    Molecular point group: c1

    Geometry (in Angstrom), charge = 0, multiplicity = 1:

       Center              X                  Y                   Z               Mass
    ------------   -----------------  -----------------  -----------------  -----------------
         O            1.272816363593     1.590030029662    -0.000004021590    15.994914619570
         N           -1.451774636407     0.977454029662     0.000002978410    14.003074004430
         N            1.775238363593    -0.667215970338    -0.000000021590    14.003074004430
         N           -1.017400636407    -1.209306970338    -0.000000021590    14.003074004430
         C           -0.348180736407    -0.124789770338     0.000005278410    12.000000000000
         C            0.936887363593     0.395416029662    -0.000000021590    12.000000000000
         C           -2.668278636407     0.348466029662    -0.000001021590    12.000000000000
         C           -2.373384636407    -1.003869970338    -0.000003021590    12.000000000000
         C            3.216106363593    -0.520581970338    -0.000000021590    12.000000000000
         H           -1.243176636407     1.970636029662     0.000008978410     1.007825032230
         H            1.340434363593    -1.584097970338     0.000006978410     1.007825032230
         H           -3.602760636407     0.890227029662    -0.000001021590     1.007825032230
         H           -3.069580636407    -1.832005970338    -0.000007021590     1.007825032230
         H            3.431936363593     0.547754029662    -0.000007021590     1.007825032230
         H            3.655699363593    -0.977757970338    -0.891025021590     1.007825032230
         H            3.655695363593    -0.977744970338     0.891032978410     1.007825032230

  Basis Set: AUG-CC-PVTZ
    Blend: AUG-CC-PVTZ
  Basis Set: (AUG-CC-PVTZ AUX)
    Blend: AUG-CC-PVTZ-JKFIT
	 Reference Energy          =    -431.7486638103737278 [Eh]
	 Singles Energy            =      -0.0000000000000000 [Eh]
	 Same-Spin Energy          =      -0.4586429925069955 [Eh]
	 Opposite-Spin Energy      =      -1.3852043900420783 [Eh]
	 Correlation Energy        =      -1.8438473825490738 [Eh]
	 Total Energy              =    -433.5925111929228137 [Eh]

	 ================> DF-SCS-MP2 Energies <==================
	-----------------------------------------------------------
	 SCS Same-Spin Scale       =       0.3333333333333333 [-]
	 SCS Opposite-Spin Scale   =       1.2000000000000000 [-]
	 SCS Same-Spin Energy      =      -0.1528809975023318 [Eh]
	 SCS Opposite-Spin Energy  =      -1.6622452680504940 [Eh]
	 SCS Correlation Energy    =      -1.8151262655528257 [Eh]
	 SCS Total Energy          =    -433.5637900759265335 [Eh]
	-----------------------------------------------------------

  Dipole Moment: [D]
     X:    -0.9120      Y:    -0.7831      Z:     0.0000     Total:     1.2021

*** Psi4 exiting successfully. Buy a developer a beer!
