                               Psi4 1.4a3.dev225

  ==> Input File <==

--------------------------------------------------------------------------
#psi4
#
memory 32 gb

molecule  {
0 1
  O        1.2542850     1.5918540    -0.0000040
  N       -1.4703060     0.9792780     0.0000030
  N        1.7567070    -0.6653920     0.0000000
  N       -1.0359320    -1.2074830     0.0000000
  C       -0.5003119     0.0367391     0.0000051
  C        0.9183560     0.3972400     0.0000000
  C       -2.6868100     0.3502900    -0.0000010
  C       -2.3919160    -1.0020460    -0.0000030
  C        3.1975750    -0.5187580     0.0000000
  H       -1.2617080     1.9724600     0.0000090
  H        1.3219030    -1.5822740     0.0000070
  H       -3.6212920     0.8920510    -0.0000010
  H       -3.0881120    -1.8301820    -0.0000070
  H        3.4134050     0.5495780    -0.0000070
  H        3.6371680    -0.9759340    -0.8910250
  H        3.6371640    -0.9759210     0.8910330
units angstrom
no_reorient  #important for SAPT in psi4, default
symmetry c1  #important for SAPT in psi4, default
}

set PROPERTIES_ORIGIN ["COM"]
properties('MP2/aug-cc-pvtz', properties = ['dipole'])
--------------------------------------------------------------------------

    Molecular point group: c1
  Charge       = 0
  Multiplicity = 1
  Basis Set: AUG-CC-PVTZ
    Blend: AUG-CC-PVTZ
  Basis Set: (AUG-CC-PVTZ AUX)
    Blend: AUG-CC-PVTZ-JKFIT

    Orbital Energies [Eh]
    ---------------------

    Doubly Occupied:

       1A    -20.527036     2A    -15.638097     3A    -15.592415
       4A    -15.571726     5A    -11.365739     6A    -11.310506
       7A    -11.279703     8A    -11.262949     9A    -11.261546
      10A     -1.387255    11A     -1.347180    12A     -1.239718
      13A     -1.176932    14A     -1.040084    15A     -0.962234
      16A     -0.860705    17A     -0.824263    18A     -0.798456
      19A     -0.772993    20A     -0.669170    21A     -0.651134
      22A     -0.639146    23A     -0.613540    24A     -0.607982
      25A     -0.596763    26A     -0.586890    27A     -0.550430
      28A     -0.536716    29A     -0.461872    30A     -0.443354
      31A     -0.416368    32A     -0.395104    33A     -0.328190

  @DF-RHF Final Energy:  -431.79514143057787

   => Energetics <=

    Nuclear Repulsion Energy =            432.5571306172385562
    One-Electron Energy =               -1445.2721566581901698
    Two-Electron Energy =                 580.9198846103738560
    Total Energy =                       -431.7951414305778144
  Basis Set: (AUG-CC-PVTZ AUX)
    Blend: AUG-CC-PVTZ-RI
    Molecular point group: c1

    Geometry (in Angstrom), charge = 0, multiplicity = 1:

       Center              X                  Y                   Z               Mass
    ------------   -----------------  -----------------  -----------------  -----------------
         O            1.285635902610     1.574705581596    -0.000004002399    15.994914619570
         N           -1.438955097390     0.962129581596     0.000002997601    14.003074004430
         N            1.788057902610    -0.682540418404    -0.000000002399    14.003074004430
         N           -1.004581097390    -1.224631418404    -0.000000002399    14.003074004430
         C           -0.468960997390     0.019590681596     0.000005097601    12.000000000000
         C            0.949706902610     0.380091581596    -0.000000002399    12.000000000000
         C           -2.655459097390     0.333141581596    -0.000001002399    12.000000000000
         C           -2.360565097390    -1.019194418404    -0.000003002399    12.000000000000
         C            3.228925902610    -0.535906418404    -0.000000002399    12.000000000000
         H           -1.230357097390     1.955311581596     0.000008997601     1.007825032230
         H            1.353253902610    -1.599422418404     0.000006997601     1.007825032230
         H           -3.589941097390     0.874902581596    -0.000001002399     1.007825032230
         H           -3.056761097390    -1.847330418404    -0.000007002399     1.007825032230
         H            3.444755902610     0.532429581596    -0.000007002399     1.007825032230
         H            3.668518902610    -0.993082418404    -0.891025002399     1.007825032230
         H            3.668514902610    -0.993069418404     0.891032997601     1.007825032230

  Basis Set: AUG-CC-PVTZ
    Blend: AUG-CC-PVTZ
  Basis Set: (AUG-CC-PVTZ AUX)
    Blend: AUG-CC-PVTZ-JKFIT
	 Reference Energy          =    -431.7951414305778712 [Eh]
	 Singles Energy            =      -0.0000000000000000 [Eh]
	 Same-Spin Energy          =      -0.4561953551866700 [Eh]
	 Opposite-Spin Energy      =      -1.3803852374347274 [Eh]
	 Correlation Energy        =      -1.8365805926213974 [Eh]
	 Total Energy              =    -433.6317220231992451 [Eh]

	 ================> DF-SCS-MP2 Energies <==================
	-----------------------------------------------------------
	 SCS Same-Spin Scale       =       0.3333333333333333 [-]
	 SCS Opposite-Spin Scale   =       1.2000000000000000 [-]
	 SCS Same-Spin Energy      =      -0.1520651183955566 [Eh]
	 SCS Opposite-Spin Energy  =      -1.6564622849216728 [Eh]
	 SCS Correlation Energy    =      -1.8085274033172294 [Eh]
	 SCS Total Energy          =    -433.6036688338950853 [Eh]
	-----------------------------------------------------------

  Dipole Moment: [D]
     X:    -1.0262      Y:    -0.3792      Z:     0.0000     Total:     1.0940

*** Psi4 exiting successfully. Buy a developer a beer!
