                               Psi4 1.4a3.dev225

  ==> Input File <==

--------------------------------------------------------------------------
#psi4
#
memory 32 gb

molecule  {
0 1
  O        1.2542850     1.5918540    -0.0000040
  N       -1.4703060     0.9792780     0.0000030
  N        1.7567070    -0.6653920     0.0000000
  N       -1.0359320    -1.2074830     0.0000000
  C       -0.5082200     0.0183690     0.0000050
  C        0.9183560     0.3972400     0.0000000
  C       -2.6868100     0.3502900    -0.0000010
  C       -2.4025688    -0.9531940    -0.0000029
  C        3.1975750    -0.5187580     0.0000000
  H       -1.2617080     1.9724600     0.0000090
  H        1.3219030    -1.5822740     0.0000070
  H       -3.6212920     0.8920510    -0.0000010
  H       -3.0881120    -1.8301820    -0.0000070
  H        3.4134050     0.5495780    -0.0000070
  H        3.6371680    -0.9759340    -0.8910250
  H        3.6371640    -0.9759210     0.8910330
units angstrom
no_reorient  #important for SAPT in psi4, default
symmetry c1  #important for SAPT in psi4, default
}

set PROPERTIES_ORIGIN ["COM"]
properties('MP2/aug-cc-pvtz', properties = ['dipole'])
--------------------------------------------------------------------------

    Molecular point group: c1
  Charge       = 0
  Multiplicity = 1
  Basis Set: AUG-CC-PVTZ
    Blend: AUG-CC-PVTZ
  Basis Set: (AUG-CC-PVTZ AUX)
    Blend: AUG-CC-PVTZ-JKFIT

    Orbital Energies [Eh]
    ---------------------

    Doubly Occupied:

       1A    -20.528973     2A    -15.631337     3A    -15.593678
       4A    -15.570383     5A    -11.367360     6A    -11.312585
       7A    -11.273283     8A    -11.263646     9A    -11.256844
      10A     -1.387885    11A     -1.349131    12A     -1.240813
      13A     -1.175372    14A     -1.044719    15A     -0.965211
      16A     -0.861544    17A     -0.816559    18A     -0.797850
      19A     -0.773748    20A     -0.668615    21A     -0.651590
      22A     -0.639705    23A     -0.618112    24A     -0.609341
      25A     -0.591208    26A     -0.575664    27A     -0.551315
      28A     -0.537880    29A     -0.468375    30A     -0.443092
      31A     -0.414611    32A     -0.395113    33A     -0.338115

  @DF-RHF Final Energy:  -431.79475067927854

   => Energetics <=

    Nuclear Repulsion Energy =            433.1110857142001578
    One-Electron Energy =               -1446.3843588397064650
    Two-Electron Energy =                 581.4785224462277711
    Total Energy =                       -431.7947506792785362
  Basis Set: (AUG-CC-PVTZ AUX)
    Blend: AUG-CC-PVTZ-RI
    Molecular point group: c1

    Geometry (in Angstrom), charge = 0, multiplicity = 1:

       Center              X                  Y                   Z               Mass
    ------------   -----------------  -----------------  -----------------  -----------------
         O            1.287416909631     1.571780697679    -0.000004002399    15.994914619570
         N           -1.437174090369     0.959204697679     0.000002997601    14.003074004430
         N            1.789838909631    -0.685465302321    -0.000000002399    14.003074004430
         N           -1.002800090369    -1.227556302321    -0.000000002399    14.003074004430
         C           -0.475088090369    -0.001704302321     0.000004997601    12.000000000000
         C            0.951487909631     0.377166697679    -0.000000002399    12.000000000000
         C           -2.653678090369     0.330216697679    -0.000001002399    12.000000000000
         C           -2.369436890369    -0.973267302321    -0.000002902399    12.000000000000
         C            3.230706909631    -0.538831302321    -0.000000002399    12.000000000000
         H           -1.228576090369     1.952386697679     0.000008997601     1.007825032230
         H            1.355034909631    -1.602347302321     0.000006997601     1.007825032230
         H           -3.588160090369     0.871977697679    -0.000001002399     1.007825032230
         H           -3.054980090369    -1.850255302321    -0.000007002399     1.007825032230
         H            3.446536909631     0.529504697679    -0.000007002399     1.007825032230
         H            3.670299909631    -0.996007302321    -0.891025002399     1.007825032230
         H            3.670295909631    -0.995994302321     0.891032997601     1.007825032230

  Basis Set: AUG-CC-PVTZ
    Blend: AUG-CC-PVTZ
  Basis Set: (AUG-CC-PVTZ AUX)
    Blend: AUG-CC-PVTZ-JKFIT
	 Reference Energy          =    -431.7947506792785362 [Eh]
	 Singles Energy            =      -0.0000000000000000 [Eh]
	 Same-Spin Energy          =      -0.4550397865031647 [Eh]
	 Opposite-Spin Energy      =      -1.3789356267037247 [Eh]
	 Correlation Energy        =      -1.8339754132068893 [Eh]
	 Total Energy              =    -433.6287260924854081 [Eh]

	 ================> DF-SCS-MP2 Energies <==================
	-----------------------------------------------------------
	 SCS Same-Spin Scale       =       0.3333333333333333 [-]
	 SCS Opposite-Spin Scale   =       1.2000000000000000 [-]
	 SCS Same-Spin Energy      =      -0.1516799288343882 [Eh]
	 SCS Opposite-Spin Energy  =      -1.6547227520444696 [Eh]
	 SCS Correlation Energy    =      -1.8064026808788578 [Eh]
	 SCS Total Energy          =    -433.6011533601574115 [Eh]
	-----------------------------------------------------------

  Dipole Moment: [D]
     X:    -0.9256      Y:    -0.3572      Z:     0.0000     Total:     0.9921

*** Psi4 exiting successfully. Buy a developer a beer!
