                               Psi4 1.3.2 release

  ==> Input File <==

--------------------------------------------------------------------------
#psi4
#
memory 32 gb

molecule  {
0 1
  O        1.2542850     1.5918540    -0.0000040
  N       -1.4703060     0.9792780     0.0000030
  N        1.7567070    -0.6653920     0.0000000
  N       -1.0648342    -1.3480965    -0.0000004
  C       -0.5082200     0.0183690     0.0000050
  C        0.9183560     0.3972400     0.0000000
  C       -2.6868100     0.3502900    -0.0000010
  C       -2.3919160    -1.0020460    -0.0000030
  C        3.1975750    -0.5187580     0.0000000
  H       -1.2617080     1.9724600     0.0000090
  H        1.3219030    -1.5822740     0.0000070
  H       -3.6212920     0.8920510    -0.0000010
  H       -3.0881120    -1.8301820    -0.0000070
  H        3.4134050     0.5495780    -0.0000070
  H        3.6371680    -0.9759340    -0.8910250
  H        3.6371640    -0.9759210     0.8910330
units angstrom
no_reorient  #important for SAPT in psi4, default
symmetry c1  #important for SAPT in psi4, default
}

set PROPERTIES_ORIGIN ["COM"]
properties('MP2/aug-cc-pvtz', properties = ['dipole'])
--------------------------------------------------------------------------

    Molecular point group: c1
  Charge       = 0
  Multiplicity = 1
  Basis Set: AUG-CC-PVTZ
    Blend: AUG-CC-PVTZ
  Basis Set: (AUG-CC-PVTZ AUX)
    Blend: AUG-CC-PVTZ-JKFIT

    Orbital Energies [Eh]
    ---------------------

    Doubly Occupied:

       1A    -20.528023     2A    -15.652874     3A    -15.593203
       4A    -15.589692     5A    -11.368055     6A    -11.325909
       7A    -11.278279     8A    -11.265429     9A    -11.263274
      10A     -1.385703    11A     -1.338536    12A     -1.239948
      13A     -1.171756    14A     -1.032730    15A     -0.961515
      16A     -0.869031    17A     -0.816570    18A     -0.799136
      19A     -0.771199    20A     -0.663195    21A     -0.651400
      22A     -0.636585    23A     -0.618835    24A     -0.604878
      25A     -0.592414    26A     -0.568471    27A     -0.550527
      28A     -0.537517    29A     -0.475424    30A     -0.442519
      31A     -0.416971    32A     -0.396846    33A     -0.319722

  @DF-RHF Final Energy:  -431.76748358303138

   => Energetics <=

    Nuclear Repulsion Energy =            429.0660037032802734
    One-Electron Energy =               -1438.2146455130969116
    Two-Electron Energy =                 577.3811582267852600
    Total Energy =                       -431.7674835830313214
  Basis Set: (AUG-CC-PVTZ AUX)
    Blend: AUG-CC-PVTZ-RI
    Molecular point group: c1

    Geometry (in Angstrom), charge = 0, multiplicity = 1:

       Center              X                  Y                   Z               Mass
    ------------   -----------------  -----------------  -----------------  -----------------
         O            1.289630954527     1.592213029998    -0.000003948015    15.994914619570
         N           -1.434960045473     0.979637029998     0.000003051985    14.003074004430
         N            1.792052954527    -0.665032970002     0.000000051985    14.003074004430
         N           -1.029488245473    -1.347737470002    -0.000000348015    14.003074004430
         C           -0.472874045473     0.018728029998     0.000005051985    12.000000000000
         C            0.953701954527     0.397599029998     0.000000051985    12.000000000000
         C           -2.651464045473     0.350649029998    -0.000000948015    12.000000000000
         C           -2.356570045473    -1.001686970002    -0.000002948015    12.000000000000
         C            3.232920954527    -0.518398970002     0.000000051985    12.000000000000
         H           -1.226362045473     1.972819029998     0.000009051985     1.007825032230
         H            1.357248954527    -1.581914970002     0.000007051985     1.007825032230
         H           -3.585946045473     0.892410029998    -0.000000948015     1.007825032230
         H           -3.052766045473    -1.829822970002    -0.000006948015     1.007825032230
         H            3.448750954527     0.549937029998    -0.000006948015     1.007825032230
         H            3.672513954527    -0.975574970002    -0.891024948015     1.007825032230
         H            3.672509954527    -0.975561970002     0.891033051985     1.007825032230

  Basis Set: AUG-CC-PVTZ
    Blend: AUG-CC-PVTZ
  Basis Set: (AUG-CC-PVTZ AUX)
    Blend: AUG-CC-PVTZ-JKFIT
	 Reference Energy          =    -431.7674835830313782 [Eh]
	 Singles Energy            =      -0.0000000000000000 [Eh]
	 Same-Spin Energy          =      -0.4591525471241976 [Eh]
	 Opposite-Spin Energy      =      -1.3873780909383653 [Eh]
	 Correlation Energy        =      -1.8465306380625628 [Eh]
	 Total Energy              =    -433.6140142210939530 [Eh]

	 ================> DF-SCS-MP2 Energies <==================
	-----------------------------------------------------------
	 SCS Same-Spin Scale       =       0.3333333333333333 [-]
	 SCS Opposite-Spin Scale   =       1.2000000000000000 [-]
	 SCS Same-Spin Energy      =      -0.1530508490413992 [Eh]
	 SCS Opposite-Spin Energy  =      -1.6648537091260383 [Eh]
	 SCS Correlation Energy    =      -1.8179045581674373 [Eh]
	 SCS Total Energy          =    -433.5853881411987913 [Eh]
	-----------------------------------------------------------

  Dipole Moment: [D]
     X:    -1.0704      Y:    -0.1403      Z:     0.0000     Total:     1.0796

*** Psi4 exiting successfully. Buy a developer a beer!
