                               Psi4 1.3.2 release

  ==> Input File <==

--------------------------------------------------------------------------
#psi4
#
memory 32 gb

molecule  {
0 1
  O        1.2542850     1.5918540    -0.0000040
  N       -1.4703060     0.9792780     0.0000030
  N        1.7567070    -0.6653920     0.0000000
  N       -0.9049047    -1.2559286    -0.0000010
  C       -0.5082200     0.0183690     0.0000050
  C        0.9183560     0.3972400     0.0000000
  C       -2.6868100     0.3502900    -0.0000010
  C       -2.3919160    -1.0020460    -0.0000030
  C        3.1975750    -0.5187580     0.0000000
  H       -1.2617080     1.9724600     0.0000090
  H        1.3219030    -1.5822740     0.0000070
  H       -3.6212920     0.8920510    -0.0000010
  H       -3.0881120    -1.8301820    -0.0000070
  H        3.4134050     0.5495780    -0.0000070
  H        3.6371680    -0.9759340    -0.8910250
  H        3.6371640    -0.9759210     0.8910330
units angstrom
no_reorient  #important for SAPT in psi4, default
symmetry c1  #important for SAPT in psi4, default
}

set PROPERTIES_ORIGIN ["COM"]
properties('MP2/aug-cc-pvtz', properties = ['dipole'])
--------------------------------------------------------------------------

    Molecular point group: c1
  Charge       = 0
  Multiplicity = 1
  Basis Set: AUG-CC-PVTZ
    Blend: AUG-CC-PVTZ
  Basis Set: (AUG-CC-PVTZ AUX)
    Blend: AUG-CC-PVTZ-JKFIT

    Orbital Energies [Eh]
    ---------------------

    Doubly Occupied:

       1A    -20.527510     2A    -15.633300     3A    -15.590316
       4A    -15.585835     5A    -11.363450     6A    -11.318485
       7A    -11.286999     8A    -11.272327     9A    -11.261831
      10A     -1.385516    11A     -1.337843    12A     -1.239389
      13A     -1.167520    14A     -1.036381    15A     -0.961557
      16A     -0.858257    17A     -0.816003    18A     -0.799812
      19A     -0.772094    20A     -0.662835    21A     -0.648984
      22A     -0.637066    23A     -0.611020    24A     -0.604974
      25A     -0.592984    26A     -0.569019    27A     -0.550141
      28A     -0.535163    29A     -0.480596    30A     -0.438918
      31A     -0.412115    32A     -0.390331    33A     -0.337345

  @DF-RHF Final Energy:  -431.77836161414660

   => Energetics <=

    Nuclear Repulsion Energy =            431.0949403796400929
    One-Electron Energy =               -1442.3747675763067946
    Two-Electron Energy =                 579.5014655825200407
    Total Energy =                       -431.7783616141466609
  Basis Set: (AUG-CC-PVTZ AUX)
    Blend: AUG-CC-PVTZ-RI
    Molecular point group: c1

    Geometry (in Angstrom), charge = 0, multiplicity = 1:

       Center              X                  Y                   Z               Mass
    ------------   -----------------  -----------------  -----------------  -----------------
         O            1.271723357294     1.581892822462    -0.000003880831    15.994914619570
         N           -1.452867642706     0.969316822462     0.000003119169    14.003074004430
         N            1.774145357294    -0.675353177538     0.000000119169    14.003074004430
         N           -0.887466342706    -1.265889777538    -0.000000880831    14.003074004430
         C           -0.490781642706     0.008407822462     0.000005119169    12.000000000000
         C            0.935794357294     0.387278822462     0.000000119169    12.000000000000
         C           -2.669371642706     0.340328822462    -0.000000880831    12.000000000000
         C           -2.374477642706    -1.012007177538    -0.000002880831    12.000000000000
         C            3.215013357294    -0.528719177538     0.000000119169    12.000000000000
         H           -1.244269642706     1.962498822462     0.000009119169     1.007825032230
         H            1.339341357294    -1.592235177538     0.000007119169     1.007825032230
         H           -3.603853642706     0.882089822462    -0.000000880831     1.007825032230
         H           -3.070673642706    -1.840143177538    -0.000006880831     1.007825032230
         H            3.430843357294     0.539616822462    -0.000006880831     1.007825032230
         H            3.654606357294    -0.985895177538    -0.891024880831     1.007825032230
         H            3.654602357294    -0.985882177538     0.891033119169     1.007825032230

  Basis Set: AUG-CC-PVTZ
    Blend: AUG-CC-PVTZ
  Basis Set: (AUG-CC-PVTZ AUX)
    Blend: AUG-CC-PVTZ-JKFIT
	 Reference Energy          =    -431.7783616141466041 [Eh]
	 Singles Energy            =      -0.0000000000000000 [Eh]
	 Same-Spin Energy          =      -0.4554052848079014 [Eh]
	 Opposite-Spin Energy      =      -1.3831203218257841 [Eh]
	 Correlation Energy        =      -1.8385256066336855 [Eh]
	 Total Energy              =    -433.6168872207803133 [Eh]

	 ================> DF-SCS-MP2 Energies <==================
	-----------------------------------------------------------
	 SCS Same-Spin Scale       =       0.3333333333333333 [-]
	 SCS Opposite-Spin Scale   =       1.2000000000000000 [-]
	 SCS Same-Spin Energy      =      -0.1518017616026338 [Eh]
	 SCS Opposite-Spin Energy  =      -1.6597443861909409 [Eh]
	 SCS Correlation Energy    =      -1.8115461477935746 [Eh]
	 SCS Total Energy          =    -433.5899077619401965 [Eh]
	-----------------------------------------------------------

  Dipole Moment: [D]
     X:    -1.1563      Y:    -0.2732      Z:     0.0000     Total:     1.1882

*** Psi4 exiting successfully. Buy a developer a beer!
