                               Psi4 1.4a3.dev225

  ==> Input File <==

--------------------------------------------------------------------------
#psi4
#
memory 32 gb

molecule  {
0 1
  O        1.2542850     1.5918540    -0.0000040
  N       -1.4703060     0.9792780     0.0000030
  N        1.7567070    -0.6653920     0.0000000
  N       -1.0359320    -1.2074830     0.0000000
  C       -0.5082200     0.0183690     0.0000050
  C        0.9376859     0.4023737    -0.0000001
  C       -2.6868100     0.3502900    -0.0000010
  C       -2.3919160    -1.0020460    -0.0000030
  C        3.1975750    -0.5187580     0.0000000
  H       -1.2617080     1.9724600     0.0000090
  H        1.3219030    -1.5822740     0.0000070
  H       -3.6212920     0.8920510    -0.0000010
  H       -3.0881120    -1.8301820    -0.0000070
  H        3.4134050     0.5495780    -0.0000070
  H        3.6371680    -0.9759340    -0.8910250
  H        3.6371640    -0.9759210     0.8910330
units angstrom
no_reorient  #important for SAPT in psi4, default
symmetry c1  #important for SAPT in psi4, default
}

set PROPERTIES_ORIGIN ["COM"]
properties('MP2/aug-cc-pvtz', properties = ['dipole'])
--------------------------------------------------------------------------

    Molecular point group: c1
  Charge       = 0
  Multiplicity = 1
  Basis Set: AUG-CC-PVTZ
    Blend: AUG-CC-PVTZ
  Basis Set: (AUG-CC-PVTZ AUX)
    Blend: AUG-CC-PVTZ-JKFIT

    Orbital Energies [Eh]
    ---------------------

    Doubly Occupied:

       1A    -20.529169     2A    -15.633957     3A    -15.593601
       4A    -15.568792     5A    -11.366697     6A    -11.309868
       7A    -11.277678     8A    -11.263752     9A    -11.259122
      10A     -1.391847    11A     -1.347811    12A     -1.244208
      13A     -1.178761    14A     -1.034918    15A     -0.962715
      16A     -0.854665    17A     -0.822986    18A     -0.796711
      19A     -0.775045    20A     -0.668641    21A     -0.653070
      22A     -0.639637    23A     -0.612856    24A     -0.607777
      25A     -0.594993    26A     -0.586412    27A     -0.552508
      28A     -0.540028    29A     -0.463256    30A     -0.442010
      31A     -0.417307    32A     -0.397288    33A     -0.327251

  @DF-RHF Final Energy:  -431.79777219663436

   => Energetics <=

    Nuclear Repulsion Energy =            432.5525442684171367
    One-Electron Energy =               -1445.2699598246424557
    Two-Electron Energy =                 580.9196433595909639
    Total Energy =                       -431.7977721966343552
  Basis Set: (AUG-CC-PVTZ AUX)
    Blend: AUG-CC-PVTZ-RI
    Molecular point group: c1

    Geometry (in Angstrom), charge = 0, multiplicity = 1:

       Center              X                  Y                   Z               Mass
    ------------   -----------------  -----------------  -----------------  -----------------
         O            1.284539926338     1.575975677407    -0.000003983208    15.994914619570
         N           -1.440051073662     0.963399677407     0.000003016792    14.003074004430
         N            1.786961926338    -0.681270322593     0.000000016792    14.003074004430
         N           -1.005677073662    -1.223361322593     0.000000016792    14.003074004430
         C           -0.477965073662     0.002490677407     0.000005016792    12.000000000000
         C            0.967940826338     0.386495377407    -0.000000083208    12.000000000000
         C           -2.656555073662     0.334411677407    -0.000000983208    12.000000000000
         C           -2.361661073662    -1.017924322593    -0.000002983208    12.000000000000
         C            3.227829926338    -0.534636322593     0.000000016792    12.000000000000
         H           -1.231453073662     1.956581677407     0.000009016792     1.007825032230
         H            1.352157926338    -1.598152322593     0.000007016792     1.007825032230
         H           -3.591037073662     0.876172677407    -0.000000983208     1.007825032230
         H           -3.057857073662    -1.846060322593    -0.000006983208     1.007825032230
         H            3.443659926338     0.533699677407    -0.000006983208     1.007825032230
         H            3.667422926338    -0.991812322593    -0.891024983208     1.007825032230
         H            3.667418926338    -0.991799322593     0.891033016792     1.007825032230

  Basis Set: AUG-CC-PVTZ
    Blend: AUG-CC-PVTZ
  Basis Set: (AUG-CC-PVTZ AUX)
    Blend: AUG-CC-PVTZ-JKFIT
	 Reference Energy          =    -431.7977721966343552 [Eh]
	 Singles Energy            =      -0.0000000000000000 [Eh]
	 Same-Spin Energy          =      -0.4552719299382054 [Eh]
	 Opposite-Spin Energy      =      -1.3788191932611817 [Eh]
	 Correlation Energy        =      -1.8340911231993871 [Eh]
	 Total Energy              =    -433.6318633198337693 [Eh]

	 ================> DF-SCS-MP2 Energies <==================
	-----------------------------------------------------------
	 SCS Same-Spin Scale       =       0.3333333333333333 [-]
	 SCS Opposite-Spin Scale   =       1.2000000000000000 [-]
	 SCS Same-Spin Energy      =      -0.1517573099794018 [Eh]
	 SCS Opposite-Spin Energy  =      -1.6545830319134180 [Eh]
	 SCS Correlation Energy    =      -1.8063403418928199 [Eh]
	 SCS Total Energy          =    -433.6041125385271471 [Eh]
	-----------------------------------------------------------

  Dipole Moment: [D]
     X:    -0.8236      Y:    -0.3692      Z:     0.0000     Total:     0.9025

*** Psi4 exiting successfully. Buy a developer a beer!
