                               Psi4 1.3.2 release

  ==> Input File <==

--------------------------------------------------------------------------
#psi4
#
memory 32 gb

molecule  {
0 1
  O        1.2542850     1.5918540    -0.0000040
  N       -1.4703060     0.9792780     0.0000030
  N        1.7567070    -0.6653920     0.0000000
  N       -1.0359320    -1.2074830     0.0000000
  C       -0.5082200     0.0183690     0.0000050
  C        0.9183560     0.3972400     0.0000000
  C       -2.6868100     0.3502900    -0.0000010
  C       -2.3448998    -0.9909305    -0.0000029
  C        3.1975750    -0.5187580     0.0000000
  H       -1.2617080     1.9724600     0.0000090
  H        1.3219030    -1.5822740     0.0000070
  H       -3.6212920     0.8920510    -0.0000010
  H       -3.0881120    -1.8301820    -0.0000070
  H        3.4134050     0.5495780    -0.0000070
  H        3.6371680    -0.9759340    -0.8910250
  H        3.6371640    -0.9759210     0.8910330
units angstrom
no_reorient  #important for SAPT in psi4, default
symmetry c1  #important for SAPT in psi4, default
}

set PROPERTIES_ORIGIN ["COM"]
properties('MP2/aug-cc-pvtz', properties = ['dipole'])
--------------------------------------------------------------------------

    Molecular point group: c1
  Charge       = 0
  Multiplicity = 1
  Basis Set: AUG-CC-PVTZ
    Blend: AUG-CC-PVTZ
  Basis Set: (AUG-CC-PVTZ AUX)
    Blend: AUG-CC-PVTZ-JKFIT

    Orbital Energies [Eh]
    ---------------------

    Doubly Occupied:

       1A    -20.526708     2A    -15.637807     3A    -15.592339
       4A    -15.569507     5A    -11.365785     6A    -11.309588
       7A    -11.277295     8A    -11.262856     9A    -11.260639
      10A     -1.387668    11A     -1.353811    12A     -1.239840
      13A     -1.190906    14A     -1.037927    15A     -0.961558
      16A     -0.861624    17A     -0.821500    18A     -0.798938
      19A     -0.772862    20A     -0.669490    21A     -0.651691
      22A     -0.640237    23A     -0.615863    24A     -0.610277
      25A     -0.592208    26A     -0.582021    27A     -0.550282
      28A     -0.536736    29A     -0.465729    30A     -0.442536
      31A     -0.424670    32A     -0.396104    33A     -0.325492

  @DF-RHF Final Energy:  -431.79389250455921

   => Energetics <=

    Nuclear Repulsion Energy =            433.6102552086958326
    One-Electron Energy =               -1447.3433082951735287
    Two-Electron Energy =                 581.9391605819183724
    Total Energy =                       -431.7938925045592669
  Basis Set: (AUG-CC-PVTZ AUX)
    Blend: AUG-CC-PVTZ-RI
    Molecular point group: c1

    Geometry (in Angstrom), charge = 0, multiplicity = 1:

       Center              X                  Y                   Z               Mass
    ------------   -----------------  -----------------  -----------------  -----------------
         O            1.281883293596     1.575401695121    -0.000004002399    15.994914619570
         N           -1.442707706404     0.962825695121     0.000002997601    14.003074004430
         N            1.784305293596    -0.681844304879    -0.000000002399    14.003074004430
         N           -1.008333706404    -1.223935304879    -0.000000002399    14.003074004430
         C           -0.480621706404     0.001916695121     0.000004997601    12.000000000000
         C            0.945954293596     0.380787695121    -0.000000002399    12.000000000000
         C           -2.659211706404     0.333837695121    -0.000001002399    12.000000000000
         C           -2.317301506404    -1.007382804879    -0.000002902399    12.000000000000
         C            3.225173293596    -0.535210304879    -0.000000002399    12.000000000000
         H           -1.234109706404     1.956007695121     0.000008997601     1.007825032230
         H            1.349501293596    -1.598726304879     0.000006997601     1.007825032230
         H           -3.593693706404     0.875598695121    -0.000001002399     1.007825032230
         H           -3.060513706404    -1.846634304879    -0.000007002399     1.007825032230
         H            3.441003293596     0.533125695121    -0.000007002399     1.007825032230
         H            3.664766293596    -0.992386304879    -0.891025002399     1.007825032230
         H            3.664762293596    -0.992373304879     0.891032997601     1.007825032230

  Basis Set: AUG-CC-PVTZ
    Blend: AUG-CC-PVTZ
  Basis Set: (AUG-CC-PVTZ AUX)
    Blend: AUG-CC-PVTZ-JKFIT
	 Reference Energy          =    -431.7938925045592100 [Eh]
	 Singles Energy            =      -0.0000000000000000 [Eh]
	 Same-Spin Energy          =      -0.4561270412902668 [Eh]
	 Opposite-Spin Energy      =      -1.3794047067203734 [Eh]
	 Correlation Energy        =      -1.8355317480106401 [Eh]
	 Total Energy              =    -433.6294242525698337 [Eh]

	 ================> DF-SCS-MP2 Energies <==================
	-----------------------------------------------------------
	 SCS Same-Spin Scale       =       0.3333333333333333 [-]
	 SCS Opposite-Spin Scale   =       1.2000000000000000 [-]
	 SCS Same-Spin Energy      =      -0.1520423470967556 [Eh]
	 SCS Opposite-Spin Energy  =      -1.6552856480644480 [Eh]
	 SCS Correlation Energy    =      -1.8073279951612036 [Eh]
	 SCS Total Energy          =    -433.6012204997203980 [Eh]
	-----------------------------------------------------------

  Dipole Moment: [D]
     X:    -0.9721      Y:    -0.3898      Z:     0.0000     Total:     1.0473

*** Psi4 exiting successfully. Buy a developer a beer!
