                               Psi4 1.3.2 release

  ==> Input File <==

--------------------------------------------------------------------------
#psi4
#
memory 32 gb

molecule  {
0 1
  O        1.2542850     1.5918540    -0.0000040
  N       -1.4869296     0.9623409     0.0000029
  N        1.7567070    -0.6653920     0.0000000
  N       -1.0359320    -1.2074830     0.0000000
  C       -0.5082200     0.0183690     0.0000050
  C        0.9183560     0.3972400     0.0000000
  C       -2.6868100     0.3502900    -0.0000010
  C       -2.3919160    -1.0020460    -0.0000030
  C        3.1975750    -0.5187580     0.0000000
  H       -1.2617080     1.9724600     0.0000090
  H        1.3219030    -1.5822740     0.0000070
  H       -3.6212920     0.8920510    -0.0000010
  H       -3.0881120    -1.8301820    -0.0000070
  H        3.4134050     0.5495780    -0.0000070
  H        3.6371680    -0.9759340    -0.8910250
  H        3.6371640    -0.9759210     0.8910330
units angstrom
no_reorient  #important for SAPT in psi4, default
symmetry c1  #important for SAPT in psi4, default
}

set PROPERTIES_ORIGIN ["COM"]
properties('MP2/aug-cc-pvtz', properties = ['dipole'])
--------------------------------------------------------------------------

    Molecular point group: c1
  Charge       = 0
  Multiplicity = 1
  Basis Set: AUG-CC-PVTZ
    Blend: AUG-CC-PVTZ
  Basis Set: (AUG-CC-PVTZ AUX)
    Blend: AUG-CC-PVTZ-JKFIT

    Orbital Energies [Eh]
    ---------------------

    Doubly Occupied:

       1A    -20.527521     2A    -15.637321     3A    -15.592374
       4A    -15.570699     5A    -11.366799     6A    -11.308163
       7A    -11.278382     8A    -11.262917     9A    -11.258803
      10A     -1.387277    11A     -1.351771    12A     -1.239829
      13A     -1.179890    14A     -1.039541    15A     -0.962293
      16A     -0.855982    17A     -0.824674    18A     -0.796985
      19A     -0.773000    20A     -0.672598    21A     -0.650674
      22A     -0.639660    23A     -0.609831    24A     -0.608887
      25A     -0.598006    26A     -0.586243    27A     -0.550458
      28A     -0.537327    29A     -0.463781    30A     -0.442252
      31A     -0.418267    32A     -0.395311    33A     -0.327574

  @DF-RHF Final Energy:  -431.79578458888273

   => Energetics <=

    Nuclear Repulsion Energy =            432.8378128773063054
    One-Electron Energy =               -1445.8370176210314639
    Two-Electron Energy =                 581.2034201548424335
    Total Energy =                       -431.7957845888827251
  Basis Set: (AUG-CC-PVTZ AUX)
    Blend: AUG-CC-PVTZ-RI
    Molecular point group: c1

    Geometry (in Angstrom), charge = 0, multiplicity = 1:

       Center              X                  Y                   Z               Mass
    ------------   -----------------  -----------------  -----------------  -----------------
         O            1.288256097334     1.578364758363    -0.000003981606    15.994914619570
         N           -1.452958502666     0.948851658363     0.000002918394    14.003074004430
         N            1.790678097334    -0.678881241637     0.000000018394    14.003074004430
         N           -1.001960902666    -1.220972241637     0.000000018394    14.003074004430
         C           -0.474248902666     0.004879758363     0.000005018394    12.000000000000
         C            0.952327097334     0.383750758363     0.000000018394    12.000000000000
         C           -2.652838902666     0.336800758363    -0.000000981606    12.000000000000
         C           -2.357944902666    -1.015535241637    -0.000002981606    12.000000000000
         C            3.231546097334    -0.532247241637     0.000000018394    12.000000000000
         H           -1.227736902666     1.958970758363     0.000009018394     1.007825032230
         H            1.355874097334    -1.595763241637     0.000007018394     1.007825032230
         H           -3.587320902666     0.878561758363    -0.000000981606     1.007825032230
         H           -3.054140902666    -1.843671241637    -0.000006981606     1.007825032230
         H            3.447376097334     0.536088758363    -0.000006981606     1.007825032230
         H            3.671139097334    -0.989423241637    -0.891024981606     1.007825032230
         H            3.671135097334    -0.989410241637     0.891033018394     1.007825032230

  Basis Set: AUG-CC-PVTZ
    Blend: AUG-CC-PVTZ
  Basis Set: (AUG-CC-PVTZ AUX)
    Blend: AUG-CC-PVTZ-JKFIT
	 Reference Energy          =    -431.7957845888827251 [Eh]
	 Singles Energy            =      -0.0000000000000000 [Eh]
	 Same-Spin Energy          =      -0.4560411768799881 [Eh]
	 Opposite-Spin Energy      =      -1.3796563573605605 [Eh]
	 Correlation Energy        =      -1.8356975342405486 [Eh]
	 Total Energy              =    -433.6314821231232486 [Eh]

	 ================> DF-SCS-MP2 Energies <==================
	-----------------------------------------------------------
	 SCS Same-Spin Scale       =       0.3333333333333333 [-]
	 SCS Opposite-Spin Scale   =       1.2000000000000000 [-]
	 SCS Same-Spin Energy      =      -0.1520137256266627 [Eh]
	 SCS Opposite-Spin Energy  =      -1.6555876288326725 [Eh]
	 SCS Correlation Energy    =      -1.8076013544593352 [Eh]
	 SCS Total Energy          =    -433.6033859433420616 [Eh]
	-----------------------------------------------------------

  Dipole Moment: [D]
     X:    -0.9772      Y:    -0.3437      Z:     0.0000     Total:     1.0358

*** Psi4 exiting successfully. Buy a developer a beer!
