                               Psi4 1.3.2 release

  ==> Input File <==

--------------------------------------------------------------------------
#psi4
#
memory 32 gb

molecule  {
0 1
  O        1.2542850     1.5918540    -0.0000040
  N       -1.4703060     0.9792780     0.0000030
  N        1.7567070    -0.6653920     0.0000000
  N       -1.0359320    -1.2074830     0.0000000
  C       -0.5082200     0.0183690     0.0000050
  C        0.9183560     0.3972400     0.0000000
  C       -2.6868100     0.3502900    -0.0000010
  C       -2.3919160    -1.0020460    -0.0000030
  C        3.1975750    -0.5187580     0.0000000
  H       -1.2617080     1.9724600     0.0000090
  H        1.3219030    -1.5822740     0.0000070
  H       -3.5347793     0.8418957    -0.0000010
  H       -3.0881120    -1.8301820    -0.0000070
  H        3.4134050     0.5495780    -0.0000070
  H        3.6371680    -0.9759340    -0.8910250
  H        3.6371640    -0.9759210     0.8910330
units angstrom
no_reorient  #important for SAPT in psi4, default
symmetry c1  #important for SAPT in psi4, default
}

set PROPERTIES_ORIGIN ["COM"]
properties('MP2/aug-cc-pvtz', properties = ['dipole'])
--------------------------------------------------------------------------

    Molecular point group: c1
  Charge       = 0
  Multiplicity = 1
  Basis Set: AUG-CC-PVTZ
    Blend: AUG-CC-PVTZ
  Basis Set: (AUG-CC-PVTZ AUX)
    Blend: AUG-CC-PVTZ-JKFIT

    Orbital Energies [Eh]
    ---------------------

    Doubly Occupied:

       1A    -20.527660     2A    -15.635108     3A    -15.592504
       4A    -15.570543     5A    -11.366410     6A    -11.310251
       7A    -11.268541     8A    -11.262940     9A    -11.260397
      10A     -1.386764    11A     -1.347661    12A     -1.239872
      13A     -1.180271    14A     -1.041291    15A     -0.964124
      16A     -0.860484    17A     -0.827720    18A     -0.803633
      19A     -0.776391    20A     -0.675790    21A     -0.653394
      22A     -0.638730    23A     -0.619619    24A     -0.607913
      25A     -0.599698    26A     -0.586327    27A     -0.550545
      28A     -0.536589    29A     -0.464573    30A     -0.442379
      31A     -0.417810    32A     -0.395246    33A     -0.328782

  @DF-RHF Final Energy:  -431.79066722755135

   => Energetics <=

    Nuclear Repulsion Energy =            433.1401039489779805
    One-Electron Energy =               -1446.3816189247932016
    Two-Electron Energy =                 581.4508477482638682
    Total Energy =                       -431.7906672275513529
  Basis Set: (AUG-CC-PVTZ AUX)
    Blend: AUG-CC-PVTZ-RI
    Molecular point group: c1

    Geometry (in Angstrom), charge = 0, multiplicity = 1:

       Center              X                  Y                   Z               Mass
    ------------   -----------------  -----------------  -----------------  -----------------
         O            1.285697533847     1.576872472086    -0.000003992803    15.994914619570
         N           -1.438893466153     0.964296472086     0.000003007197    14.003074004430
         N            1.788119533847    -0.680373527914     0.000000007197    14.003074004430
         N           -1.004519466153    -1.222464527914     0.000000007197    14.003074004430
         C           -0.476807466153     0.003387472086     0.000005007197    12.000000000000
         C            0.949768533847     0.382258472086     0.000000007197    12.000000000000
         C           -2.655397466153     0.335308472086    -0.000000992803    12.000000000000
         C           -2.360503466153    -1.017027527914    -0.000002992803    12.000000000000
         C            3.228987533847    -0.533739527914     0.000000007197    12.000000000000
         H           -1.230295466153     1.957478472086     0.000009007197     1.007825032230
         H            1.353315533847    -1.597255527914     0.000007007197     1.007825032230
         H           -3.503366766153     0.826914172086    -0.000000992803     1.007825032230
         H           -3.056699466153    -1.845163527914    -0.000006992803     1.007825032230
         H            3.444817533847     0.534596472086    -0.000006992803     1.007825032230
         H            3.668580533847    -0.990915527914    -0.891024992803     1.007825032230
         H            3.668576533847    -0.990902527914     0.891033007197     1.007825032230

  Basis Set: AUG-CC-PVTZ
    Blend: AUG-CC-PVTZ
  Basis Set: (AUG-CC-PVTZ AUX)
    Blend: AUG-CC-PVTZ-JKFIT
	 Reference Energy          =    -431.7906672275513529 [Eh]
	 Singles Energy            =      -0.0000000000000000 [Eh]
	 Same-Spin Energy          =      -0.4555439884270598 [Eh]
	 Opposite-Spin Energy      =      -1.3791258901886110 [Eh]
	 Correlation Energy        =      -1.8346698786156708 [Eh]
	 Total Energy              =    -433.6253371061670236 [Eh]

	 ================> DF-SCS-MP2 Energies <==================
	-----------------------------------------------------------
	 SCS Same-Spin Scale       =       0.3333333333333333 [-]
	 SCS Opposite-Spin Scale   =       1.2000000000000000 [-]
	 SCS Same-Spin Energy      =      -0.1518479961423533 [Eh]
	 SCS Opposite-Spin Energy  =      -1.6549510682263331 [Eh]
	 SCS Correlation Energy    =      -1.8067990643686864 [Eh]
	 SCS Total Energy          =    -433.5974662919200568 [Eh]
	-----------------------------------------------------------

  Dipole Moment: [D]
     X:    -0.9652      Y:    -0.4065      Z:     0.0000     Total:     1.0473

*** Psi4 exiting successfully. Buy a developer a beer!
