                               Psi4 1.4a3.dev225

  ==> Input File <==

--------------------------------------------------------------------------
#psi4
#
memory 32 gb

molecule  {
0 1
  O        1.2542850     1.5918540    -0.0000040
  N       -1.4703060     0.9792780     0.0000030
  N        1.7567070    -0.6653920     0.0000000
  N       -1.0359320    -1.2074830     0.0000000
  C       -0.5082200     0.0183690     0.0000050
  C        0.9028992     0.3845480     0.0000000
  C       -2.6868100     0.3502900    -0.0000010
  C       -2.3919160    -1.0020460    -0.0000030
  C        3.1975750    -0.5187580     0.0000000
  H       -1.2617080     1.9724600     0.0000090
  H        1.3219030    -1.5822740     0.0000070
  H       -3.6212920     0.8920510    -0.0000010
  H       -3.0881120    -1.8301820    -0.0000070
  H        3.4134050     0.5495780    -0.0000070
  H        3.6371680    -0.9759340    -0.8910250
  H        3.6371640    -0.9759210     0.8910330
units angstrom
no_reorient  #important for SAPT in psi4, default
symmetry c1  #important for SAPT in psi4, default
}

set PROPERTIES_ORIGIN ["COM"]
properties('MP2/aug-cc-pvtz', properties = ['dipole'])
--------------------------------------------------------------------------

    Molecular point group: c1
  Charge       = 0
  Multiplicity = 1
  Basis Set: AUG-CC-PVTZ
    Blend: AUG-CC-PVTZ
  Basis Set: (AUG-CC-PVTZ AUX)
    Blend: AUG-CC-PVTZ-JKFIT

    Orbital Energies [Eh]
    ---------------------

    Doubly Occupied:

       1A    -20.524509     2A    -15.637092     3A    -15.593268
       4A    -15.572838     5A    -11.366063     6A    -11.310730
       7A    -11.281537     8A    -11.263172     9A    -11.262007
      10A     -1.380239    11A     -1.345856    12A     -1.238032
      13A     -1.181556    14A     -1.041875    15A     -0.963078
      16A     -0.862278    17A     -0.826311    18A     -0.798690
      19A     -0.771859    20A     -0.669193    21A     -0.648907
      22A     -0.638880    23A     -0.614237    24A     -0.608738
      25A     -0.598255    26A     -0.584034    27A     -0.549357
      28A     -0.532297    29A     -0.465435    30A     -0.441202
      31A     -0.418784    32A     -0.393780    33A     -0.330020

  @DF-RHF Final Energy:  -431.79464814734740

   => Energetics <=

    Nuclear Repulsion Energy =            432.6219293974051538
    One-Electron Energy =               -1445.4049350707443864
    Two-Electron Energy =                 580.9883575259917734
    Total Energy =                       -431.7946481473474023
  Basis Set: (AUG-CC-PVTZ AUX)
    Blend: AUG-CC-PVTZ-RI
    Molecular point group: c1

    Geometry (in Angstrom), charge = 0, multiplicity = 1:

       Center              X                  Y                   Z               Mass
    ------------   -----------------  -----------------  -----------------  -----------------
         O            1.287877876380     1.577686138475    -0.000003992803    15.994914619570
         N           -1.436713123620     0.965110138475     0.000003007197    14.003074004430
         N            1.790299876380    -0.679559861525     0.000000007197    14.003074004430
         N           -1.002339123620    -1.221650861525     0.000000007197    14.003074004430
         C           -0.474627123620     0.004201138475     0.000005007197    12.000000000000
         C            0.936492076380     0.370380138475     0.000000007197    12.000000000000
         C           -2.653217123620     0.336122138475    -0.000000992803    12.000000000000
         C           -2.358323123620    -1.016213861525    -0.000002992803    12.000000000000
         C            3.231167876380    -0.532925861525     0.000000007197    12.000000000000
         H           -1.228115123620     1.958292138475     0.000009007197     1.007825032230
         H            1.355495876380    -1.596441861525     0.000007007197     1.007825032230
         H           -3.587699123620     0.877883138475    -0.000000992803     1.007825032230
         H           -3.054519123620    -1.844349861525    -0.000006992803     1.007825032230
         H            3.446997876380     0.535410138475    -0.000006992803     1.007825032230
         H            3.670760876380    -0.990101861525    -0.891024992803     1.007825032230
         H            3.670756876380    -0.990088861525     0.891033007197     1.007825032230

  Basis Set: AUG-CC-PVTZ
    Blend: AUG-CC-PVTZ
  Basis Set: (AUG-CC-PVTZ AUX)
    Blend: AUG-CC-PVTZ-JKFIT
	 Reference Energy          =    -431.7946481473474023 [Eh]
	 Singles Energy            =      -0.0000000000000000 [Eh]
	 Same-Spin Energy          =      -0.4562555456633633 [Eh]
	 Opposite-Spin Energy      =      -1.3806123491478455 [Eh]
	 Correlation Energy        =      -1.8368678948112089 [Eh]
	 Total Energy              =    -433.6315160421586370 [Eh]

	 ================> DF-SCS-MP2 Energies <==================
	-----------------------------------------------------------
	 SCS Same-Spin Scale       =       0.3333333333333333 [-]
	 SCS Opposite-Spin Scale   =       1.2000000000000000 [-]
	 SCS Same-Spin Energy      =      -0.1520851818877878 [Eh]
	 SCS Opposite-Spin Energy  =      -1.6567348189774145 [Eh]
	 SCS Correlation Energy    =      -1.8088200008652022 [Eh]
	 SCS Total Energy          =    -433.6034681482125848 [Eh]
	-----------------------------------------------------------

  Dipole Moment: [D]
     X:    -1.0819      Y:    -0.4869      Z:     0.0000     Total:     1.1864

*** Psi4 exiting successfully. Buy a developer a beer!
