                               Psi4 1.4a3.dev225

  ==> Input File <==

--------------------------------------------------------------------------
#psi4
#
memory 32 gb

molecule  {
0 1
  O        1.2542850     1.5918540    -0.0000040
  N       -1.4703060     0.9792780     0.0000030
  N        1.7567070    -0.6653920     0.0000000
  N       -1.0359320    -1.2074830     0.0000000
  C       -0.5082200     0.0183690     0.0000050
  C        0.9666808     0.4100741    -0.0000002
  C       -2.6868100     0.3502900    -0.0000010
  C       -2.3919160    -1.0020460    -0.0000030
  C        3.1975750    -0.5187580     0.0000000
  H       -1.2617080     1.9724600     0.0000090
  H        1.3219030    -1.5822740     0.0000070
  H       -3.6212920     0.8920510    -0.0000010
  H       -3.0881120    -1.8301820    -0.0000070
  H        3.4134050     0.5495780    -0.0000070
  H        3.6371680    -0.9759340    -0.8910250
  H        3.6371640    -0.9759210     0.8910330
units angstrom
no_reorient  #important for SAPT in psi4, default
symmetry c1  #important for SAPT in psi4, default
}

set PROPERTIES_ORIGIN ["COM"]
properties('MP2/aug-cc-pvtz', properties = ['dipole'])
--------------------------------------------------------------------------

    Molecular point group: c1
  Charge       = 0
  Multiplicity = 1
  Basis Set: AUG-CC-PVTZ
    Blend: AUG-CC-PVTZ
  Basis Set: (AUG-CC-PVTZ AUX)
    Blend: AUG-CC-PVTZ-JKFIT

    Orbital Energies [Eh]
    ---------------------

    Doubly Occupied:

       1A    -20.531434     2A    -15.631440     3A    -15.595199
       4A    -15.565556     5A    -11.367094     6A    -11.308603
       7A    -11.274741     8A    -11.264922     9A    -11.256812
      10A     -1.400232    11A     -1.346732    12A     -1.250712
      13A     -1.176419    14A     -1.029868    15A     -0.963678
      16A     -0.849078    17A     -0.820184    18A     -0.796971
      19A     -0.776836    20A     -0.668863    21A     -0.656301
      22A     -0.641357    23A     -0.611195    24A     -0.606837
      25A     -0.592867    26A     -0.586525    27A     -0.555226
      28A     -0.545038    29A     -0.461517    30A     -0.440443
      31A     -0.416555    32A     -0.399771    33A     -0.324941

  @DF-RHF Final Energy:  -431.79711988540816

   => Energetics <=

    Nuclear Repulsion Energy =            432.5045864424120623
    One-Electron Energy =               -1445.1755168800755200
    Two-Electron Energy =                 580.8738105522552360
    Total Energy =                       -431.7971198854081649
  Basis Set: (AUG-CC-PVTZ AUX)
    Blend: AUG-CC-PVTZ-RI
    Molecular point group: c1

    Geometry (in Angstrom), charge = 0, multiplicity = 1:

       Center              X                  Y                   Z               Mass
    ------------   -----------------  -----------------  -----------------  -----------------
         O            1.281757727175     1.575236787242    -0.000003973612    15.994914619570
         N           -1.442833272825     0.962660787242     0.000003026388    14.003074004430
         N            1.784179727175    -0.682009212758     0.000000026388    14.003074004430
         N           -1.008459272825    -1.224100212758     0.000000026388    14.003074004430
         C           -0.480747272825     0.001751787242     0.000005026388    12.000000000000
         C            0.994153527175     0.393456887242    -0.000000173612    12.000000000000
         C           -2.659337272825     0.333672787242    -0.000000973612    12.000000000000
         C           -2.364443272825    -1.018663212758    -0.000002973612    12.000000000000
         C            3.225047727175    -0.535375212758     0.000000026388    12.000000000000
         H           -1.234235272825     1.955842787242     0.000009026388     1.007825032230
         H            1.349375727175    -1.598891212758     0.000007026388     1.007825032230
         H           -3.593819272825     0.875433787242    -0.000000973612     1.007825032230
         H           -3.060639272825    -1.846799212758    -0.000006973612     1.007825032230
         H            3.440877727175     0.532960787242    -0.000006973612     1.007825032230
         H            3.664640727175    -0.992551212758    -0.891024973612     1.007825032230
         H            3.664636727175    -0.992538212758     0.891033026388     1.007825032230

  Basis Set: AUG-CC-PVTZ
    Blend: AUG-CC-PVTZ
  Basis Set: (AUG-CC-PVTZ AUX)
    Blend: AUG-CC-PVTZ-JKFIT
	 Reference Energy          =    -431.7971198854081649 [Eh]
	 Singles Energy            =      -0.0000000000000000 [Eh]
	 Same-Spin Energy          =      -0.4547044147185579 [Eh]
	 Opposite-Spin Energy      =      -1.3777930385796702 [Eh]
	 Correlation Energy        =      -1.8324974532982281 [Eh]
	 Total Energy              =    -433.6296173387063959 [Eh]

	 ================> DF-SCS-MP2 Energies <==================
	-----------------------------------------------------------
	 SCS Same-Spin Scale       =       0.3333333333333333 [-]
	 SCS Opposite-Spin Scale   =       1.2000000000000000 [-]
	 SCS Same-Spin Energy      =      -0.1515681382395193 [Eh]
	 SCS Opposite-Spin Energy  =      -1.6533516462956042 [Eh]
	 SCS Correlation Energy    =      -1.8049197845351235 [Eh]
	 SCS Total Energy          =    -433.6020396699432808 [Eh]
	-----------------------------------------------------------

  Dipole Moment: [D]
     X:    -0.5926      Y:    -0.3217      Z:     0.0000     Total:     0.6743

*** Psi4 exiting successfully. Buy a developer a beer!
