                               Psi4 1.3.2 release

  ==> Input File <==

--------------------------------------------------------------------------
#psi4
#
memory 32 gb

molecule  {
0 1
  O        1.2542850     1.5918540    -0.0000040
  N       -1.4703060     0.9792780     0.0000030
  N        1.7567070    -0.6653920     0.0000000
  N       -1.0359320    -1.2074830     0.0000000
  C       -0.5082200     0.0183690     0.0000050
  C        0.9183560     0.3972400     0.0000000
  C       -2.6868100     0.3502900    -0.0000010
  C       -2.4907877    -0.9870665    -0.0000032
  C        3.1975750    -0.5187580     0.0000000
  H       -1.2617080     1.9724600     0.0000090
  H        1.3219030    -1.5822740     0.0000070
  H       -3.6212920     0.8920510    -0.0000010
  H       -3.0881120    -1.8301820    -0.0000070
  H        3.4134050     0.5495780    -0.0000070
  H        3.6371680    -0.9759340    -0.8910250
  H        3.6371640    -0.9759210     0.8910330
units angstrom
no_reorient  #important for SAPT in psi4, default
symmetry c1  #important for SAPT in psi4, default
}

set PROPERTIES_ORIGIN ["COM"]
properties('MP2/aug-cc-pvtz', properties = ['dipole'])
--------------------------------------------------------------------------

    Molecular point group: c1
  Charge       = 0
  Multiplicity = 1
  Basis Set: AUG-CC-PVTZ
    Blend: AUG-CC-PVTZ
  Basis Set: (AUG-CC-PVTZ AUX)
    Blend: AUG-CC-PVTZ-JKFIT

    Orbital Energies [Eh]
    ---------------------

    Doubly Occupied:

       1A    -20.530204     2A    -15.629576     3A    -15.593598
       4A    -15.572451     5A    -11.368291     6A    -11.313336
       7A    -11.281057     8A    -11.263594     9A    -11.259270
      10A     -1.387286    11A     -1.339346    12A     -1.240738
      13A     -1.159723    14A     -1.043779    15A     -0.965073
      16A     -0.858703    17A     -0.825611    18A     -0.794768
      19A     -0.772779    20A     -0.667712    21A     -0.650455
      22A     -0.637819    23A     -0.629144    24A     -0.605405
      25A     -0.591543    26A     -0.581387    27A     -0.551191
      28A     -0.537449    29A     -0.461465    30A     -0.440065
      31A     -0.407953    32A     -0.391278    33A     -0.341579

  @DF-RHF Final Energy:  -431.78736611010663

   => Energetics <=

    Nuclear Repulsion Energy =            431.0902497311532784
    One-Electron Energy =               -1442.3679760948696185
    Two-Electron Energy =                 579.4903602536096514
    Total Energy =                       -431.7873661101066318
  Basis Set: (AUG-CC-PVTZ AUX)
    Blend: AUG-CC-PVTZ-RI
    Molecular point group: c1

    Geometry (in Angstrom), charge = 0, multiplicity = 1:

       Center              X                  Y                   Z               Mass
    ------------   -----------------  -----------------  -----------------  -----------------
         O            1.295881934508     1.575030925863    -0.000003973612    15.994914619570
         N           -1.428709065492     0.962454925863     0.000003026388    14.003074004430
         N            1.798303934508    -0.682215074137     0.000000026388    14.003074004430
         N           -0.994335065492    -1.224306074137     0.000000026388    14.003074004430
         C           -0.466623065492     0.001545925863     0.000005026388    12.000000000000
         C            0.959952934508     0.380416925863     0.000000026388    12.000000000000
         C           -2.645213065492     0.333466925863    -0.000000973612    12.000000000000
         C           -2.449190765492    -1.003889574137    -0.000003173612    12.000000000000
         C            3.239171934508    -0.535581074137     0.000000026388    12.000000000000
         H           -1.220111065492     1.955636925863     0.000009026388     1.007825032230
         H            1.363499934508    -1.599097074137     0.000007026388     1.007825032230
         H           -3.579695065492     0.875227925863    -0.000000973612     1.007825032230
         H           -3.046515065492    -1.847005074137    -0.000006973612     1.007825032230
         H            3.455001934508     0.532754925863    -0.000006973612     1.007825032230
         H            3.678764934508    -0.992757074137    -0.891024973612     1.007825032230
         H            3.678760934508    -0.992744074137     0.891033026388     1.007825032230

  Basis Set: AUG-CC-PVTZ
    Blend: AUG-CC-PVTZ
  Basis Set: (AUG-CC-PVTZ AUX)
    Blend: AUG-CC-PVTZ-JKFIT
	 Reference Energy          =    -431.7873661101066318 [Eh]
	 Singles Energy            =      -0.0000000000000000 [Eh]
	 Same-Spin Energy          =      -0.4546868926187061 [Eh]
	 Opposite-Spin Energy      =      -1.3803261308006283 [Eh]
	 Correlation Energy        =      -1.8350130234193345 [Eh]
	 Total Energy              =    -433.6223791335259534 [Eh]

	 ================> DF-SCS-MP2 Energies <==================
	-----------------------------------------------------------
	 SCS Same-Spin Scale       =       0.3333333333333333 [-]
	 SCS Opposite-Spin Scale   =       1.2000000000000000 [-]
	 SCS Same-Spin Energy      =      -0.1515622975395687 [Eh]
	 SCS Opposite-Spin Energy  =      -1.6563913569607538 [Eh]
	 SCS Correlation Energy    =      -1.8079536545003225 [Eh]
	 SCS Total Energy          =    -433.5953197646069270 [Eh]
	-----------------------------------------------------------

  Dipole Moment: [D]
     X:    -0.9187      Y:    -0.3896      Z:     0.0000     Total:     0.9979

*** Psi4 exiting successfully. Buy a developer a beer!
