                               Psi4 1.3.2 release

  ==> Input File <==

--------------------------------------------------------------------------
#psi4
#
memory 32 gb

molecule  {
0 1
  O        1.2542850     1.5918540    -0.0000040
  N       -1.4703060     0.9792780     0.0000030
  N        1.7567070    -0.6653920     0.0000000
  N       -1.0359320    -1.2074830     0.0000000
  C       -0.5082200     0.0183690     0.0000050
  C        1.0150056     0.4229083    -0.0000003
  C       -2.6868100     0.3502900    -0.0000010
  C       -2.3919160    -1.0020460    -0.0000030
  C        3.1975750    -0.5187580     0.0000000
  H       -1.2617080     1.9724600     0.0000090
  H        1.3219030    -1.5822740     0.0000070
  H       -3.6212920     0.8920510    -0.0000010
  H       -3.0881120    -1.8301820    -0.0000070
  H        3.4134050     0.5495780    -0.0000070
  H        3.6371680    -0.9759340    -0.8910250
  H        3.6371640    -0.9759210     0.8910330
units angstrom
no_reorient  #important for SAPT in psi4, default
symmetry c1  #important for SAPT in psi4, default
}

set PROPERTIES_ORIGIN ["COM"]
properties('MP2/aug-cc-pvtz', properties = ['dipole'])
--------------------------------------------------------------------------

    Molecular point group: c1
  Charge       = 0
  Multiplicity = 1
  Basis Set: AUG-CC-PVTZ
    Blend: AUG-CC-PVTZ
  Basis Set: (AUG-CC-PVTZ AUX)
    Blend: AUG-CC-PVTZ-JKFIT

    Orbital Energies [Eh]
    ---------------------

    Doubly Occupied:

       1A    -20.535556     2A    -15.627172     3A    -15.598035
       4A    -15.560148     5A    -11.368273     6A    -11.305267
       7A    -11.269997     8A    -11.266958     9A    -11.252989
      10A     -1.415555    11A     -1.343575    12A     -1.261673
      13A     -1.172303    14A     -1.022232    15A     -0.965215
      16A     -0.841015    17A     -0.816178    18A     -0.800283
      19A     -0.775428    20A     -0.671327    21A     -0.660671
      22A     -0.645609    23A     -0.608050    24A     -0.604435
      25A     -0.590074    26A     -0.586664    27A     -0.559163
      28A     -0.553261    29A     -0.458473    30A     -0.435481
      31A     -0.417231    32A     -0.401890    33A     -0.320910

  @DF-RHF Final Energy:  -431.79107673410266

   => Energetics <=

    Nuclear Repulsion Energy =            432.4386514639518282
    One-Electron Energy =               -1445.0372731026368456
    Two-Electron Energy =                 580.8075449045823007
    Total Energy =                       -431.7910767341027167
  Basis Set: (AUG-CC-PVTZ AUX)
    Blend: AUG-CC-PVTZ-RI
    Molecular point group: c1

    Geometry (in Angstrom), charge = 0, multiplicity = 1:

       Center              X                  Y                   Z               Mass
    ------------   -----------------  -----------------  -----------------  -----------------
         O            1.277120731767     1.574005284443    -0.000003964017    15.994914619570
         N           -1.447470268233     0.961429284443     0.000003035983    14.003074004430
         N            1.779542731767    -0.683240715557     0.000000035983    14.003074004430
         N           -1.013096268233    -1.225331715557     0.000000035983    14.003074004430
         C           -0.485384268233     0.000520284443     0.000005035983    12.000000000000
         C            1.037841331767     0.405059584443    -0.000000264017    12.000000000000
         C           -2.663974268233     0.332441284443    -0.000000964017    12.000000000000
         C           -2.369080268233    -1.019894715557    -0.000002964017    12.000000000000
         C            3.220410731767    -0.536606715557     0.000000035983    12.000000000000
         H           -1.238872268233     1.954611284443     0.000009035983     1.007825032230
         H            1.344738731767    -1.600122715557     0.000007035983     1.007825032230
         H           -3.598456268233     0.874202284443    -0.000000964017     1.007825032230
         H           -3.065276268233    -1.848030715557    -0.000006964017     1.007825032230
         H            3.436240731767     0.531729284443    -0.000006964017     1.007825032230
         H            3.660003731767    -0.993782715557    -0.891024964017     1.007825032230
         H            3.659999731767    -0.993769715557     0.891033035983     1.007825032230

  Basis Set: AUG-CC-PVTZ
    Blend: AUG-CC-PVTZ
  Basis Set: (AUG-CC-PVTZ AUX)
    Blend: AUG-CC-PVTZ-JKFIT
	 Reference Energy          =    -431.7910767341026599 [Eh]
	 Singles Energy            =      -0.0000000000000000 [Eh]
	 Same-Spin Energy          =      -0.4540201265030708 [Eh]
	 Opposite-Spin Energy      =      -1.3765575789027167 [Eh]
	 Correlation Energy        =      -1.8305777054057875 [Eh]
	 Total Energy              =    -433.6216544395084611 [Eh]

	 ================> DF-SCS-MP2 Energies <==================
	-----------------------------------------------------------
	 SCS Same-Spin Scale       =       0.3333333333333333 [-]
	 SCS Opposite-Spin Scale   =       1.2000000000000000 [-]
	 SCS Same-Spin Energy      =      -0.1513400421676903 [Eh]
	 SCS Opposite-Spin Energy  =      -1.6518690946832599 [Eh]
	 SCS Correlation Energy    =      -1.8032091368509502 [Eh]
	 SCS Total Energy          =    -433.5942858709536267 [Eh]
	-----------------------------------------------------------

  Dipole Moment: [D]
     X:    -0.1994      Y:    -0.2352      Z:     0.0000     Total:     0.3084

*** Psi4 exiting successfully. Buy a developer a beer!
