                               Psi4 1.3.2 release

  ==> Input File <==

--------------------------------------------------------------------------
#psi4
#
memory 32 gb

molecule  {
0 1
  O        1.2542850     1.5918540    -0.0000040
  N       -1.4703060     0.9792780     0.0000030
  N        1.7567070    -0.6653920     0.0000000
  N       -0.9491354    -1.2413082    -0.0000007
  C       -0.5082200     0.0183690     0.0000050
  C        0.9183560     0.3972400     0.0000000
  C       -2.6868100     0.3502900    -0.0000010
  C       -2.3919160    -1.0020460    -0.0000030
  C        3.1975750    -0.5187580     0.0000000
  H       -1.2617080     1.9724600     0.0000090
  H        1.3219030    -1.5822740     0.0000070
  H       -3.6212920     0.8920510    -0.0000010
  H       -3.0881120    -1.8301820    -0.0000070
  H        3.4134050     0.5495780    -0.0000070
  H        3.6371680    -0.9759340    -0.8910250
  H        3.6371640    -0.9759210     0.8910330
units angstrom
no_reorient  #important for SAPT in psi4, default
symmetry c1  #important for SAPT in psi4, default
}

set PROPERTIES_ORIGIN ["COM"]
properties('MP2/aug-cc-pvtz', properties = ['dipole'])
--------------------------------------------------------------------------

    Molecular point group: c1
  Charge       = 0
  Multiplicity = 1
  Basis Set: AUG-CC-PVTZ
    Blend: AUG-CC-PVTZ
  Basis Set: (AUG-CC-PVTZ AUX)
    Blend: AUG-CC-PVTZ-JKFIT

    Orbital Energies [Eh]
    ---------------------

    Doubly Occupied:

       1A    -20.527717     2A    -15.633942     3A    -15.591234
       4A    -15.581233     5A    -11.364579     6A    -11.315885
       7A    -11.284493     8A    -11.268700     9A    -11.262305
      10A     -1.385953    11A     -1.340628    12A     -1.239619
      13A     -1.170984    14A     -1.037208    15A     -0.961856
      16A     -0.858010    17A     -0.817975    18A     -0.799822
      19A     -0.772514    20A     -0.664144    21A     -0.649919
      22A     -0.637623    23A     -0.611793    24A     -0.605863
      25A     -0.593414    26A     -0.575451    27A     -0.550327
      28A     -0.535678    29A     -0.476427    30A     -0.440545
      31A     -0.413347    32A     -0.392093    33A     -0.334749

  @DF-RHF Final Energy:  -431.78729203881443

   => Energetics <=

    Nuclear Repulsion Energy =            431.5338192049902659
    One-Electron Energy =               -1443.2501638632797949
    Two-Electron Energy =                 579.9290526194749873
    Total Energy =                       -431.7872920388144848
  Basis Set: (AUG-CC-PVTZ AUX)
    Blend: AUG-CC-PVTZ-RI
    Molecular point group: c1

    Geometry (in Angstrom), charge = 0, multiplicity = 1:

       Center              X                  Y                   Z               Mass
    ------------   -----------------  -----------------  -----------------  -----------------
         O            1.276675949285     1.580255749661    -0.000003914423    15.994914619570
         N           -1.447915050715     0.967679749661     0.000003085577    14.003074004430
         N            1.779097949285    -0.676990250339     0.000000085577    14.003074004430
         N           -0.926744450715    -1.252906450339    -0.000000614423    14.003074004430
         C           -0.485829050715     0.006770749661     0.000005085577    12.000000000000
         C            0.940746949285     0.385641749661     0.000000085577    12.000000000000
         C           -2.664419050715     0.338691749661    -0.000000914423    12.000000000000
         C           -2.369525050715    -1.013644250339    -0.000002914423    12.000000000000
         C            3.219965949285    -0.530356250339     0.000000085577    12.000000000000
         H           -1.239317050715     1.960861749661     0.000009085577     1.007825032230
         H            1.344293949285    -1.593872250339     0.000007085577     1.007825032230
         H           -3.598901050715     0.880452749661    -0.000000914423     1.007825032230
         H           -3.065721050715    -1.841780250339    -0.000006914423     1.007825032230
         H            3.435795949285     0.537979749661    -0.000006914423     1.007825032230
         H            3.659558949285    -0.987532250339    -0.891024914423     1.007825032230
         H            3.659554949285    -0.987519250339     0.891033085577     1.007825032230

  Basis Set: AUG-CC-PVTZ
    Blend: AUG-CC-PVTZ
  Basis Set: (AUG-CC-PVTZ AUX)
    Blend: AUG-CC-PVTZ-JKFIT
	 Reference Energy          =    -431.7872920388144280 [Eh]
	 Singles Energy            =      -0.0000000000000000 [Eh]
	 Same-Spin Energy          =      -0.4554138856908820 [Eh]
	 Opposite-Spin Energy      =      -1.3817470581682527 [Eh]
	 Correlation Energy        =      -1.8371609438591348 [Eh]
	 Total Energy              =    -433.6244529826735743 [Eh]

	 ================> DF-SCS-MP2 Energies <==================
	-----------------------------------------------------------
	 SCS Same-Spin Scale       =       0.3333333333333333 [-]
	 SCS Opposite-Spin Scale   =       1.2000000000000000 [-]
	 SCS Same-Spin Energy      =      -0.1518046285636273 [Eh]
	 SCS Opposite-Spin Energy  =      -1.6580964698019032 [Eh]
	 SCS Correlation Energy    =      -1.8099010983655306 [Eh]
	 SCS Total Energy          =    -433.5971931371799428 [Eh]
	-----------------------------------------------------------

  Dipole Moment: [D]
     X:    -1.0960      Y:    -0.3063      Z:     0.0000     Total:     1.1380

*** Psi4 exiting successfully. Buy a developer a beer!
