                               Psi4 1.4a3.dev225

  ==> Input File <==

--------------------------------------------------------------------------
#psi4
#
memory 32 gb

molecule  {
0 1
  O        1.2542850     1.5918540    -0.0000040
  N       -1.4703060     0.9792780     0.0000030
  N        1.7567070    -0.6653920     0.0000000
  N       -1.0359320    -1.2074830     0.0000000
  C       -0.5082200     0.0183690     0.0000050
  C        0.9183560     0.3972400     0.0000000
  C       -2.6868100     0.3502900    -0.0000010
  C       -2.3919160    -1.0020460    -0.0000030
  C        3.1975750    -0.5187580     0.0000000
  H       -1.2617080     1.9724600     0.0000090
  H        1.3219030    -1.5822740     0.0000070
  H       -3.5780356     0.8669734    -0.0000010
  H       -3.0881120    -1.8301820    -0.0000070
  H        3.4134050     0.5495780    -0.0000070
  H        3.6371680    -0.9759340    -0.8910250
  H        3.6371640    -0.9759210     0.8910330
units angstrom
no_reorient  #important for SAPT in psi4, default
symmetry c1  #important for SAPT in psi4, default
}

set PROPERTIES_ORIGIN ["COM"]
properties('MP2/aug-cc-pvtz', properties = ['dipole'])
--------------------------------------------------------------------------

    Molecular point group: c1
  Charge       = 0
  Multiplicity = 1
  Basis Set: AUG-CC-PVTZ
    Blend: AUG-CC-PVTZ
  Basis Set: (AUG-CC-PVTZ AUX)
    Blend: AUG-CC-PVTZ-JKFIT

    Orbital Energies [Eh]
    ---------------------

    Doubly Occupied:

       1A    -20.527671     2A    -15.635345     3A    -15.592517
       4A    -15.570739     5A    -11.366446     6A    -11.310315
       7A    -11.274178     8A    -11.262950     9A    -11.260517
      10A     -1.386807    11A     -1.347769    12A     -1.239883
      13A     -1.180238    14A     -1.039721    15A     -0.962985
      16A     -0.859356    17A     -0.825981    18A     -0.800301
      19A     -0.774722    20A     -0.671912    21A     -0.652328
      22A     -0.638795    23A     -0.616815    24A     -0.608008
      25A     -0.598508    26A     -0.586337    27A     -0.550539
      28A     -0.536620    29A     -0.464517    30A     -0.442397
      31A     -0.417933    32A     -0.395282    33A     -0.328741

  @DF-RHF Final Energy:  -431.79602990009704

   => Energetics <=

    Nuclear Repulsion Energy =            432.8556818992777835
    One-Electron Energy =               -1445.8490811052242861
    Two-Electron Energy =                 581.1973693058495201
    Total Energy =                       -431.7960299000969826
  Basis Set: (AUG-CC-PVTZ AUX)
    Blend: AUG-CC-PVTZ-RI
    Molecular point group: c1

    Geometry (in Angstrom), charge = 0, multiplicity = 1:

       Center              X                  Y                   Z               Mass
    ------------   -----------------  -----------------  -----------------  -----------------
         O            1.286046127812     1.576670375863    -0.000003992803    15.994914619570
         N           -1.438544872188     0.964094375863     0.000003007197    14.003074004430
         N            1.788468127812    -0.680575624137     0.000000007197    14.003074004430
         N           -1.004170872188    -1.222666624137     0.000000007197    14.003074004430
         C           -0.476458872188     0.003185375863     0.000005007197    12.000000000000
         C            0.950117127812     0.382056375863     0.000000007197    12.000000000000
         C           -2.655048872188     0.335106375863    -0.000000992803    12.000000000000
         C           -2.360154872188    -1.017229624137    -0.000002992803    12.000000000000
         C            3.229336127812    -0.533941624137     0.000000007197    12.000000000000
         H           -1.229946872188     1.957276375863     0.000009007197     1.007825032230
         H            1.353664127812    -1.597457624137     0.000007007197     1.007825032230
         H           -3.546274472188     0.851789775863    -0.000000992803     1.007825032230
         H           -3.056350872188    -1.845365624137    -0.000006992803     1.007825032230
         H            3.445166127812     0.534394375863    -0.000006992803     1.007825032230
         H            3.668929127812    -0.991117624137    -0.891024992803     1.007825032230
         H            3.668925127812    -0.991104624137     0.891033007197     1.007825032230

  Basis Set: AUG-CC-PVTZ
    Blend: AUG-CC-PVTZ
  Basis Set: (AUG-CC-PVTZ AUX)
    Blend: AUG-CC-PVTZ-JKFIT
	 Reference Energy          =    -431.7960299000970394 [Eh]
	 Singles Energy            =      -0.0000000000000000 [Eh]
	 Same-Spin Energy          =      -0.4556175316933605 [Eh]
	 Opposite-Spin Energy      =      -1.3793172889719285 [Eh]
	 Correlation Energy        =      -1.8349348206652891 [Eh]
	 Total Energy              =    -433.6309647207623357 [Eh]

	 ================> DF-SCS-MP2 Energies <==================
	-----------------------------------------------------------
	 SCS Same-Spin Scale       =       0.3333333333333333 [-]
	 SCS Opposite-Spin Scale   =       1.2000000000000000 [-]
	 SCS Same-Spin Energy      =      -0.1518725105644535 [Eh]
	 SCS Opposite-Spin Energy  =      -1.6551807467663142 [Eh]
	 SCS Correlation Energy    =      -1.8070532573307676 [Eh]
	 SCS Total Energy          =    -433.6030831574278182 [Eh]
	-----------------------------------------------------------

  Dipole Moment: [D]
     X:    -0.9721      Y:    -0.4024      Z:     0.0000     Total:     1.0521

*** Psi4 exiting successfully. Buy a developer a beer!
