                               Psi4 1.3.2 release

  ==> Input File <==

--------------------------------------------------------------------------
#psi4
#
memory 32 gb

molecule  {
0 1
  O        1.2542850     1.5918540    -0.0000040
  N       -1.4703060     0.9792780     0.0000030
  N        1.7567070    -0.6653920     0.0000000
  N       -1.0359320    -1.2074830     0.0000000
  C       -0.4239944    -0.0214284     0.0000051
  C        0.9183560     0.3972400     0.0000000
  C       -2.6868100     0.3502900    -0.0000010
  C       -2.3919160    -1.0020460    -0.0000030
  C        3.1975750    -0.5187580     0.0000000
  H       -1.2617080     1.9724600     0.0000090
  H        1.3219030    -1.5822740     0.0000070
  H       -3.6212920     0.8920510    -0.0000010
  H       -3.0881120    -1.8301820    -0.0000070
  H        3.4134050     0.5495780    -0.0000070
  H        3.6371680    -0.9759340    -0.8910250
  H        3.6371640    -0.9759210     0.8910330
units angstrom
no_reorient  #important for SAPT in psi4, default
symmetry c1  #important for SAPT in psi4, default
}

set PROPERTIES_ORIGIN ["COM"]
properties('MP2/aug-cc-pvtz', properties = ['dipole'])
--------------------------------------------------------------------------

    Molecular point group: c1
  Charge       = 0
  Multiplicity = 1
  Basis Set: AUG-CC-PVTZ
    Blend: AUG-CC-PVTZ
  Basis Set: (AUG-CC-PVTZ AUX)
    Blend: AUG-CC-PVTZ-JKFIT

    Orbital Energies [Eh]
    ---------------------

    Doubly Occupied:

       1A    -20.526562     2A    -15.631944     3A    -15.590784
       4A    -15.580169     5A    -11.362200     6A    -11.312109
       7A    -11.288549     8A    -11.261818     9A    -11.261501
      10A     -1.385621    11A     -1.331132    12A     -1.241209
      13A     -1.172934    14A     -1.046415    15A     -0.964123
      16A     -0.870630    17A     -0.824315    18A     -0.783477
      19A     -0.768999    20A     -0.675317    21A     -0.652868
      22A     -0.637834    23A     -0.608533    24A     -0.599638
      25A     -0.597532    26A     -0.588574    27A     -0.549810
      28A     -0.535840    29A     -0.460042    30A     -0.444972
      31A     -0.418196    32A     -0.394755    33A     -0.327175

  @DF-RHF Final Energy:  -431.77998389076447

   => Energetics <=

    Nuclear Repulsion Energy =            432.3433795841073106
    One-Electron Energy =               -1444.8555792675019802
    Two-Electron Energy =                 580.7322157926301998
    Total Energy =                       -431.7799838907644698
  Basis Set: (AUG-CC-PVTZ AUX)
    Blend: AUG-CC-PVTZ-RI
    Molecular point group: c1

    Geometry (in Angstrom), charge = 0, multiplicity = 1:

       Center              X                  Y                   Z               Mass
    ------------   -----------------  -----------------  -----------------  -----------------
         O            1.278312873916     1.580287031088    -0.000004002399    15.994914619570
         N           -1.446278126084     0.967711031088     0.000002997601    14.003074004430
         N            1.780734873916    -0.676958968912    -0.000000002399    14.003074004430
         N           -1.011904126084    -1.219049968912    -0.000000002399    14.003074004430
         C           -0.399966526084    -0.032995368912     0.000005097601    12.000000000000
         C            0.942383873916     0.385673031088    -0.000000002399    12.000000000000
         C           -2.662782126084     0.338723031088    -0.000001002399    12.000000000000
         C           -2.367888126084    -1.013612968912    -0.000003002399    12.000000000000
         C            3.221602873916    -0.530324968912    -0.000000002399    12.000000000000
         H           -1.237680126084     1.960893031088     0.000008997601     1.007825032230
         H            1.345930873916    -1.593840968912     0.000006997601     1.007825032230
         H           -3.597264126084     0.880484031088    -0.000001002399     1.007825032230
         H           -3.064084126084    -1.841748968912    -0.000007002399     1.007825032230
         H            3.437432873916     0.538011031088    -0.000007002399     1.007825032230
         H            3.661195873916    -0.987500968912    -0.891025002399     1.007825032230
         H            3.661191873916    -0.987487968912     0.891032997601     1.007825032230

  Basis Set: AUG-CC-PVTZ
    Blend: AUG-CC-PVTZ
  Basis Set: (AUG-CC-PVTZ AUX)
    Blend: AUG-CC-PVTZ-JKFIT
	 Reference Energy          =    -431.7799838907644698 [Eh]
	 Singles Energy            =      -0.0000000000000000 [Eh]
	 Same-Spin Energy          =      -0.4577226289961388 [Eh]
	 Opposite-Spin Energy      =      -1.3832795962375344 [Eh]
	 Correlation Energy        =      -1.8410022252336731 [Eh]
	 Total Energy              =    -433.6209861159981642 [Eh]

	 ================> DF-SCS-MP2 Energies <==================
	-----------------------------------------------------------
	 SCS Same-Spin Scale       =       0.3333333333333333 [-]
	 SCS Opposite-Spin Scale   =       1.2000000000000000 [-]
	 SCS Same-Spin Energy      =      -0.1525742096653796 [Eh]
	 SCS Opposite-Spin Energy  =      -1.6599355154850413 [Eh]
	 SCS Correlation Energy    =      -1.8125097251504210 [Eh]
	 SCS Total Energy          =    -433.5924936159149183 [Eh]
	-----------------------------------------------------------

  Dipole Moment: [D]
     X:    -1.0979      Y:    -0.5343      Z:     0.0000     Total:     1.2210

*** Psi4 exiting successfully. Buy a developer a beer!
