                               Psi4 1.3.2 release

  ==> Input File <==

--------------------------------------------------------------------------
#psi4
#
memory 32 gb

molecule  {
0 1
  O        1.2542850     1.5918540    -0.0000040
  N       -1.4703060     0.9792780     0.0000030
  N        1.7567070    -0.6653920     0.0000000
  N       -1.0359320    -1.2074830     0.0000000
  C       -0.5082200     0.0183690     0.0000050
  C        0.9183560     0.3972400     0.0000000
  C       -2.6868100     0.3502900    -0.0000010
  C       -2.4392915    -1.0115138    -0.0000031
  C        3.1975750    -0.5187580     0.0000000
  H       -1.2617080     1.9724600     0.0000090
  H        1.3219030    -1.5822740     0.0000070
  H       -3.6212920     0.8920510    -0.0000010
  H       -3.0881120    -1.8301820    -0.0000070
  H        3.4134050     0.5495780    -0.0000070
  H        3.6371680    -0.9759340    -0.8910250
  H        3.6371640    -0.9759210     0.8910330
units angstrom
no_reorient  #important for SAPT in psi4, default
symmetry c1  #important for SAPT in psi4, default
}

set PROPERTIES_ORIGIN ["COM"]
properties('MP2/aug-cc-pvtz', properties = ['dipole'])
--------------------------------------------------------------------------

    Molecular point group: c1
  Charge       = 0
  Multiplicity = 1
  Basis Set: AUG-CC-PVTZ
    Blend: AUG-CC-PVTZ
  Basis Set: (AUG-CC-PVTZ AUX)
    Blend: AUG-CC-PVTZ-JKFIT

    Orbital Energies [Eh]
    ---------------------

    Doubly Occupied:

       1A    -20.528708     2A    -15.633788     3A    -15.592805
       4A    -15.572262     5A    -11.367256     6A    -11.311397
       7A    -11.282530     8A    -11.263126     9A    -11.261069
      10A     -1.386715    11A     -1.342832    12A     -1.240098
      13A     -1.170531    14A     -1.039137    15A     -0.962712
      16A     -0.857051    17A     -0.828456    18A     -0.795956
      19A     -0.772581    20A     -0.668032    21A     -0.650735
      22A     -0.638010    23A     -0.619752    24A     -0.606270
      25A     -0.596038    26A     -0.587407    27A     -0.550718
      28A     -0.536715    29A     -0.462160    30A     -0.441575
      31A     -0.412765    32A     -0.394055    33A     -0.332207

  @DF-RHF Final Energy:  -431.79363966168250

   => Energetics <=

    Nuclear Repulsion Energy =            431.6194465485853584
    One-Electron Energy =               -1443.4152780461281509
    Two-Electron Energy =                 580.0021918358603443
    Total Energy =                       -431.7936396616825050
  Basis Set: (AUG-CC-PVTZ AUX)
    Blend: AUG-CC-PVTZ-RI
    Molecular point group: c1

    Geometry (in Angstrom), charge = 0, multiplicity = 1:

       Center              X                  Y                   Z               Mass
    ------------   -----------------  -----------------  -----------------  -----------------
         O            1.290940628121     1.577376761083    -0.000003983208    15.994914619570
         N           -1.433650371879     0.964800761083     0.000003016792    14.003074004430
         N            1.793362628121    -0.679869238917     0.000000016792    14.003074004430
         N           -0.999276371879    -1.221960238917     0.000000016792    14.003074004430
         C           -0.471564371879     0.003891761083     0.000005016792    12.000000000000
         C            0.955011628121     0.382762761083     0.000000016792    12.000000000000
         C           -2.650154371879     0.335812761083    -0.000000983208    12.000000000000
         C           -2.402635871879    -1.025991038917    -0.000003083208    12.000000000000
         C            3.234230628121    -0.533235238917     0.000000016792    12.000000000000
         H           -1.225052371879     1.957982761083     0.000009016792     1.007825032230
         H            1.358558628121    -1.596751238917     0.000007016792     1.007825032230
         H           -3.584636371879     0.877573761083    -0.000000983208     1.007825032230
         H           -3.051456371879    -1.844659238917    -0.000006983208     1.007825032230
         H            3.450060628121     0.535100761083    -0.000006983208     1.007825032230
         H            3.673823628121    -0.990411238917    -0.891024983208     1.007825032230
         H            3.673819628121    -0.990398238917     0.891033016792     1.007825032230

  Basis Set: AUG-CC-PVTZ
    Blend: AUG-CC-PVTZ
  Basis Set: (AUG-CC-PVTZ AUX)
    Blend: AUG-CC-PVTZ-JKFIT
	 Reference Energy          =    -431.7936396616825050 [Eh]
	 Singles Energy            =      -0.0000000000000000 [Eh]
	 Same-Spin Energy          =      -0.4553865617132028 [Eh]
	 Opposite-Spin Energy      =      -1.3801586660458507 [Eh]
	 Correlation Energy        =      -1.8355452277590536 [Eh]
	 Total Energy              =    -433.6291848894415466 [Eh]

	 ================> DF-SCS-MP2 Energies <==================
	-----------------------------------------------------------
	 SCS Same-Spin Scale       =       0.3333333333333333 [-]
	 SCS Opposite-Spin Scale   =       1.2000000000000000 [-]
	 SCS Same-Spin Energy      =      -0.1517955205710676 [Eh]
	 SCS Opposite-Spin Energy  =      -1.6561903992550209 [Eh]
	 SCS Correlation Energy    =      -1.8079859198260886 [Eh]
	 SCS Total Energy          =    -433.6016255815085856 [Eh]
	-----------------------------------------------------------

  Dipole Moment: [D]
     X:    -0.9642      Y:    -0.4016      Z:     0.0000     Total:     1.0444

*** Psi4 exiting successfully. Buy a developer a beer!
