                               Psi4 1.3.2 release

  ==> Input File <==

--------------------------------------------------------------------------
#psi4
#
memory 32 gb

molecule  {
0 1
  O        1.2542850     1.5918540    -0.0000040
  N       -1.4703060     0.9792780     0.0000030
  N        1.7567070    -0.6653920     0.0000000
  N       -1.0359320    -1.2074830     0.0000000
  C       -0.5296944     0.0273921     0.0000050
  C        0.9183560     0.3972400     0.0000000
  C       -2.6868100     0.3502900    -0.0000010
  C       -2.3919160    -1.0020460    -0.0000030
  C        3.1975750    -0.5187580     0.0000000
  H       -1.2617080     1.9724600     0.0000090
  H        1.3219030    -1.5822740     0.0000070
  H       -3.6212920     0.8920510    -0.0000010
  H       -3.0881120    -1.8301820    -0.0000070
  H        3.4134050     0.5495780    -0.0000070
  H        3.6371680    -0.9759340    -0.8910250
  H        3.6371640    -0.9759210     0.8910330
units angstrom
no_reorient  #important for SAPT in psi4, default
symmetry c1  #important for SAPT in psi4, default
}

set PROPERTIES_ORIGIN ["COM"]
properties('MP2/aug-cc-pvtz', properties = ['dipole'])
--------------------------------------------------------------------------

    Molecular point group: c1
  Charge       = 0
  Multiplicity = 1
  Basis Set: AUG-CC-PVTZ
    Blend: AUG-CC-PVTZ
  Basis Set: (AUG-CC-PVTZ AUX)
    Blend: AUG-CC-PVTZ-JKFIT

    Orbital Energies [Eh]
    ---------------------

    Doubly Occupied:

       1A    -20.527846     2A    -15.636341     3A    -15.592885
       4A    -15.568840     5A    -11.367340     6A    -11.310080
       7A    -11.277568     8A    -11.263193     9A    -11.260666
      10A     -1.387630    11A     -1.352491    12A     -1.239619
      13A     -1.182475    14A     -1.036786    15A     -0.961637
      16A     -0.856013    17A     -0.825201    18A     -0.801473
      19A     -0.772921    20A     -0.667165    21A     -0.650519
      22A     -0.639633    23A     -0.615808    24A     -0.610418
      25A     -0.596553    26A     -0.583688    27A     -0.550648
      28A     -0.536758    29A     -0.465500    30A     -0.441252
      31A     -0.418334    32A     -0.395454    33A     -0.329007

  @DF-RHF Final Energy:  -431.79744172884790

   => Energetics <=

    Nuclear Repulsion Energy =            432.6746351424485511
    One-Electron Energy =               -1445.5006664692418781
    Two-Electron Energy =                 581.0285895979454835
    Total Energy =                       -431.7974417288478435
  Basis Set: (AUG-CC-PVTZ AUX)
    Blend: AUG-CC-PVTZ-RI
    Molecular point group: c1

    Geometry (in Angstrom), charge = 0, multiplicity = 1:

       Center              X                  Y                   Z               Mass
    ------------   -----------------  -----------------  -----------------  -----------------
         O            1.288455293846     1.575602470897    -0.000003992803    15.994914619570
         N           -1.436135706154     0.963026470897     0.000003007197    14.003074004430
         N            1.790877293846    -0.681643529103     0.000000007197    14.003074004430
         N           -1.001761706154    -1.223734529103     0.000000007197    14.003074004430
         C           -0.495524106154     0.011140570897     0.000005007197    12.000000000000
         C            0.952526293846     0.380988470897     0.000000007197    12.000000000000
         C           -2.652639706154     0.334038470897    -0.000000992803    12.000000000000
         C           -2.357745706154    -1.018297529103    -0.000002992803    12.000000000000
         C            3.231745293846    -0.535009529103     0.000000007197    12.000000000000
         H           -1.227537706154     1.956208470897     0.000009007197     1.007825032230
         H            1.356073293846    -1.598525529103     0.000007007197     1.007825032230
         H           -3.587121706154     0.875799470897    -0.000000992803     1.007825032230
         H           -3.053941706154    -1.846433529103    -0.000006992803     1.007825032230
         H            3.447575293846     0.533326470897    -0.000006992803     1.007825032230
         H            3.671338293846    -0.992185529103    -0.891024992803     1.007825032230
         H            3.671334293846    -0.992172529103     0.891033007197     1.007825032230

  Basis Set: AUG-CC-PVTZ
    Blend: AUG-CC-PVTZ
  Basis Set: (AUG-CC-PVTZ AUX)
    Blend: AUG-CC-PVTZ-JKFIT
	 Reference Energy          =    -431.7974417288479003 [Eh]
	 Singles Energy            =      -0.0000000000000000 [Eh]
	 Same-Spin Energy          =      -0.4553063479178111 [Eh]
	 Opposite-Spin Energy      =      -1.3788880870655376 [Eh]
	 Correlation Energy        =      -1.8341944349833486 [Eh]
	 Total Energy              =    -433.6316361638312742 [Eh]

	 ================> DF-SCS-MP2 Energies <==================
	-----------------------------------------------------------
	 SCS Same-Spin Scale       =       0.3333333333333333 [-]
	 SCS Opposite-Spin Scale   =       1.2000000000000000 [-]
	 SCS Same-Spin Energy      =      -0.1517687826392703 [Eh]
	 SCS Opposite-Spin Energy  =      -1.6546657044786450 [Eh]
	 SCS Correlation Energy    =      -1.8064344871179154 [Eh]
	 SCS Total Energy          =    -433.6038762159658404 [Eh]
	-----------------------------------------------------------

  Dipole Moment: [D]
     X:    -0.9433      Y:    -0.3659      Z:     0.0000     Total:     1.0118

*** Psi4 exiting successfully. Buy a developer a beer!
