                               Psi4 1.4a3.dev225

  ==> Input File <==

--------------------------------------------------------------------------
#psi4
#
memory 32 gb

molecule  {
0 1
  O        1.2542850     1.5918540    -0.0000040
  N       -1.4703060     0.9792780     0.0000030
  N        1.7567070    -0.6653920     0.0000000
  N       -1.0359320    -1.2074830     0.0000000
  C       -0.5082200     0.0183690     0.0000050
  C        0.9183560     0.3972400     0.0000000
  C       -2.6868100     0.3502900    -0.0000010
  C       -2.3919160    -1.0020460    -0.0000030
  C        3.1975750    -0.5187580     0.0000000
  H       -1.2617080     1.9724600     0.0000090
  H        1.3219030    -1.5822740     0.0000070
  H       -3.6385945     0.9020821    -0.0000010
  H       -3.0881120    -1.8301820    -0.0000070
  H        3.4134050     0.5495780    -0.0000070
  H        3.6371680    -0.9759340    -0.8910250
  H        3.6371640    -0.9759210     0.8910330
units angstrom
no_reorient  #important for SAPT in psi4, default
symmetry c1  #important for SAPT in psi4, default
}

set PROPERTIES_ORIGIN ["COM"]
properties('MP2/aug-cc-pvtz', properties = ['dipole'])
--------------------------------------------------------------------------

    Molecular point group: c1
  Charge       = 0
  Multiplicity = 1
  Basis Set: AUG-CC-PVTZ
    Blend: AUG-CC-PVTZ
  Basis Set: (AUG-CC-PVTZ AUX)
    Blend: AUG-CC-PVTZ-JKFIT

    Orbital Energies [Eh]
    ---------------------

    Doubly Occupied:

       1A    -20.527721     2A    -15.635765     3A    -15.592569
       4A    -15.571070     5A    -11.366535     6A    -11.310474
       7A    -11.281851     8A    -11.262988     9A    -11.260770
      10A     -1.386908    11A     -1.347994    12A     -1.239934
      13A     -1.180297    14A     -1.038100    15A     -0.961759
      16A     -0.858405    17A     -0.824590    18A     -0.796405
      19A     -0.771945    20A     -0.667727    21A     -0.650439
      22A     -0.638927    23A     -0.612729    24A     -0.608188
      25A     -0.595232    26A     -0.586339    27A     -0.550543
      28A     -0.536699    29A     -0.464440    30A     -0.442459
      31A     -0.418155    32A     -0.395363    33A     -0.328776

  @DF-RHF Final Energy:  -431.79621270121010

   => Energetics <=

    Nuclear Repulsion Energy =            432.4872189904582456
    One-Electron Energy =               -1445.1426753535206444
    Two-Electron Energy =                 580.8592436618522470
    Total Energy =                       -431.7962127012101519
  Basis Set: (AUG-CC-PVTZ AUX)
    Blend: AUG-CC-PVTZ-RI
    Molecular point group: c1

    Geometry (in Angstrom), charge = 0, multiplicity = 1:

       Center              X                  Y                   Z               Mass
    ------------   -----------------  -----------------  -----------------  -----------------
         O            1.286534160007     1.576387441795    -0.000003992803    15.994914619570
         N           -1.438056839993     0.963811441795     0.000003007197    14.003074004430
         N            1.788956160007    -0.680858558205     0.000000007197    14.003074004430
         N           -1.003682839993    -1.222949558205     0.000000007197    14.003074004430
         C           -0.475970839993     0.002902441795     0.000005007197    12.000000000000
         C            0.950605160007     0.381773441795     0.000000007197    12.000000000000
         C           -2.654560839993     0.334823441795    -0.000000992803    12.000000000000
         C           -2.359666839993    -1.017512558205    -0.000002992803    12.000000000000
         C            3.229824160007    -0.534224558205     0.000000007197    12.000000000000
         H           -1.229458839993     1.956993441795     0.000009007197     1.007825032230
         H            1.354152160007    -1.597740558205     0.000007007197     1.007825032230
         H           -3.606345339993     0.886615541795    -0.000000992803     1.007825032230
         H           -3.055862839993    -1.845648558205    -0.000006992803     1.007825032230
         H            3.445654160007     0.534111441795    -0.000006992803     1.007825032230
         H            3.669417160007    -0.991400558205    -0.891024992803     1.007825032230
         H            3.669413160007    -0.991387558205     0.891033007197     1.007825032230

  Basis Set: AUG-CC-PVTZ
    Blend: AUG-CC-PVTZ
  Basis Set: (AUG-CC-PVTZ AUX)
    Blend: AUG-CC-PVTZ-JKFIT
	 Reference Energy          =    -431.7962127012100950 [Eh]
	 Singles Energy            =      -0.0000000000000000 [Eh]
	 Same-Spin Energy          =      -0.4557618630566599 [Eh]
	 Opposite-Spin Energy      =      -1.3797766595064376 [Eh]
	 Correlation Energy        =      -1.8355385225630976 [Eh]
	 Total Energy              =    -433.6317512237731648 [Eh]

	 ================> DF-SCS-MP2 Energies <==================
	-----------------------------------------------------------
	 SCS Same-Spin Scale       =       0.3333333333333333 [-]
	 SCS Opposite-Spin Scale   =       1.2000000000000000 [-]
	 SCS Same-Spin Energy      =      -0.1519206210188866 [Eh]
	 SCS Opposite-Spin Energy  =      -1.6557319914077251 [Eh]
	 SCS Correlation Energy    =      -1.8076526124266117 [Eh]
	 SCS Total Energy          =    -433.6038653136367316 [Eh]
	-----------------------------------------------------------

  Dipole Moment: [D]
     X:    -0.9777      Y:    -0.3982      Z:     0.0000     Total:     1.0557

*** Psi4 exiting successfully. Buy a developer a beer!
