                               Psi4 1.4a3.dev225

  ==> Input File <==

--------------------------------------------------------------------------
#psi4
#
memory 32 gb

molecule  {
0 1
  O        1.2542850     1.5918540    -0.0000040
  N       -1.4703060     0.9792780     0.0000030
  N        1.7567070    -0.6653920     0.0000000
  N       -1.0359320    -1.2074830     0.0000000
  C       -0.5082200     0.0183690     0.0000050
  C        0.9183560     0.3972400     0.0000000
  C       -2.6868100     0.3502900    -0.0000010
  C       -2.3721417    -1.0050419    -0.0000030
  C        3.1975750    -0.5187580     0.0000000
  H       -1.2617080     1.9724600     0.0000090
  H        1.3219030    -1.5822740     0.0000070
  H       -3.6212920     0.8920510    -0.0000010
  H       -3.0881120    -1.8301820    -0.0000070
  H        3.4134050     0.5495780    -0.0000070
  H        3.6371680    -0.9759340    -0.8910250
  H        3.6371640    -0.9759210     0.8910330
units angstrom
no_reorient  #important for SAPT in psi4, default
symmetry c1  #important for SAPT in psi4, default
}

set PROPERTIES_ORIGIN ["COM"]
properties('MP2/aug-cc-pvtz', properties = ['dipole'])
--------------------------------------------------------------------------

    Molecular point group: c1
  Charge       = 0
  Multiplicity = 1
  Basis Set: AUG-CC-PVTZ
    Blend: AUG-CC-PVTZ
  Basis Set: (AUG-CC-PVTZ AUX)
    Blend: AUG-CC-PVTZ-JKFIT

    Orbital Energies [Eh]
    ---------------------

    Doubly Occupied:

       1A    -20.527110     2A    -15.637060     3A    -15.592281
       4A    -15.570501     5A    -11.366078     6A    -11.309735
       7A    -11.279581     8A    -11.262816     9A    -11.261179
      10A     -1.386920    11A     -1.349946    12A     -1.239728
      13A     -1.185005    14A     -1.037491    15A     -0.961394
      16A     -0.859243    17A     -0.824658    18A     -0.797905
      19A     -0.772681    20A     -0.669114    21A     -0.651190
      22A     -0.639215    23A     -0.613352    24A     -0.608761
      25A     -0.596300    26A     -0.585898    27A     -0.550329
      28A     -0.536503    29A     -0.464473    30A     -0.442419
      31A     -0.421080    32A     -0.395657    33A     -0.326188

  @DF-RHF Final Energy:  -431.79631080664893

   => Energetics <=

    Nuclear Repulsion Energy =            432.9042042341738465
    One-Electron Energy =               -1445.9574529762076054
    Two-Electron Energy =                 581.2569379353847125
    Total Energy =                       -431.7963108066489895
  Basis Set: (AUG-CC-PVTZ AUX)
    Blend: AUG-CC-PVTZ-RI
    Molecular point group: c1

    Geometry (in Angstrom), charge = 0, multiplicity = 1:

       Center              X                  Y                   Z               Mass
    ------------   -----------------  -----------------  -----------------  -----------------
         O            1.284497284036     1.576755751362    -0.000003992803    15.994914619570
         N           -1.440093715964     0.964179751362     0.000003007197    14.003074004430
         N            1.786919284036    -0.680490248638     0.000000007197    14.003074004430
         N           -1.005719715964    -1.222581248638     0.000000007197    14.003074004430
         C           -0.478007715964     0.003270751362     0.000005007197    12.000000000000
         C            0.948568284036     0.382141751362     0.000000007197    12.000000000000
         C           -2.656597715964     0.335191751362    -0.000000992803    12.000000000000
         C           -2.341929415964    -1.020140148638    -0.000002992803    12.000000000000
         C            3.227787284036    -0.533856248638     0.000000007197    12.000000000000
         H           -1.231495715964     1.957361751362     0.000009007197     1.007825032230
         H            1.352115284036    -1.597372248638     0.000007007197     1.007825032230
         H           -3.591079715964     0.876952751362    -0.000000992803     1.007825032230
         H           -3.057899715964    -1.845280248638    -0.000006992803     1.007825032230
         H            3.443617284036     0.534479751362    -0.000006992803     1.007825032230
         H            3.667380284036    -0.991032248638    -0.891024992803     1.007825032230
         H            3.667376284036    -0.991019248638     0.891033007197     1.007825032230

  Basis Set: AUG-CC-PVTZ
    Blend: AUG-CC-PVTZ
  Basis Set: (AUG-CC-PVTZ AUX)
    Blend: AUG-CC-PVTZ-JKFIT
	 Reference Energy          =    -431.7963108066489326 [Eh]
	 Singles Energy            =      -0.0000000000000000 [Eh]
	 Same-Spin Energy          =      -0.4559671063717727 [Eh]
	 Opposite-Spin Energy      =      -1.3796147425368521 [Eh]
	 Correlation Energy        =      -1.8355818489086249 [Eh]
	 Total Energy              =    -433.6318926555575786 [Eh]

	 ================> DF-SCS-MP2 Energies <==================
	-----------------------------------------------------------
	 SCS Same-Spin Scale       =       0.3333333333333333 [-]
	 SCS Opposite-Spin Scale   =       1.2000000000000000 [-]
	 SCS Same-Spin Energy      =      -0.1519890354572576 [Eh]
	 SCS Opposite-Spin Energy  =      -1.6555376910442225 [Eh]
	 SCS Correlation Energy    =      -1.8075267265014801 [Eh]
	 SCS Total Energy          =    -433.6038375331503971 [Eh]
	-----------------------------------------------------------

  Dipole Moment: [D]
     X:    -0.9844      Y:    -0.4042      Z:     0.0000     Total:     1.0641

*** Psi4 exiting successfully. Buy a developer a beer!
