                               Psi4 1.3.2 release

  ==> Input File <==

--------------------------------------------------------------------------
#psi4
#
memory 32 gb

molecule  {
0 1
  O        1.2542850     1.5918540    -0.0000040
  N       -1.4703060     0.9792780     0.0000030
  N        1.7567070    -0.6653920     0.0000000
  N       -1.0397239    -1.2311169    -0.0000001
  C       -0.5082200     0.0183690     0.0000050
  C        0.9183560     0.3972400     0.0000000
  C       -2.6868100     0.3502900    -0.0000010
  C       -2.3919160    -1.0020460    -0.0000030
  C        3.1975750    -0.5187580     0.0000000
  H       -1.2617080     1.9724600     0.0000090
  H        1.3219030    -1.5822740     0.0000070
  H       -3.6212920     0.8920510    -0.0000010
  H       -3.0881120    -1.8301820    -0.0000070
  H        3.4134050     0.5495780    -0.0000070
  H        3.6371680    -0.9759340    -0.8910250
  H        3.6371640    -0.9759210     0.8910330
units angstrom
no_reorient  #important for SAPT in psi4, default
symmetry c1  #important for SAPT in psi4, default
}

set PROPERTIES_ORIGIN ["COM"]
properties('MP2/aug-cc-pvtz', properties = ['dipole'])
--------------------------------------------------------------------------

    Molecular point group: c1
  Charge       = 0
  Multiplicity = 1
  Basis Set: AUG-CC-PVTZ
    Blend: AUG-CC-PVTZ
  Basis Set: (AUG-CC-PVTZ AUX)
    Blend: AUG-CC-PVTZ-JKFIT

    Orbital Energies [Eh]
    ---------------------

    Doubly Occupied:

       1A    -20.527757     2A    -15.638648     3A    -15.592631
       4A    -15.574375     5A    -11.366818     6A    -11.313369
       7A    -11.279490     8A    -11.263011     9A    -11.261407
      10A     -1.386503    11A     -1.345794    12A     -1.239914
      13A     -1.178845    14A     -1.037442    15A     -0.961883
      16A     -0.860279    17A     -0.823181    18A     -0.798046
      19A     -0.772511    20A     -0.667578    21A     -0.651093
      22A     -0.638326    23A     -0.614808    24A     -0.607450
      25A     -0.594700    26A     -0.584704    27A     -0.550576
      28A     -0.536812    29A     -0.465963    30A     -0.443353
      31A     -0.417623    32A     -0.395542    33A     -0.327325

  @DF-RHF Final Energy:  -431.79415738046816

   => Energetics <=

    Nuclear Repulsion Energy =            431.9782291585277676
    One-Electron Energy =               -1444.1092572611207743
    Two-Electron Energy =                 580.3368707221248997
    Total Energy =                       -431.7941573804681639
  Basis Set: (AUG-CC-PVTZ AUX)
    Blend: AUG-CC-PVTZ-RI
    Molecular point group: c1

    Geometry (in Angstrom), charge = 0, multiplicity = 1:

       Center              X                  Y                   Z               Mass
    ------------   -----------------  -----------------  -----------------  -----------------
         O            1.286819308528     1.579114611249    -0.000003981606    15.994914619570
         N           -1.437771691472     0.966538611249     0.000003018394    14.003074004430
         N            1.789241308528    -0.678131388751     0.000000018394    14.003074004430
         N           -1.007189591472    -1.243856288751    -0.000000081606    14.003074004430
         C           -0.475685691472     0.005629611249     0.000005018394    12.000000000000
         C            0.950890308528     0.384500611249     0.000000018394    12.000000000000
         C           -2.654275691472     0.337550611249    -0.000000981606    12.000000000000
         C           -2.359381691472    -1.014785388751    -0.000002981606    12.000000000000
         C            3.230109308528    -0.531497388751     0.000000018394    12.000000000000
         H           -1.229173691472     1.959720611249     0.000009018394     1.007825032230
         H            1.354437308528    -1.595013388751     0.000007018394     1.007825032230
         H           -3.588757691472     0.879311611249    -0.000000981606     1.007825032230
         H           -3.055577691472    -1.842921388751    -0.000006981606     1.007825032230
         H            3.445939308528     0.536838611249    -0.000006981606     1.007825032230
         H            3.669702308528    -0.988673388751    -0.891024981606     1.007825032230
         H            3.669698308528    -0.988660388751     0.891033018394     1.007825032230

  Basis Set: AUG-CC-PVTZ
    Blend: AUG-CC-PVTZ
  Basis Set: (AUG-CC-PVTZ AUX)
    Blend: AUG-CC-PVTZ-JKFIT
	 Reference Energy          =    -431.7941573804681639 [Eh]
	 Singles Energy            =      -0.0000000000000000 [Eh]
	 Same-Spin Energy          =      -0.4562517283549837 [Eh]
	 Opposite-Spin Energy      =      -1.3807911222832003 [Eh]
	 Correlation Energy        =      -1.8370428506381842 [Eh]
	 Total Energy              =    -433.6312002311063338 [Eh]

	 ================> DF-SCS-MP2 Energies <==================
	-----------------------------------------------------------
	 SCS Same-Spin Scale       =       0.3333333333333333 [-]
	 SCS Opposite-Spin Scale   =       1.2000000000000000 [-]
	 SCS Same-Spin Energy      =      -0.1520839094516612 [Eh]
	 SCS Opposite-Spin Energy  =      -1.6569493467398404 [Eh]
	 SCS Correlation Energy    =      -1.8090332561915017 [Eh]
	 SCS Total Energy          =    -433.6031906366596900 [Eh]
	-----------------------------------------------------------

  Dipole Moment: [D]
     X:    -0.9942      Y:    -0.3480      Z:     0.0000     Total:     1.0533

*** Psi4 exiting successfully. Buy a developer a beer!
