                               Psi4 1.3.2 release

  ==> Input File <==

--------------------------------------------------------------------------
#psi4
#
memory 32 gb

molecule  {
0 1
  O        1.2542850     1.5918540    -0.0000040
  N       -1.4703060     0.9792780     0.0000030
  N        1.7567070    -0.6653920     0.0000000
  N       -1.0359320    -1.2074830     0.0000000
  C       -0.5082200     0.0183690     0.0000050
  C        0.9183560     0.3972400     0.0000000
  C       -2.5091523     0.4421471    -0.0000004
  C       -2.3919160    -1.0020460    -0.0000030
  C        3.1975750    -0.5187580     0.0000000
  H       -1.2617080     1.9724600     0.0000090
  H        1.3219030    -1.5822740     0.0000070
  H       -3.6212920     0.8920510    -0.0000010
  H       -3.0881120    -1.8301820    -0.0000070
  H        3.4134050     0.5495780    -0.0000070
  H        3.6371680    -0.9759340    -0.8910250
  H        3.6371640    -0.9759210     0.8910330
units angstrom
no_reorient  #important for SAPT in psi4, default
symmetry c1  #important for SAPT in psi4, default
}

set PROPERTIES_ORIGIN ["COM"]
properties('MP2/aug-cc-pvtz', properties = ['dipole'])
--------------------------------------------------------------------------

    Molecular point group: c1
  Charge       = 0
  Multiplicity = 1
  Basis Set: AUG-CC-PVTZ
    Blend: AUG-CC-PVTZ
  Basis Set: (AUG-CC-PVTZ AUX)
    Blend: AUG-CC-PVTZ-JKFIT

    Orbital Energies [Eh]
    ---------------------

    Doubly Occupied:

       1A    -20.519649     2A    -15.648154     3A    -15.584819
       4A    -15.579349     5A    -11.359287     6A    -11.291435
       7A    -11.288509     8A    -11.258495     9A    -11.256260
      10A     -1.421642    11A     -1.369859    12A     -1.236674
      13A     -1.207842    14A     -1.032807    15A     -0.953949
      16A     -0.862753    17A     -0.848616    18A     -0.809557
      19A     -0.765082    20A     -0.692254    21A     -0.661836
      22A     -0.642223    23A     -0.618222    24A     -0.617898
      25A     -0.581860    26A     -0.560708    27A     -0.544531
      28A     -0.537453    29A     -0.458471    30A     -0.437726
      31A     -0.436351    32A     -0.392313    33A     -0.306759

  @DF-RHF Final Energy:  -431.73616140860554

   => Energetics <=

    Nuclear Repulsion Energy =            436.3382722600686066
    One-Electron Energy =               -1452.5821793969339524
    Two-Electron Energy =                 584.5077457282598061
    Total Energy =                       -431.7361614086055397
  Basis Set: (AUG-CC-PVTZ AUX)
    Blend: AUG-CC-PVTZ-RI
    Molecular point group: c1

    Geometry (in Angstrom), charge = 0, multiplicity = 1:

       Center              X                  Y                   Z               Mass
    ------------   -----------------  -----------------  -----------------  -----------------
         O            1.269347617596     1.567654152898    -0.000004050376    15.994914619570
         N           -1.455243382404     0.955078152898     0.000002949624    14.003074004430
         N            1.771769617596    -0.689591847102    -0.000000050376    14.003074004430
         N           -1.020869382404    -1.231682847102    -0.000000050376    14.003074004430
         C           -0.493157382404    -0.005830847102     0.000004949624    12.000000000000
         C            0.933418617596     0.373040152898    -0.000000050376    12.000000000000
         C           -2.494089682404     0.417947252898    -0.000000450376    12.000000000000
         C           -2.376853382404    -1.026245847102    -0.000003050376    12.000000000000
         C            3.212637617596    -0.542957847102    -0.000000050376    12.000000000000
         H           -1.246645382404     1.948260152898     0.000008949624     1.007825032230
         H            1.336965617596    -1.606473847102     0.000006949624     1.007825032230
         H           -3.606229382404     0.867851152898    -0.000001050376     1.007825032230
         H           -3.073049382404    -1.854381847102    -0.000007050376     1.007825032230
         H            3.428467617596     0.525378152898    -0.000007050376     1.007825032230
         H            3.652230617596    -1.000133847102    -0.891025050376     1.007825032230
         H            3.652226617596    -1.000120847102     0.891032949624     1.007825032230

  Basis Set: AUG-CC-PVTZ
    Blend: AUG-CC-PVTZ
  Basis Set: (AUG-CC-PVTZ AUX)
    Blend: AUG-CC-PVTZ-JKFIT
	 Reference Energy          =    -431.7361614086055397 [Eh]
	 Singles Energy            =      -0.0000000000000000 [Eh]
	 Same-Spin Energy          =      -0.4571866395777272 [Eh]
	 Opposite-Spin Energy      =      -1.3787048378894882 [Eh]
	 Correlation Energy        =      -1.8358914774672153 [Eh]
	 Total Energy              =    -433.5720528860727541 [Eh]

	 ================> DF-SCS-MP2 Energies <==================
	-----------------------------------------------------------
	 SCS Same-Spin Scale       =       0.3333333333333333 [-]
	 SCS Opposite-Spin Scale   =       1.2000000000000000 [-]
	 SCS Same-Spin Energy      =      -0.1523955465259091 [Eh]
	 SCS Opposite-Spin Energy  =      -1.6544458054673858 [Eh]
	 SCS Correlation Energy    =      -1.8068413519932949 [Eh]
	 SCS Total Energy          =    -433.5430027605988244 [Eh]
	-----------------------------------------------------------

  Dipole Moment: [D]
     X:    -1.1956      Y:    -0.1563      Z:     0.0000     Total:     1.2058

*** Psi4 exiting successfully. Buy a developer a beer!
