                               Psi4 1.3.2 release

  ==> Input File <==

--------------------------------------------------------------------------
#psi4
#
memory 32 gb

molecule  {
0 1
  O        1.2542850     1.5918540    -0.0000040
  N       -1.5427173     1.1029916     0.0000032
  N        1.7567070    -0.6653920     0.0000000
  N       -1.0359320    -1.2074830     0.0000000
  C       -0.5082200     0.0183690     0.0000050
  C        0.9183560     0.3972400     0.0000000
  C       -2.6868100     0.3502900    -0.0000010
  C       -2.3919160    -1.0020460    -0.0000030
  C        3.1975750    -0.5187580     0.0000000
  H       -1.2617080     1.9724600     0.0000090
  H        1.3219030    -1.5822740     0.0000070
  H       -3.6212920     0.8920510    -0.0000010
  H       -3.0881120    -1.8301820    -0.0000070
  H        3.4134050     0.5495780    -0.0000070
  H        3.6371680    -0.9759340    -0.8910250
  H        3.6371640    -0.9759210     0.8910330
units angstrom
no_reorient  #important for SAPT in psi4, default
symmetry c1  #important for SAPT in psi4, default
}

set PROPERTIES_ORIGIN ["COM"]
properties('MP2/aug-cc-pvtz', properties = ['dipole'])
--------------------------------------------------------------------------

    Molecular point group: c1
  Charge       = 0
  Multiplicity = 1
  Basis Set: AUG-CC-PVTZ
    Blend: AUG-CC-PVTZ
  Basis Set: (AUG-CC-PVTZ AUX)
    Blend: AUG-CC-PVTZ-JKFIT

    Orbital Energies [Eh]
    ---------------------

    Doubly Occupied:

       1A    -20.526582     2A    -15.627254     3A    -15.592365
       4A    -15.588422     5A    -11.366485     6A    -11.322648
       7A    -11.291880     8A    -11.262965     9A    -11.262384
      10A     -1.382318    11A     -1.328223    12A     -1.240098
      13A     -1.194475    14A     -1.031834    15A     -0.962758
      16A     -0.876934    17A     -0.833193    18A     -0.782995
      19A     -0.767248    20A     -0.681047    21A     -0.649622
      22A     -0.633905    23A     -0.623776    24A     -0.597480
      25A     -0.591599    26A     -0.570197    27A     -0.550398
      28A     -0.535722    29A     -0.474071    30A     -0.442293
      31A     -0.428380    32A     -0.396083    33A     -0.323437

  @DF-RHF Final Energy:  -431.76534690649055

   => Energetics <=

    Nuclear Repulsion Energy =            429.5183786174010834
    One-Electron Energy =               -1439.0893094110790571
    Two-Electron Energy =                 577.8055838871873675
    Total Energy =                       -431.7653469064905494
  Basis Set: (AUG-CC-PVTZ AUX)
    Blend: AUG-CC-PVTZ-RI
    Molecular point group: c1

    Geometry (in Angstrom), charge = 0, multiplicity = 1:

       Center              X                  Y                   Z               Mass
    ------------   -----------------  -----------------  -----------------  -----------------
         O            1.294502747653     1.562615843458    -0.000004015198    15.994914619570
         N           -1.502499552347     1.073753443458     0.000003184802    14.003074004430
         N            1.796924747653    -0.694630156542    -0.000000015198    14.003074004430
         N           -0.995714252347    -1.236721156542    -0.000000015198    14.003074004430
         C           -0.468002252347    -0.010869156542     0.000004984802    12.000000000000
         C            0.958573747653     0.368001843458    -0.000000015198    12.000000000000
         C           -2.646592252347     0.321051843458    -0.000001015198    12.000000000000
         C           -2.351698252347    -1.031284156542    -0.000003015198    12.000000000000
         C            3.237792747653    -0.547996156542    -0.000000015198    12.000000000000
         H           -1.221490252347     1.943221843458     0.000008984802     1.007825032230
         H            1.362120747653    -1.611512156542     0.000006984802     1.007825032230
         H           -3.581074252347     0.862812843458    -0.000001015198     1.007825032230
         H           -3.047894252347    -1.859420156542    -0.000007015198     1.007825032230
         H            3.453622747653     0.520339843458    -0.000007015198     1.007825032230
         H            3.677385747653    -1.005172156542    -0.891025015198     1.007825032230
         H            3.677381747653    -1.005159156542     0.891032984802     1.007825032230

  Basis Set: AUG-CC-PVTZ
    Blend: AUG-CC-PVTZ
  Basis Set: (AUG-CC-PVTZ AUX)
    Blend: AUG-CC-PVTZ-JKFIT
	 Reference Energy          =    -431.7653469064905494 [Eh]
	 Singles Energy            =      -0.0000000000000000 [Eh]
	 Same-Spin Energy          =      -0.4559554833599462 [Eh]
	 Opposite-Spin Energy      =      -1.3824364884201721 [Eh]
	 Correlation Energy        =      -1.8383919717801183 [Eh]
	 Total Energy              =    -433.6037388782706898 [Eh]

	 ================> DF-SCS-MP2 Energies <==================
	-----------------------------------------------------------
	 SCS Same-Spin Scale       =       0.3333333333333333 [-]
	 SCS Opposite-Spin Scale   =       1.2000000000000000 [-]
	 SCS Same-Spin Energy      =      -0.1519851611199821 [Eh]
	 SCS Opposite-Spin Energy  =      -1.6589237861042065 [Eh]
	 SCS Correlation Energy    =      -1.8109089472241886 [Eh]
	 SCS Total Energy          =    -433.5762558537147129 [Eh]
	-----------------------------------------------------------

  Dipole Moment: [D]
     X:    -0.9189      Y:    -0.7612      Z:     0.0000     Total:     1.1932

*** Psi4 exiting successfully. Buy a developer a beer!
