                               Psi4 1.4a3.dev225

  ==> Input File <==

--------------------------------------------------------------------------
#psi4
#
memory 32 gb

molecule  {
0 1
  O        1.2542850     1.5918540    -0.0000040
  N       -1.4703060     0.9792780     0.0000030
  N        1.7567070    -0.6653920     0.0000000
  N       -1.0359320    -1.2074830     0.0000000
  C       -0.5082200     0.0183690     0.0000050
  C        0.9183560     0.3972400     0.0000000
  C       -2.6423956     0.3732543    -0.0000009
  C       -2.3919160    -1.0020460    -0.0000030
  C        3.1975750    -0.5187580     0.0000000
  H       -1.2617080     1.9724600     0.0000090
  H        1.3219030    -1.5822740     0.0000070
  H       -3.6212920     0.8920510    -0.0000010
  H       -3.0881120    -1.8301820    -0.0000070
  H        3.4134050     0.5495780    -0.0000070
  H        3.6371680    -0.9759340    -0.8910250
  H        3.6371640    -0.9759210     0.8910330
units angstrom
no_reorient  #important for SAPT in psi4, default
symmetry c1  #important for SAPT in psi4, default
}

set PROPERTIES_ORIGIN ["COM"]
properties('MP2/aug-cc-pvtz', properties = ['dipole'])
--------------------------------------------------------------------------

    Molecular point group: c1
  Charge       = 0
  Multiplicity = 1
  Basis Set: AUG-CC-PVTZ
    Blend: AUG-CC-PVTZ
  Basis Set: (AUG-CC-PVTZ AUX)
    Blend: AUG-CC-PVTZ-JKFIT

    Orbital Energies [Eh]
    ---------------------

    Doubly Occupied:

       1A    -20.525937     2A    -15.639090     3A    -15.590819
       4A    -15.572810     5A    -11.364892     6A    -11.306035
       7A    -11.281188     8A    -11.261976     9A    -11.259156
      10A     -1.388294    11A     -1.356855    12A     -1.238909
      13A     -1.187362    14A     -1.036969    15A     -0.959849
      16A     -0.857615    17A     -0.829829    18A     -0.800633
      19A     -0.771383    20A     -0.674546    21A     -0.648259
      22A     -0.640976    23A     -0.611820    24A     -0.611702
      25A     -0.594831    26A     -0.584941    27A     -0.549409
      28A     -0.536950    29A     -0.463486    30A     -0.441132
      31A     -0.422293    32A     -0.394843    33A     -0.323384

  @DF-RHF Final Energy:  -431.79417920191878

   => Energetics <=

    Nuclear Repulsion Energy =            433.4557738972537209
    One-Electron Energy =               -1447.0435634397376816
    Two-Electron Energy =                 581.7936103405652375
    Total Energy =                       -431.7941792019187233
  Basis Set: (AUG-CC-PVTZ AUX)
    Blend: AUG-CC-PVTZ-RI
    Molecular point group: c1

    Geometry (in Angstrom), charge = 0, multiplicity = 1:

       Center              X                  Y                   Z               Mass
    ------------   -----------------  -----------------  -----------------  -----------------
         O            1.282132948735     1.574264746160    -0.000004002399    15.994914619570
         N           -1.442458051265     0.961688746160     0.000002997601    14.003074004430
         N            1.784554948735    -0.682981253840    -0.000000002399    14.003074004430
         N           -1.008084051265    -1.225072253840    -0.000000002399    14.003074004430
         C           -0.480372051265     0.000779746160     0.000004997601    12.000000000000
         C            0.946203948735     0.379650746160    -0.000000002399    12.000000000000
         C           -2.614547651265     0.355665046160    -0.000000902399    12.000000000000
         C           -2.364068051265    -1.019635253840    -0.000003002399    12.000000000000
         C            3.225422948735    -0.536347253840    -0.000000002399    12.000000000000
         H           -1.233860051265     1.954870746160     0.000008997601     1.007825032230
         H            1.349750948735    -1.599863253840     0.000006997601     1.007825032230
         H           -3.593444051265     0.874461746160    -0.000001002399     1.007825032230
         H           -3.060264051265    -1.847771253840    -0.000007002399     1.007825032230
         H            3.441252948735     0.531988746160    -0.000007002399     1.007825032230
         H            3.665015948735    -0.993523253840    -0.891025002399     1.007825032230
         H            3.665011948735    -0.993510253840     0.891032997601     1.007825032230

  Basis Set: AUG-CC-PVTZ
    Blend: AUG-CC-PVTZ
  Basis Set: (AUG-CC-PVTZ AUX)
    Blend: AUG-CC-PVTZ-JKFIT
	 Reference Energy          =    -431.7941792019187801 [Eh]
	 Singles Energy            =      -0.0000000000000000 [Eh]
	 Same-Spin Energy          =      -0.4561322257786162 [Eh]
	 Opposite-Spin Energy      =      -1.3792903266872409 [Eh]
	 Correlation Energy        =      -1.8354225524658572 [Eh]
	 Total Energy              =    -433.6296017543846233 [Eh]

	 ================> DF-SCS-MP2 Energies <==================
	-----------------------------------------------------------
	 SCS Same-Spin Scale       =       0.3333333333333333 [-]
	 SCS Opposite-Spin Scale   =       1.2000000000000000 [-]
	 SCS Same-Spin Energy      =      -0.1520440752595387 [Eh]
	 SCS Opposite-Spin Energy  =      -1.6551483920246890 [Eh]
	 SCS Correlation Energy    =      -1.8071924672842277 [Eh]
	 SCS Total Energy          =    -433.6013716692029902 [Eh]
	-----------------------------------------------------------

  Dipole Moment: [D]
     X:    -1.0195      Y:    -0.3486      Z:     0.0000     Total:     1.0775

*** Psi4 exiting successfully. Buy a developer a beer!
