                               Psi4 1.3.2 release

  ==> Input File <==

--------------------------------------------------------------------------
#psi4
#
memory 32 gb

molecule  {
0 1
  O        1.2542850     1.5918540    -0.0000040
  N       -1.4703060     0.9792780     0.0000030
  N        1.7567070    -0.6653920     0.0000000
  N       -1.0359320    -1.2074830     0.0000000
  C       -0.5082200     0.0183690     0.0000050
  C        0.9183560     0.3972400     0.0000000
  C       -2.7804258     0.3264250    -0.0000013
  C       -2.3919160    -1.0020460    -0.0000030
  C        3.1975750    -0.5187580     0.0000000
  H       -1.2617080     1.9724600     0.0000090
  H        1.3219030    -1.5822740     0.0000070
  H       -3.6212920     0.8920510    -0.0000010
  H       -3.0881120    -1.8301820    -0.0000070
  H        3.4134050     0.5495780    -0.0000070
  H        3.6371680    -0.9759340    -0.8910250
  H        3.6371640    -0.9759210     0.8910330
units angstrom
no_reorient  #important for SAPT in psi4, default
symmetry c1  #important for SAPT in psi4, default
}

set PROPERTIES_ORIGIN ["COM"]
properties('MP2/aug-cc-pvtz', properties = ['dipole'])
--------------------------------------------------------------------------

    Molecular point group: c1
  Charge       = 0
  Multiplicity = 1
  Basis Set: AUG-CC-PVTZ
    Blend: AUG-CC-PVTZ
  Basis Set: (AUG-CC-PVTZ AUX)
    Blend: AUG-CC-PVTZ-JKFIT

    Orbital Energies [Eh]
    ---------------------

    Doubly Occupied:

       1A    -20.530306     2A    -15.630027     3A    -15.595420
       4A    -15.569070     5A    -11.369145     6A    -11.317771
       7A    -11.279926     8A    -11.267886     9A    -11.264619
      10A     -1.386907    11A     -1.332321    12A     -1.241703
      13A     -1.168698    14A     -1.039379    15A     -0.965809
      16A     -0.861131    17A     -0.821137    18A     -0.793424
      19A     -0.774798    20A     -0.665266    21A     -0.656231
      22A     -0.637488    23A     -0.626034    24A     -0.600928
      25A     -0.588183    26A     -0.580348    27A     -0.552325
      28A     -0.535635    29A     -0.466088    30A     -0.444525
      31A     -0.412361    32A     -0.395652    33A     -0.335069

  @DF-RHF Final Energy:  -431.78389223269096

   => Energetics <=

    Nuclear Repulsion Energy =            430.7050834795724086
    One-Electron Energy =               -1441.5667311992640407
    Two-Electron Energy =                 579.0777554870006725
    Total Energy =                       -431.7838922326909596
  Basis Set: (AUG-CC-PVTZ AUX)
    Blend: AUG-CC-PVTZ-RI
    Molecular point group: c1

    Geometry (in Angstrom), charge = 0, multiplicity = 1:

       Center              X                  Y                   Z               Mass
    ------------   -----------------  -----------------  -----------------  -----------------
         O            1.295377605796     1.578758241198    -0.000003964017    15.994914619570
         N           -1.429213394204     0.966182241198     0.000003035983    14.003074004430
         N            1.797799605796    -0.678487758802     0.000000035983    14.003074004430
         N           -0.994839394204    -1.220578758802     0.000000035983    14.003074004430
         C           -0.467127394204     0.005273241198     0.000005035983    12.000000000000
         C            0.959448605796     0.384144241198     0.000000035983    12.000000000000
         C           -2.739333194204     0.313329241198    -0.000001264017    12.000000000000
         C           -2.350823394204    -1.015141758802    -0.000002964017    12.000000000000
         C            3.238667605796    -0.531853758802     0.000000035983    12.000000000000
         H           -1.220615394204     1.959364241198     0.000009035983     1.007825032230
         H            1.362995605796    -1.595369758802     0.000007035983     1.007825032230
         H           -3.580199394204     0.878955241198    -0.000000964017     1.007825032230
         H           -3.047019394204    -1.843277758802    -0.000006964017     1.007825032230
         H            3.454497605796     0.536482241198    -0.000006964017     1.007825032230
         H            3.678260605796    -0.989029758802    -0.891024964017     1.007825032230
         H            3.678256605796    -0.989016758802     0.891033035983     1.007825032230

  Basis Set: AUG-CC-PVTZ
    Blend: AUG-CC-PVTZ
  Basis Set: (AUG-CC-PVTZ AUX)
    Blend: AUG-CC-PVTZ-JKFIT
	 Reference Energy          =    -431.7838922326909596 [Eh]
	 Singles Energy            =      -0.0000000000000000 [Eh]
	 Same-Spin Energy          =      -0.4553663892119513 [Eh]
	 Opposite-Spin Energy      =      -1.3812050298707514 [Eh]
	 Correlation Energy        =      -1.8365714190827027 [Eh]
	 Total Energy              =    -433.6204636517736617 [Eh]

	 ================> DF-SCS-MP2 Energies <==================
	-----------------------------------------------------------
	 SCS Same-Spin Scale       =       0.3333333333333333 [-]
	 SCS Opposite-Spin Scale   =       1.2000000000000000 [-]
	 SCS Same-Spin Energy      =      -0.1517887964039838 [Eh]
	 SCS Opposite-Spin Energy  =      -1.6574460358449017 [Eh]
	 SCS Correlation Energy    =      -1.8092348322488854 [Eh]
	 SCS Total Energy          =    -433.5931270649398357 [Eh]
	-----------------------------------------------------------

  Dipole Moment: [D]
     X:    -0.9063      Y:    -0.4806      Z:     0.0000     Total:     1.0258

*** Psi4 exiting successfully. Buy a developer a beer!
