                               Psi4 1.4a3.dev225

  ==> Input File <==

--------------------------------------------------------------------------
#psi4
#
memory 32 gb

molecule  {
0 1
  O        1.2542850     1.5918540    -0.0000040
  N       -1.4703060     0.9792780     0.0000030
  N        1.7567070    -0.6653920     0.0000000
  N       -1.0359320    -1.2074830     0.0000000
  C       -0.5082200     0.0183690     0.0000050
  C        0.9183560     0.3972400     0.0000000
  C       -2.6868100     0.3502900    -0.0000010
  C       -2.3919160    -1.0020460    -0.0000030
  C        3.1975750    -0.5187580     0.0000000
  H       -1.2617080     1.9724600     0.0000090
  H        1.3219030    -1.5822740     0.0000070
  H       -3.6212920     0.8920510    -0.0000010
  H       -3.1009819    -1.8454910    -0.0000071
  H        3.4134050     0.5495780    -0.0000070
  H        3.6371680    -0.9759340    -0.8910250
  H        3.6371640    -0.9759210     0.8910330
units angstrom
no_reorient  #important for SAPT in psi4, default
symmetry c1  #important for SAPT in psi4, default
}

set PROPERTIES_ORIGIN ["COM"]
properties('MP2/aug-cc-pvtz', properties = ['dipole'])
--------------------------------------------------------------------------

    Molecular point group: c1
  Charge       = 0
  Multiplicity = 1
  Basis Set: AUG-CC-PVTZ
    Blend: AUG-CC-PVTZ
  Basis Set: (AUG-CC-PVTZ AUX)
    Blend: AUG-CC-PVTZ-JKFIT

    Orbital Energies [Eh]
    ---------------------

    Doubly Occupied:

       1A    -20.527762     2A    -15.635736     3A    -15.592602
       4A    -15.571147     5A    -11.366578     6A    -11.310555
       7A    -11.279833     8A    -11.263008     9A    -11.262921
      10A     -1.386946    11A     -1.348037    12A     -1.239968
      13A     -1.180318    14A     -1.038245    15A     -0.962010
      16A     -0.858680    17A     -0.822531    18A     -0.797477
      19A     -0.772742    20A     -0.668743    21A     -0.650927
      22A     -0.638957    23A     -0.613158    24A     -0.608213
      25A     -0.594465    26A     -0.585201    27A     -0.550566
      28A     -0.536731    29A     -0.464334    30A     -0.442503
      31A     -0.418189    32A     -0.395391    33A     -0.328825

  @DF-RHF Final Energy:  -431.79621944655270

   => Energetics <=

    Nuclear Repulsion Energy =            432.4869773604611396
    One-Electron Energy =               -1445.1397957335489082
    Two-Electron Energy =                 580.8565989265349572
    Total Energy =                       -431.7962194465527546
  Basis Set: (AUG-CC-PVTZ AUX)
    Blend: AUG-CC-PVTZ-RI
    Molecular point group: c1

    Geometry (in Angstrom), charge = 0, multiplicity = 1:

       Center              X                  Y                   Z               Mass
    ------------   -----------------  -----------------  -----------------  -----------------
         O            1.286498438561     1.576591652648    -0.000003991997    15.994914619570
         N           -1.438092561439     0.964015652648     0.000003008003    14.003074004430
         N            1.788920438561    -0.680654347352     0.000000008003    14.003074004430
         N           -1.003718561439    -1.222745347352     0.000000008003    14.003074004430
         C           -0.476006561439     0.003106652648     0.000005008003    12.000000000000
         C            0.950569438561     0.381977652648     0.000000008003    12.000000000000
         C           -2.654596561439     0.335027652648    -0.000000991997    12.000000000000
         C           -2.359702561439    -1.017308347352    -0.000002991997    12.000000000000
         C            3.229788438561    -0.534020347352     0.000000008003    12.000000000000
         H           -1.229494561439     1.957197652648     0.000009008003     1.007825032230
         H            1.354116438561    -1.597536347352     0.000007008003     1.007825032230
         H           -3.589078561439     0.876788652648    -0.000000991997     1.007825032230
         H           -3.068768461439    -1.860753347352    -0.000007091997     1.007825032230
         H            3.445618438561     0.534315652648    -0.000006991997     1.007825032230
         H            3.669381438561    -0.991196347352    -0.891024991997     1.007825032230
         H            3.669377438561    -0.991183347352     0.891033008003     1.007825032230

  Basis Set: AUG-CC-PVTZ
    Blend: AUG-CC-PVTZ
  Basis Set: (AUG-CC-PVTZ AUX)
    Blend: AUG-CC-PVTZ-JKFIT
	 Reference Energy          =    -431.7962194465526977 [Eh]
	 Singles Energy            =      -0.0000000000000000 [Eh]
	 Same-Spin Energy          =      -0.4557573338694673 [Eh]
	 Opposite-Spin Energy      =      -1.3797659183098365 [Eh]
	 Correlation Energy        =      -1.8355232521793039 [Eh]
	 Total Energy              =    -433.6317426987320118 [Eh]

	 ================> DF-SCS-MP2 Energies <==================
	-----------------------------------------------------------
	 SCS Same-Spin Scale       =       0.3333333333333333 [-]
	 SCS Opposite-Spin Scale   =       1.2000000000000000 [-]
	 SCS Same-Spin Energy      =      -0.1519191112898224 [Eh]
	 SCS Opposite-Spin Energy  =      -1.6557191019718038 [Eh]
	 SCS Correlation Energy    =      -1.8076382132616262 [Eh]
	 SCS Total Energy          =    -433.6038576598143095 [Eh]
	-----------------------------------------------------------

  Dipole Moment: [D]
     X:    -0.9719      Y:    -0.3993      Z:     0.0000     Total:     1.0508

*** Psi4 exiting successfully. Buy a developer a beer!
