                               Psi4 1.3.2 release

  ==> Input File <==

--------------------------------------------------------------------------
#psi4
#
memory 32 gb

molecule  {
0 1
  O        1.2542850     1.5918540    -0.0000040
  N       -1.4703060     0.9792780     0.0000030
  N        1.7567070    -0.6653920     0.0000000
  N       -1.0359320    -1.2074830     0.0000000
  C       -0.6497279     0.1597038     0.0000047
  C        0.9183560     0.3972400     0.0000000
  C       -2.6868100     0.3502900    -0.0000010
  C       -2.3919160    -1.0020460    -0.0000030
  C        3.1975750    -0.5187580     0.0000000
  H       -1.2617080     1.9724600     0.0000090
  H        1.3219030    -1.5822740     0.0000070
  H       -3.6212920     0.8920510    -0.0000010
  H       -3.0881120    -1.8301820    -0.0000070
  H        3.4134050     0.5495780    -0.0000070
  H        3.6371680    -0.9759340    -0.8910250
  H        3.6371640    -0.9759210     0.8910330
units angstrom
no_reorient  #important for SAPT in psi4, default
symmetry c1  #important for SAPT in psi4, default
}

set PROPERTIES_ORIGIN ["COM"]
properties('MP2/aug-cc-pvtz', properties = ['dipole'])
--------------------------------------------------------------------------

    Molecular point group: c1
  Charge       = 0
  Multiplicity = 1
  Basis Set: AUG-CC-PVTZ
    Blend: AUG-CC-PVTZ
  Basis Set: (AUG-CC-PVTZ AUX)
    Blend: AUG-CC-PVTZ-JKFIT

    Orbital Energies [Eh]
    ---------------------

    Doubly Occupied:

       1A    -20.527708     2A    -15.646774     3A    -15.595759
       4A    -15.555784     5A    -11.372120     6A    -11.308204
       7A    -11.265168     8A    -11.264137     9A    -11.260653
      10A     -1.423250    11A     -1.374181    12A     -1.238283
      13A     -1.182743    14A     -1.031756    15A     -0.961168
      16A     -0.863236    17A     -0.828868    18A     -0.819616
      19A     -0.772264    20A     -0.662021    21A     -0.659465
      22A     -0.648792    23A     -0.626052    24A     -0.622871
      25A     -0.596630    26A     -0.558463    27A     -0.551531
      28A     -0.537889    29A     -0.458749    30A     -0.431037
      31A     -0.420066    32A     -0.396718    33A     -0.322254

  @DF-RHF Final Energy:  -431.73560356379710

   => Energetics <=

    Nuclear Repulsion Energy =            433.4474170443606340
    One-Electron Energy =               -1446.7976237708667213
    Two-Electron Energy =                 581.6146031627089314
    Total Energy =                       -431.7356035637970990
  Basis Set: (AUG-CC-PVTZ AUX)
    Blend: AUG-CC-PVTZ-RI
    Molecular point group: c1

    Geometry (in Angstrom), charge = 0, multiplicity = 1:

       Center              X                  Y                   Z               Mass
    ------------   -----------------  -----------------  -----------------  -----------------
         O            1.299973081572     1.562906531228    -0.000003964017    15.994914619570
         N           -1.424617918428     0.950330531228     0.000003035983    14.003074004430
         N            1.802395081572    -0.694339468772     0.000000035983    14.003074004430
         N           -0.990243918428    -1.236430468772     0.000000035983    14.003074004430
         C           -0.604039818428     0.130756331228     0.000004735983    12.000000000000
         C            0.964044081572     0.368292531228     0.000000035983    12.000000000000
         C           -2.641121918428     0.321342531228    -0.000000964017    12.000000000000
         C           -2.346227918428    -1.030993468772    -0.000002964017    12.000000000000
         C            3.243263081572    -0.547705468772     0.000000035983    12.000000000000
         H           -1.216019918428     1.943512531228     0.000009035983     1.007825032230
         H            1.367591081572    -1.611221468772     0.000007035983     1.007825032230
         H           -3.575603918428     0.863103531228    -0.000000964017     1.007825032230
         H           -3.042423918428    -1.859129468772    -0.000006964017     1.007825032230
         H            3.459093081572     0.520630531228    -0.000006964017     1.007825032230
         H            3.682856081572    -1.004881468772    -0.891024964017     1.007825032230
         H            3.682852081572    -1.004868468772     0.891033035983     1.007825032230

  Basis Set: AUG-CC-PVTZ
    Blend: AUG-CC-PVTZ
  Basis Set: (AUG-CC-PVTZ AUX)
    Blend: AUG-CC-PVTZ-JKFIT
	 Reference Energy          =    -431.7356035637970990 [Eh]
	 Singles Energy            =      -0.0000000000000000 [Eh]
	 Same-Spin Energy          =      -0.4544897506225685 [Eh]
	 Opposite-Spin Energy      =      -1.3775094495496554 [Eh]
	 Correlation Energy        =      -1.8319992001722238 [Eh]
	 Total Energy              =    -433.5676027639693189 [Eh]

	 ================> DF-SCS-MP2 Energies <==================
	-----------------------------------------------------------
	 SCS Same-Spin Scale       =       0.3333333333333333 [-]
	 SCS Opposite-Spin Scale   =       1.2000000000000000 [-]
	 SCS Same-Spin Energy      =      -0.1514965835408562 [Eh]
	 SCS Opposite-Spin Energy  =      -1.6530113394595864 [Eh]
	 SCS Correlation Energy    =      -1.8045079230004426 [Eh]
	 SCS Total Energy          =    -433.5401114867975139 [Eh]
	-----------------------------------------------------------

  Dipole Moment: [D]
     X:    -0.7189      Y:    -0.0452      Z:     0.0000     Total:     0.7203

*** Psi4 exiting successfully. Buy a developer a beer!
