                               Psi4 1.3.2 release

  ==> Input File <==

--------------------------------------------------------------------------
#psi4
#
memory 32 gb

molecule  {
0 1
  O        1.2333849     1.5975348    -0.0000040
  N       -1.4703060     0.9792780     0.0000030
  N        1.7567070    -0.6653920     0.0000000
  N       -1.0359320    -1.2074830     0.0000000
  C       -0.5082200     0.0183690     0.0000050
  C        0.9183560     0.3972400     0.0000000
  C       -2.6868100     0.3502900    -0.0000010
  C       -2.3919160    -1.0020460    -0.0000030
  C        3.1975750    -0.5187580     0.0000000
  H       -1.2617080     1.9724600     0.0000090
  H        1.3219030    -1.5822740     0.0000070
  H       -3.6212920     0.8920510    -0.0000010
  H       -3.0881120    -1.8301820    -0.0000070
  H        3.4134050     0.5495780    -0.0000070
  H        3.6371680    -0.9759340    -0.8910250
  H        3.6371640    -0.9759210     0.8910330
units angstrom
no_reorient  #important for SAPT in psi4, default
symmetry c1  #important for SAPT in psi4, default
}

set PROPERTIES_ORIGIN ["COM"]
properties('MP2/aug-cc-pvtz', properties = ['dipole'])
--------------------------------------------------------------------------

    Molecular point group: c1
  Charge       = 0
  Multiplicity = 1
  Basis Set: AUG-CC-PVTZ
    Blend: AUG-CC-PVTZ
  Basis Set: (AUG-CC-PVTZ AUX)
    Blend: AUG-CC-PVTZ-JKFIT

    Orbital Energies [Eh]
    ---------------------

    Doubly Occupied:

       1A    -20.528182     2A    -15.634779     3A    -15.593676
       4A    -15.570214     5A    -11.366784     6A    -11.309442
       7A    -11.279040     8A    -11.263863     9A    -11.260035
      10A     -1.387068    11A     -1.347104    12A     -1.241279
      13A     -1.179587    14A     -1.037802    15A     -0.962517
      16A     -0.858275    17A     -0.824170    18A     -0.797120
      19A     -0.773254    20A     -0.668581    21A     -0.651469
      22A     -0.639052    23A     -0.613163    24A     -0.608095
      25A     -0.596072    26A     -0.586310    27A     -0.551669
      28A     -0.537004    29A     -0.463876    30A     -0.442461
      31A     -0.417690    32A     -0.396050    33A     -0.328089

  @DF-RHF Final Energy:  -431.79681288918334

   => Energetics <=

    Nuclear Repulsion Energy =            432.6581228986511860
    One-Electron Energy =               -1445.4823280544840145
    Two-Electron Energy =                 581.0273922666494855
    Total Energy =                       -431.7968128891833430
  Basis Set: (AUG-CC-PVTZ AUX)
    Blend: AUG-CC-PVTZ-RI
    Molecular point group: c1

    Geometry (in Angstrom), charge = 0, multiplicity = 1:

       Center              X                  Y                   Z               Mass
    ------------   -----------------  -----------------  -----------------  -----------------
         O            1.268167725283     1.581422511586    -0.000003992803    15.994914619570
         N           -1.435523174717     0.963165711586     0.000003007197    14.003074004430
         N            1.791489825283    -0.681504288414     0.000000007197    14.003074004430
         N           -1.001149174717    -1.223595288414     0.000000007197    14.003074004430
         C           -0.473437174717     0.002256711586     0.000005007197    12.000000000000
         C            0.953138825283     0.381127711586     0.000000007197    12.000000000000
         C           -2.652027174717     0.334177711586    -0.000000992803    12.000000000000
         C           -2.357133174717    -1.018158288414    -0.000002992803    12.000000000000
         C            3.232357825283    -0.534870288414     0.000000007197    12.000000000000
         H           -1.226925174717     1.956347711586     0.000009007197     1.007825032230
         H            1.356685825283    -1.598386288414     0.000007007197     1.007825032230
         H           -3.586509174717     0.875938711586    -0.000000992803     1.007825032230
         H           -3.053329174717    -1.846294288414    -0.000006992803     1.007825032230
         H            3.448187825283     0.533465711586    -0.000006992803     1.007825032230
         H            3.671950825283    -0.992046288414    -0.891024992803     1.007825032230
         H            3.671946825283    -0.992033288414     0.891033007197     1.007825032230

  Basis Set: AUG-CC-PVTZ
    Blend: AUG-CC-PVTZ
  Basis Set: (AUG-CC-PVTZ AUX)
    Blend: AUG-CC-PVTZ-JKFIT
	 Reference Energy          =    -431.7968128891833430 [Eh]
	 Singles Energy            =      -0.0000000000000000 [Eh]
	 Same-Spin Energy          =      -0.4556855345256498 [Eh]
	 Opposite-Spin Energy      =      -1.3795971015307922 [Eh]
	 Correlation Energy        =      -1.8352826360564420 [Eh]
	 Total Energy              =    -433.6320955252397766 [Eh]

	 ================> DF-SCS-MP2 Energies <==================
	-----------------------------------------------------------
	 SCS Same-Spin Scale       =       0.3333333333333333 [-]
	 SCS Opposite-Spin Scale   =       1.2000000000000000 [-]
	 SCS Same-Spin Energy      =      -0.1518951781752166 [Eh]
	 SCS Opposite-Spin Energy  =      -1.6555165218369505 [Eh]
	 SCS Correlation Energy    =      -1.8074117000121670 [Eh]
	 SCS Total Energy          =    -433.6042245891954963 [Eh]
	-----------------------------------------------------------

  Dipole Moment: [D]
     X:    -0.8959      Y:    -0.4097      Z:     0.0000     Total:     0.9852

*** Psi4 exiting successfully. Buy a developer a beer!
