                               Psi4 1.4a3.dev225

  ==> Input File <==

--------------------------------------------------------------------------
#psi4
#
memory 32 gb

molecule  {
0 1
  O        1.2542850     1.5918540    -0.0000040
  N       -1.4703060     0.9792780     0.0000030
  N        1.7567070    -0.6653920     0.0000000
  N       -1.0359320    -1.2074830     0.0000000
  C       -0.5082200     0.0183690     0.0000050
  C        0.9183560     0.3972400     0.0000000
  C       -2.6868100     0.3502900    -0.0000010
  C       -2.3919160    -1.0020460    -0.0000030
  C        3.1975750    -0.5187580     0.0000000
  H       -1.2617080     1.9724600     0.0000090
  H        1.3219030    -1.5822740     0.0000070
  H       -3.6212920     0.8920510    -0.0000010
  H       -3.1202868    -1.8684545    -0.0000072
  H        3.4134050     0.5495780    -0.0000070
  H        3.6371680    -0.9759340    -0.8910250
  H        3.6371640    -0.9759210     0.8910330
units angstrom
no_reorient  #important for SAPT in psi4, default
symmetry c1  #important for SAPT in psi4, default
}

set PROPERTIES_ORIGIN ["COM"]
properties('MP2/aug-cc-pvtz', properties = ['dipole'])
--------------------------------------------------------------------------

    Molecular point group: c1
  Charge       = 0
  Multiplicity = 1
  Basis Set: AUG-CC-PVTZ
    Blend: AUG-CC-PVTZ
  Basis Set: (AUG-CC-PVTZ AUX)
    Blend: AUG-CC-PVTZ-JKFIT

    Orbital Energies [Eh]
    ---------------------

    Doubly Occupied:

       1A    -20.527860     2A    -15.635900     3A    -15.592686
       4A    -15.571435     5A    -11.366696     6A    -11.310771
       7A    -11.280064     8A    -11.266208     9A    -11.263063
      10A     -1.387062    11A     -1.348225    12A     -1.240054
      13A     -1.180419    14A     -1.037920    15A     -0.961944
      16A     -0.858789    17A     -0.819277    18A     -0.797609
      19A     -0.772690    20A     -0.668749    21A     -0.650839
      22A     -0.639074    23A     -0.612494    24A     -0.608345
      25A     -0.592365    26A     -0.582205    27A     -0.550603
      28A     -0.536825    29A     -0.464120    30A     -0.442609
      31A     -0.418359    32A     -0.395480    33A     -0.328947

  @DF-RHF Final Energy:  -431.79433977018141

   => Energetics <=

    Nuclear Repulsion Energy =            432.3381071027496887
    One-Electron Energy =               -1444.8455180746257156
    Two-Electron Energy =                 580.7130712016945608
    Total Energy =                       -431.7943397701814092
  Basis Set: (AUG-CC-PVTZ AUX)
    Blend: AUG-CC-PVTZ-RI
    Molecular point group: c1

    Geometry (in Angstrom), charge = 0, multiplicity = 1:

       Center              X                  Y                   Z               Mass
    ------------   -----------------  -----------------  -----------------  -----------------
         O            1.286654012931     1.576776710952    -0.000003991192    15.994914619570
         N           -1.437936987069     0.964200710952     0.000003008808    14.003074004430
         N            1.789076012931    -0.680469289048     0.000000008808    14.003074004430
         N           -1.003562987069    -1.222560289048     0.000000008808    14.003074004430
         C           -0.475850987069     0.003291710952     0.000005008808    12.000000000000
         C            0.950725012931     0.382162710952     0.000000008808    12.000000000000
         C           -2.654440987069     0.335212710952    -0.000000991192    12.000000000000
         C           -2.359546987069    -1.017123289048    -0.000002991192    12.000000000000
         C            3.229944012931    -0.533835289048     0.000000008808    12.000000000000
         H           -1.229338987069     1.957382710952     0.000009008808     1.007825032230
         H            1.354272012931    -1.597351289048     0.000007008808     1.007825032230
         H           -3.588922987069     0.876973710952    -0.000000991192     1.007825032230
         H           -3.087917787069    -1.883531789048    -0.000007191192     1.007825032230
         H            3.445774012931     0.534500710952    -0.000006991192     1.007825032230
         H            3.669537012931    -0.991011289048    -0.891024991192     1.007825032230
         H            3.669533012931    -0.990998289048     0.891033008808     1.007825032230

  Basis Set: AUG-CC-PVTZ
    Blend: AUG-CC-PVTZ
  Basis Set: (AUG-CC-PVTZ AUX)
    Blend: AUG-CC-PVTZ-JKFIT
	 Reference Energy          =    -431.7943397701814092 [Eh]
	 Singles Energy            =      -0.0000000000000000 [Eh]
	 Same-Spin Energy          =      -0.4558241591479811 [Eh]
	 Opposite-Spin Energy      =      -1.3800110628197770 [Eh]
	 Correlation Energy        =      -1.8358352219677583 [Eh]
	 Total Energy              =    -433.6301749921491933 [Eh]

	 ================> DF-SCS-MP2 Energies <==================
	-----------------------------------------------------------
	 SCS Same-Spin Scale       =       0.3333333333333333 [-]
	 SCS Opposite-Spin Scale   =       1.2000000000000000 [-]
	 SCS Same-Spin Energy      =      -0.1519413863826604 [Eh]
	 SCS Opposite-Spin Energy  =      -1.6560132753837324 [Eh]
	 SCS Correlation Energy    =      -1.8079546617663929 [Eh]
	 SCS Total Energy          =    -433.6022944319478256 [Eh]
	-----------------------------------------------------------

  Dipole Moment: [D]
     X:    -0.9641      Y:    -0.3988      Z:     0.0000     Total:     1.0433

*** Psi4 exiting successfully. Buy a developer a beer!
