                               Psi4 1.4a3.dev225

  ==> Input File <==

--------------------------------------------------------------------------
#psi4
#
memory 32 gb

molecule  {
0 1
  O        1.2542850     1.5918540    -0.0000040
  N       -1.4703060     0.9792780     0.0000030
  N        1.7567070    -0.6653920     0.0000000
  N       -1.0359320    -1.2074830     0.0000000
  C       -0.5082200     0.0183690     0.0000050
  C        0.8990261     0.3921063     0.0000001
  C       -2.6868100     0.3502900    -0.0000010
  C       -2.3919160    -1.0020460    -0.0000030
  C        3.1975750    -0.5187580     0.0000000
  H       -1.2617080     1.9724600     0.0000090
  H        1.3219030    -1.5822740     0.0000070
  H       -3.6212920     0.8920510    -0.0000010
  H       -3.0881120    -1.8301820    -0.0000070
  H        3.4134050     0.5495780    -0.0000070
  H        3.6371680    -0.9759340    -0.8910250
  H        3.6371640    -0.9759210     0.8910330
units angstrom
no_reorient  #important for SAPT in psi4, default
symmetry c1  #important for SAPT in psi4, default
}

set PROPERTIES_ORIGIN ["COM"]
properties('MP2/aug-cc-pvtz', properties = ['dipole'])
--------------------------------------------------------------------------

    Molecular point group: c1
  Charge       = 0
  Multiplicity = 1
  Basis Set: AUG-CC-PVTZ
    Blend: AUG-CC-PVTZ
  Basis Set: (AUG-CC-PVTZ AUX)
    Blend: AUG-CC-PVTZ-JKFIT

    Orbital Energies [Eh]
    ---------------------

    Doubly Occupied:

       1A    -20.526245     2A    -15.637323     3A    -15.591493
       4A    -15.573172     5A    -11.366337     6A    -11.310748
       7A    -11.281780     8A    -11.262285     9A    -11.262190
      10A     -1.382659    11A     -1.347285    12A     -1.235667
      13A     -1.181725    14A     -1.042277    15A     -0.961434
      16A     -0.862710    17A     -0.826813    18A     -0.798556
      19A     -0.769902    20A     -0.669009    21A     -0.649171
      22A     -0.638471    23A     -0.614737    24A     -0.608238
      25A     -0.597864    26A     -0.586205    27A     -0.548447
      28A     -0.533313    29A     -0.465741    30A     -0.442372
      31A     -0.419006    32A     -0.393228    33A     -0.330234

  @DF-RHF Final Energy:  -431.79488565945684

   => Energetics <=

    Nuclear Repulsion Energy =            432.6303807148395322
    One-Electron Energy =               -1445.4172562252440457
    Two-Electron Energy =                 580.9919898509476752
    Total Energy =                       -431.7948856594568952
  Basis Set: (AUG-CC-PVTZ AUX)
    Blend: AUG-CC-PVTZ-RI
    Molecular point group: c1

    Geometry (in Angstrom), charge = 0, multiplicity = 1:

       Center              X                  Y                   Z               Mass
    ------------   -----------------  -----------------  -----------------  -----------------
         O            1.288249518827     1.576960883484    -0.000004002399    15.994914619570
         N           -1.436341481173     0.964384883484     0.000002997601    14.003074004430
         N            1.790671518827    -0.680285116516    -0.000000002399    14.003074004430
         N           -1.001967481173    -1.222376116516    -0.000000002399    14.003074004430
         C           -0.474255481173     0.003475883484     0.000004997601    12.000000000000
         C            0.932990618827     0.377213183484     0.000000097601    12.000000000000
         C           -2.652845481173     0.335396883484    -0.000001002399    12.000000000000
         C           -2.357951481173    -1.016939116516    -0.000003002399    12.000000000000
         C            3.231539518827    -0.533651116516    -0.000000002399    12.000000000000
         H           -1.227743481173     1.957566883484     0.000008997601     1.007825032230
         H            1.355867518827    -1.597167116516     0.000006997601     1.007825032230
         H           -3.587327481173     0.877157883484    -0.000001002399     1.007825032230
         H           -3.054147481173    -1.845075116516    -0.000007002399     1.007825032230
         H            3.447369518827     0.534684883484    -0.000007002399     1.007825032230
         H            3.671132518827    -0.990827116516    -0.891025002399     1.007825032230
         H            3.671128518827    -0.990814116516     0.891032997601     1.007825032230

  Basis Set: AUG-CC-PVTZ
    Blend: AUG-CC-PVTZ
  Basis Set: (AUG-CC-PVTZ AUX)
    Blend: AUG-CC-PVTZ-JKFIT
	 Reference Energy          =    -431.7948856594568383 [Eh]
	 Singles Energy            =      -0.0000000000000000 [Eh]
	 Same-Spin Energy          =      -0.4562131520358438 [Eh]
	 Opposite-Spin Energy      =      -1.3805232818600146 [Eh]
	 Correlation Energy        =      -1.8367364338958585 [Eh]
	 Total Energy              =    -433.6316220933526893 [Eh]

	 ================> DF-SCS-MP2 Energies <==================
	-----------------------------------------------------------
	 SCS Same-Spin Scale       =       0.3333333333333333 [-]
	 SCS Opposite-Spin Scale   =       1.2000000000000000 [-]
	 SCS Same-Spin Energy      =      -0.1520710506786146 [Eh]
	 SCS Opposite-Spin Energy  =      -1.6566279382320175 [Eh]
	 SCS Correlation Energy    =      -1.8086989889106320 [Eh]
	 SCS Total Energy          =    -433.6035846483674732 [Eh]
	-----------------------------------------------------------

  Dipole Moment: [D]
     X:    -1.1295      Y:    -0.4279      Z:     0.0000     Total:     1.2078

*** Psi4 exiting successfully. Buy a developer a beer!
