                               Psi4 1.3.2 release

  ==> Input File <==

--------------------------------------------------------------------------
#psi4
#
memory 32 gb

molecule  {
0 1
  O        1.2542850     1.5918540    -0.0000040
  N       -1.4703060     0.9792780     0.0000030
  N        1.7567070    -0.6653920     0.0000000
  N       -1.0359320    -1.2074830     0.0000000
  C       -0.4130481     0.1241983     0.0000061
  C        0.9183560     0.3972400     0.0000000
  C       -2.6868100     0.3502900    -0.0000010
  C       -2.3919160    -1.0020460    -0.0000030
  C        3.1975750    -0.5187580     0.0000000
  H       -1.2617080     1.9724600     0.0000090
  H        1.3219030    -1.5822740     0.0000070
  H       -3.6212920     0.8920510    -0.0000010
  H       -3.0881120    -1.8301820    -0.0000070
  H        3.4134050     0.5495780    -0.0000070
  H        3.6371680    -0.9759340    -0.8910250
  H        3.6371640    -0.9759210     0.8910330
units angstrom
no_reorient  #important for SAPT in psi4, default
symmetry c1  #important for SAPT in psi4, default
}

set PROPERTIES_ORIGIN ["COM"]
properties('MP2/aug-cc-pvtz', properties = ['dipole'])
--------------------------------------------------------------------------

    Molecular point group: c1
  Charge       = 0
  Multiplicity = 1
  Basis Set: AUG-CC-PVTZ
    Blend: AUG-CC-PVTZ
  Basis Set: (AUG-CC-PVTZ AUX)
    Blend: AUG-CC-PVTZ-JKFIT

    Orbital Energies [Eh]
    ---------------------

    Doubly Occupied:

       1A    -20.520974     2A    -15.651155     3A    -15.589258
       4A    -15.580352     5A    -11.355690     6A    -11.310407
       7A    -11.286759     8A    -11.267926     9A    -11.261277
      10A     -1.388582    11A     -1.336147    12A     -1.237648
      13A     -1.158429    14A     -1.053565    15A     -0.964046
      16A     -0.879870    17A     -0.820226    18A     -0.796246
      19A     -0.771779    20A     -0.677155    21A     -0.651948
      22A     -0.640003    23A     -0.612523    24A     -0.603424
      25A     -0.601279    26A     -0.580528    27A     -0.548496
      28A     -0.536237    29A     -0.450579    30A     -0.441037
      31A     -0.409528    32A     -0.393048    33A     -0.323294

  @DF-RHF Final Energy:  -431.75822403941135

   => Energetics <=

    Nuclear Repulsion Energy =            432.3809388726000407
    One-Electron Energy =               -1444.8795024656176338
    Two-Electron Energy =                 580.7403395536061907
    Total Energy =                       -431.7582240394114024
  Basis Set: (AUG-CC-PVTZ AUX)
    Blend: AUG-CC-PVTZ-RI
    Molecular point group: c1

    Geometry (in Angstrom), charge = 0, multiplicity = 1:

       Center              X                  Y                   Z               Mass
    ------------   -----------------  -----------------  -----------------  -----------------
         O            1.277262524141     1.566313453563    -0.000004098354    15.994914619570
         N           -1.447328475859     0.953737453563     0.000002901646    14.003074004430
         N            1.779684524141    -0.690932546437    -0.000000098354    14.003074004430
         N           -1.012954475859    -1.233023546437    -0.000000098354    14.003074004430
         C           -0.390070575859     0.098657753563     0.000006001646    12.000000000000
         C            0.941333524141     0.371699453563    -0.000000098354    12.000000000000
         C           -2.663832475859     0.324749453563    -0.000001098354    12.000000000000
         C           -2.368938475859    -1.027586546437    -0.000003098354    12.000000000000
         C            3.220552524141    -0.544298546437    -0.000000098354    12.000000000000
         H           -1.238730475859     1.946919453563     0.000008901646     1.007825032230
         H            1.344880524141    -1.607814546437     0.000006901646     1.007825032230
         H           -3.598314475859     0.866510453563    -0.000001098354     1.007825032230
         H           -3.065134475859    -1.855722546437    -0.000007098354     1.007825032230
         H            3.436382524141     0.524037453563    -0.000007098354     1.007825032230
         H            3.660145524141    -1.001474546437    -0.891025098354     1.007825032230
         H            3.660141524141    -1.001461546437     0.891032901646     1.007825032230

  Basis Set: AUG-CC-PVTZ
    Blend: AUG-CC-PVTZ
  Basis Set: (AUG-CC-PVTZ AUX)
    Blend: AUG-CC-PVTZ-JKFIT
	 Reference Energy          =    -431.7582240394113455 [Eh]
	 Singles Energy            =      -0.0000000000000000 [Eh]
	 Same-Spin Energy          =      -0.4606323536788280 [Eh]
	 Opposite-Spin Energy      =      -1.3882113980737723 [Eh]
	 Correlation Energy        =      -1.8488437517526002 [Eh]
	 Total Energy              =    -433.6070677911639564 [Eh]

	 ================> DF-SCS-MP2 Energies <==================
	-----------------------------------------------------------
	 SCS Same-Spin Scale       =       0.3333333333333333 [-]
	 SCS Opposite-Spin Scale   =       1.2000000000000000 [-]
	 SCS Same-Spin Energy      =      -0.1535441178929427 [Eh]
	 SCS Opposite-Spin Energy  =      -1.6658536776885267 [Eh]
	 SCS Correlation Energy    =      -1.8193977955814693 [Eh]
	 SCS Total Energy          =    -433.5776218349928399 [Eh]
	-----------------------------------------------------------

  Dipole Moment: [D]
     X:    -1.4048      Y:    -0.3635      Z:     0.0000     Total:     1.4511

*** Psi4 exiting successfully. Buy a developer a beer!
