                               Psi4 1.3.2 release

  ==> Input File <==

--------------------------------------------------------------------------
#psi4
#
memory 32 gb

molecule  {
0 1
  O        1.2542850     1.5918540    -0.0000040
  N       -1.4703060     0.9792780     0.0000030
  N        1.7567070    -0.6653920     0.0000000
  N       -0.9928289    -1.2251531    -0.0000003
  C       -0.5082200     0.0183690     0.0000050
  C        0.9183560     0.3972400     0.0000000
  C       -2.6868100     0.3502900    -0.0000010
  C       -2.3919160    -1.0020460    -0.0000030
  C        3.1975750    -0.5187580     0.0000000
  H       -1.2617080     1.9724600     0.0000090
  H        1.3219030    -1.5822740     0.0000070
  H       -3.6212920     0.8920510    -0.0000010
  H       -3.0881120    -1.8301820    -0.0000070
  H        3.4134050     0.5495780    -0.0000070
  H        3.6371680    -0.9759340    -0.8910250
  H        3.6371640    -0.9759210     0.8910330
units angstrom
no_reorient  #important for SAPT in psi4, default
symmetry c1  #important for SAPT in psi4, default
}

set PROPERTIES_ORIGIN ["COM"]
properties('MP2/aug-cc-pvtz', properties = ['dipole'])
--------------------------------------------------------------------------

    Molecular point group: c1
  Charge       = 0
  Multiplicity = 1
  Basis Set: AUG-CC-PVTZ
    Blend: AUG-CC-PVTZ
  Basis Set: (AUG-CC-PVTZ AUX)
    Blend: AUG-CC-PVTZ-JKFIT

    Orbital Energies [Eh]
    ---------------------

    Doubly Occupied:

       1A    -20.527785     2A    -15.634725     3A    -15.591982
       4A    -15.576281     5A    -11.365602     6A    -11.313196
       7A    -11.282047     8A    -11.264815     9A    -11.262688
      10A     -1.386390    11A     -1.343969    12A     -1.239803
      13A     -1.175231    14A     -1.037930    15A     -0.962025
      16A     -0.858094    17A     -0.821057    18A     -0.798948
      19A     -0.772745    20A     -0.666106    21A     -0.650606
      22A     -0.638222    23A     -0.612735    24A     -0.606907
      25A     -0.594308    26A     -0.581597    27A     -0.550456
      28A     -0.536181    29A     -0.470972    30A     -0.441737
      31A     -0.415293    32A     -0.393807    33A     -0.331870

  @DF-RHF Final Energy:  -431.79366941503122

   => Energetics <=

    Nuclear Repulsion Energy =            432.0314864415639704
    One-Electron Energy =               -1444.2380872294600067
    Two-Electron Energy =                 580.4129313728648185
    Total Energy =                       -431.7936694150312178
  Basis Set: (AUG-CC-PVTZ AUX)
    Blend: AUG-CC-PVTZ-RI
    Molecular point group: c1

    Geometry (in Angstrom), charge = 0, multiplicity = 1:

       Center              X                  Y                   Z               Mass
    ------------   -----------------  -----------------  -----------------  -----------------
         O            1.281568390015     1.578446833707    -0.000003959212    15.994914619570
         N           -1.443022609985     0.965870833707     0.000003040788    14.003074004430
         N            1.783990390015    -0.678799166293     0.000000040788    14.003074004430
         N           -0.965545509985    -1.238560266293    -0.000000259212    14.003074004430
         C           -0.480936609985     0.004961833707     0.000005040788    12.000000000000
         C            0.945639390015     0.383832833707     0.000000040788    12.000000000000
         C           -2.659526609985     0.336882833707    -0.000000959212    12.000000000000
         C           -2.364632609985    -1.015453166293    -0.000002959212    12.000000000000
         C            3.224858390015    -0.532165166293     0.000000040788    12.000000000000
         H           -1.234424609985     1.959052833707     0.000009040788     1.007825032230
         H            1.349186390015    -1.595681166293     0.000007040788     1.007825032230
         H           -3.594008609985     0.878643833707    -0.000000959212     1.007825032230
         H           -3.060828609985    -1.843589166293    -0.000006959212     1.007825032230
         H            3.440688390015     0.536170833707    -0.000006959212     1.007825032230
         H            3.664451390015    -0.989341166293    -0.891024959212     1.007825032230
         H            3.664447390015    -0.989328166293     0.891033040788     1.007825032230

  Basis Set: AUG-CC-PVTZ
    Blend: AUG-CC-PVTZ
  Basis Set: (AUG-CC-PVTZ AUX)
    Blend: AUG-CC-PVTZ-JKFIT
	 Reference Energy          =    -431.7936694150312178 [Eh]
	 Singles Energy            =      -0.0000000000000000 [Eh]
	 Same-Spin Energy          =      -0.4555214465159723 [Eh]
	 Opposite-Spin Energy      =      -1.3805802941184586 [Eh]
	 Correlation Energy        =      -1.8361017406344309 [Eh]
	 Total Energy              =    -433.6297711556656509 [Eh]

	 ================> DF-SCS-MP2 Energies <==================
	-----------------------------------------------------------
	 SCS Same-Spin Scale       =       0.3333333333333333 [-]
	 SCS Opposite-Spin Scale   =       1.2000000000000000 [-]
	 SCS Same-Spin Energy      =      -0.1518404821719908 [Eh]
	 SCS Opposite-Spin Energy  =      -1.6566963529421503 [Eh]
	 SCS Correlation Energy    =      -1.8085368351141411 [Eh]
	 SCS Total Energy          =    -433.6022062501453433 [Eh]
	-----------------------------------------------------------

  Dipole Moment: [D]
     X:    -1.0364      Y:    -0.3480      Z:     0.0000     Total:     1.0933

*** Psi4 exiting successfully. Buy a developer a beer!
