                               Psi4 1.3.2 release

  ==> Input File <==

--------------------------------------------------------------------------
#psi4
#
memory 32 gb

molecule  {
0 1
  O        1.2542850     1.5918540    -0.0000040
  N       -1.4703060     0.9792780     0.0000030
  N        1.7567070    -0.6653920     0.0000000
  N       -1.0359320    -1.2074830     0.0000000
  C       -0.5082200     0.0183690     0.0000050
  C        0.9183560     0.3972400     0.0000000
  C       -2.6868100     0.3502900    -0.0000010
  C       -2.3919160    -1.0020460    -0.0000030
  C        3.1975750    -0.5187580     0.0000000
  H       -1.2617080     1.9724600     0.0000090
  H        1.3219030    -1.5822740     0.0000070
  H       -3.6212920     0.8920510    -0.0000010
  H       -3.2168113    -1.9832718    -0.0000077
  H        3.4134050     0.5495780    -0.0000070
  H        3.6371680    -0.9759340    -0.8910250
  H        3.6371640    -0.9759210     0.8910330
units angstrom
no_reorient  #important for SAPT in psi4, default
symmetry c1  #important for SAPT in psi4, default
}

set PROPERTIES_ORIGIN ["COM"]
properties('MP2/aug-cc-pvtz', properties = ['dipole'])
--------------------------------------------------------------------------

    Molecular point group: c1
  Charge       = 0
  Multiplicity = 1
  Basis Set: AUG-CC-PVTZ
    Blend: AUG-CC-PVTZ
  Basis Set: (AUG-CC-PVTZ AUX)
    Blend: AUG-CC-PVTZ-JKFIT

    Orbital Energies [Eh]
    ---------------------

    Doubly Occupied:

       1A    -20.528484     2A    -15.636970     3A    -15.593217
       4A    -15.573215     5A    -11.367429     6A    -11.312104
       7A    -11.282149     8A    -11.280841     9A    -11.263414
      10A     -1.387802    11A     -1.349404    12A     -1.240604
      13A     -1.181333    14A     -1.037199    15A     -0.961986
      16A     -0.859617    17A     -0.807568    18A     -0.798447
      19A     -0.772497    20A     -0.669132    21A     -0.650915
      22A     -0.639818    23A     -0.611948    24A     -0.609179
      25A     -0.590584    26A     -0.556731    27A     -0.550143
      28A     -0.537434    29A     -0.462403    30A     -0.443249
      31A     -0.419459    32A     -0.396058    33A     -0.329878

  @DF-RHF Final Energy:  -431.77385013417069

   => Energetics <=

    Nuclear Repulsion Energy =            431.6643579578968115
    One-Electron Energy =               -1443.4739940915221723
    Two-Electron Energy =                 580.0357859994547880
    Total Energy =                       -431.7738501341706296
  Basis Set: (AUG-CC-PVTZ AUX)
    Blend: AUG-CC-PVTZ-RI
    Molecular point group: c1

    Geometry (in Angstrom), charge = 0, multiplicity = 1:

       Center              X                  Y                   Z               Mass
    ------------   -----------------  -----------------  -----------------  -----------------
         O            1.287431884783     1.577702000860    -0.000003987162    15.994914619570
         N           -1.437159115217     0.965126000860     0.000003012838    14.003074004430
         N            1.789853884783    -0.679543999140     0.000000012838    14.003074004430
         N           -1.002785115217    -1.221634999140     0.000000012838    14.003074004430
         C           -0.475073115217     0.004217000860     0.000005012838    12.000000000000
         C            0.951502884783     0.383088000860     0.000000012838    12.000000000000
         C           -2.653663115217     0.336138000860    -0.000000987162    12.000000000000
         C           -2.358769115217    -1.016197999140    -0.000002987162    12.000000000000
         C            3.230721884783    -0.532909999140     0.000000012838    12.000000000000
         H           -1.228561115217     1.958308000860     0.000009012838     1.007825032230
         H            1.355049884783    -1.596425999140     0.000007012838     1.007825032230
         H           -3.588145115217     0.877899000860    -0.000000987162     1.007825032230
         H           -3.183664415217    -1.997423799140    -0.000007687162     1.007825032230
         H            3.446551884783     0.535426000860    -0.000006987162     1.007825032230
         H            3.670314884783    -0.990085999140    -0.891024987162     1.007825032230
         H            3.670310884783    -0.990072999140     0.891033012838     1.007825032230

  Basis Set: AUG-CC-PVTZ
    Blend: AUG-CC-PVTZ
  Basis Set: (AUG-CC-PVTZ AUX)
    Blend: AUG-CC-PVTZ-JKFIT
	 Reference Energy          =    -431.7738501341706865 [Eh]
	 Singles Energy            =      -0.0000000000000000 [Eh]
	 Same-Spin Energy          =      -0.4562280827240321 [Eh]
	 Opposite-Spin Energy      =      -1.3817202946609926 [Eh]
	 Correlation Energy        =      -1.8379483773850247 [Eh]
	 Total Energy              =    -433.6117985115557190 [Eh]

	 ================> DF-SCS-MP2 Energies <==================
	-----------------------------------------------------------
	 SCS Same-Spin Scale       =       0.3333333333333333 [-]
	 SCS Opposite-Spin Scale   =       1.2000000000000000 [-]
	 SCS Same-Spin Energy      =      -0.1520760275746774 [Eh]
	 SCS Opposite-Spin Energy  =      -1.6580643535931909 [Eh]
	 SCS Correlation Energy    =      -1.8101403811678682 [Eh]
	 SCS Total Energy          =    -433.5839905153385416 [Eh]
	-----------------------------------------------------------

  Dipole Moment: [D]
     X:    -0.9093      Y:    -0.3831      Z:     0.0000     Total:     0.9867

*** Psi4 exiting successfully. Buy a developer a beer!
