                               Psi4 1.3.2 release

  ==> Input File <==

--------------------------------------------------------------------------
#psi4
#
memory 32 gb

molecule  {
0 1
  O        1.2542850     1.5918540    -0.0000040
  N       -1.4703060     0.9792780     0.0000030
  N        1.7567070    -0.6653920     0.0000000
  N       -1.0359320    -1.2074830     0.0000000
  C       -0.5423413    -0.0146220     0.0000049
  C        0.9183560     0.3972400     0.0000000
  C       -2.6868100     0.3502900    -0.0000010
  C       -2.3919160    -1.0020460    -0.0000030
  C        3.1975750    -0.5187580     0.0000000
  H       -1.2617080     1.9724600     0.0000090
  H        1.3219030    -1.5822740     0.0000070
  H       -3.6212920     0.8920510    -0.0000010
  H       -3.0881120    -1.8301820    -0.0000070
  H        3.4134050     0.5495780    -0.0000070
  H        3.6371680    -0.9759340    -0.8910250
  H        3.6371640    -0.9759210     0.8910330
units angstrom
no_reorient  #important for SAPT in psi4, default
symmetry c1  #important for SAPT in psi4, default
}

set PROPERTIES_ORIGIN ["COM"]
properties('MP2/aug-cc-pvtz', properties = ['dipole'])
--------------------------------------------------------------------------

    Molecular point group: c1
  Charge       = 0
  Multiplicity = 1
  Basis Set: AUG-CC-PVTZ
    Blend: AUG-CC-PVTZ
  Basis Set: (AUG-CC-PVTZ AUX)
    Blend: AUG-CC-PVTZ-JKFIT

    Orbital Energies [Eh]
    ---------------------

    Doubly Occupied:

       1A    -20.529004     2A    -15.630884     3A    -15.592903
       4A    -15.567569     5A    -11.368262     6A    -11.309794
       7A    -11.278367     8A    -11.263067     9A    -11.259016
      10A     -1.386756    11A     -1.353729    12A     -1.239917
      13A     -1.189794    14A     -1.033831    15A     -0.961345
      16A     -0.852314    17A     -0.826632    18A     -0.798144
      19A     -0.772163    20A     -0.666994    21A     -0.650240
      22A     -0.639024    23A     -0.616427    24A     -0.610449
      25A     -0.596483    26A     -0.581075    27A     -0.550735
      28A     -0.536547    29A     -0.471111    30A     -0.438620
      31A     -0.422767    32A     -0.395834    33A     -0.329912

  @DF-RHF Final Energy:  -431.79712146084785

   => Energetics <=

    Nuclear Repulsion Energy =            432.7521894126394386
    One-Electron Energy =               -1445.6592065561792424
    Two-Electron Energy =                 581.1098956826920130
    Total Energy =                       -431.7971214608478476
  Basis Set: (AUG-CC-PVTZ AUX)
    Blend: AUG-CC-PVTZ-RI
    Molecular point group: c1

    Geometry (in Angstrom), charge = 0, multiplicity = 1:

       Center              X                  Y                   Z               Mass
    ------------   -----------------  -----------------  -----------------  -----------------
         O            1.289668824315     1.579633924493    -0.000003983208    15.994914619570
         N           -1.434922175685     0.967057924493     0.000003016792    14.003074004430
         N            1.792090824315    -0.677612075507     0.000000016792    14.003074004430
         N           -1.000548175685    -1.219703075507     0.000000016792    14.003074004430
         C           -0.506957475685    -0.026842075507     0.000004916792    12.000000000000
         C            0.953739824315     0.385019924493     0.000000016792    12.000000000000
         C           -2.651426175685     0.338069924493    -0.000000983208    12.000000000000
         C           -2.356532175685    -1.014266075507    -0.000002983208    12.000000000000
         C            3.232958824315    -0.530978075507     0.000000016792    12.000000000000
         H           -1.226324175685     1.960239924493     0.000009016792     1.007825032230
         H            1.357286824315    -1.594494075507     0.000007016792     1.007825032230
         H           -3.585908175685     0.879830924493    -0.000000983208     1.007825032230
         H           -3.052728175685    -1.842402075507    -0.000006983208     1.007825032230
         H            3.448788824315     0.537357924493    -0.000006983208     1.007825032230
         H            3.672551824315    -0.988154075507    -0.891024983208     1.007825032230
         H            3.672547824315    -0.988141075507     0.891033016792     1.007825032230

  Basis Set: AUG-CC-PVTZ
    Blend: AUG-CC-PVTZ
  Basis Set: (AUG-CC-PVTZ AUX)
    Blend: AUG-CC-PVTZ-JKFIT
	 Reference Energy          =    -431.7971214608478476 [Eh]
	 Singles Energy            =      -0.0000000000000000 [Eh]
	 Same-Spin Energy          =      -0.4544638097511504 [Eh]
	 Opposite-Spin Energy      =      -1.3776579241950120 [Eh]
	 Correlation Energy        =      -1.8321217339461624 [Eh]
	 Total Energy              =    -433.6292431947940145 [Eh]

	 ================> DF-SCS-MP2 Energies <==================
	-----------------------------------------------------------
	 SCS Same-Spin Scale       =       0.3333333333333333 [-]
	 SCS Opposite-Spin Scale   =       1.2000000000000000 [-]
	 SCS Same-Spin Energy      =      -0.1514879365837168 [Eh]
	 SCS Opposite-Spin Energy  =      -1.6531895090340143 [Eh]
	 SCS Correlation Energy    =      -1.8046774456177310 [Eh]
	 SCS Total Energy          =    -433.6017989064656035 [Eh]
	-----------------------------------------------------------

  Dipole Moment: [D]
     X:    -0.8523      Y:    -0.4265      Z:     0.0000     Total:     0.9530

*** Psi4 exiting successfully. Buy a developer a beer!
