                               Psi4 1.3.2 release

  ==> Input File <==

--------------------------------------------------------------------------
#psi4
#
memory 32 gb

molecule  {
0 1
  O        1.2542850     1.5918540    -0.0000040
  N       -1.4703060     0.9792780     0.0000030
  N        1.7567070    -0.6653920     0.0000000
  N       -1.0359320    -1.2074830     0.0000000
  C       -0.5950166     0.0521942     0.0000049
  C        0.9183560     0.3972400     0.0000000
  C       -2.6868100     0.3502900    -0.0000010
  C       -2.3919160    -1.0020460    -0.0000030
  C        3.1975750    -0.5187580     0.0000000
  H       -1.2617080     1.9724600     0.0000090
  H        1.3219030    -1.5822740     0.0000070
  H       -3.6212920     0.8920510    -0.0000010
  H       -3.0881120    -1.8301820    -0.0000070
  H        3.4134050     0.5495780    -0.0000070
  H        3.6371680    -0.9759340    -0.8910250
  H        3.6371640    -0.9759210     0.8910330
units angstrom
no_reorient  #important for SAPT in psi4, default
symmetry c1  #important for SAPT in psi4, default
}

set PROPERTIES_ORIGIN ["COM"]
properties('MP2/aug-cc-pvtz', properties = ['dipole'])
--------------------------------------------------------------------------

    Molecular point group: c1
  Charge       = 0
  Multiplicity = 1
  Basis Set: AUG-CC-PVTZ
    Blend: AUG-CC-PVTZ
  Basis Set: (AUG-CC-PVTZ AUX)
    Blend: AUG-CC-PVTZ-JKFIT

    Orbital Energies [Eh]
    ---------------------

    Doubly Occupied:

       1A    -20.527920     2A    -15.638075     3A    -15.593536
       4A    -15.562966     5A    -11.369028     6A    -11.309295
       7A    -11.271601     8A    -11.263613     9A    -11.261076
      10A     -1.393417    11A     -1.364764    12A     -1.238671
      13A     -1.189973    14A     -1.032279    15A     -0.960382
      16A     -0.852049    17A     -0.826639    18A     -0.811188
      19A     -0.772217    20A     -0.662746    21A     -0.648910
      22A     -0.644100    23A     -0.622068    24A     -0.616699
      25A     -0.596085    26A     -0.573949    27A     -0.550731
      28A     -0.536655    29A     -0.468508    30A     -0.436157
      31A     -0.419882    32A     -0.395650    33A     -0.329424

  @DF-RHF Final Energy:  -431.78912344896213

   => Energetics <=

    Nuclear Repulsion Energy =            432.9949606654864738
    One-Electron Energy =               -1446.0876620164492579
    Two-Electron Energy =                 581.3035779020007112
    Total Energy =                       -431.7891234489620729
  Basis Set: (AUG-CC-PVTZ AUX)
    Blend: AUG-CC-PVTZ-RI
    Molecular point group: c1

    Geometry (in Angstrom), charge = 0, multiplicity = 1:

       Center              X                  Y                   Z               Mass
    ------------   -----------------  -----------------  -----------------  -----------------
         O            1.294723270980     1.573222590922    -0.000003983208    15.994914619570
         N           -1.429867729020     0.960646590922     0.000003016792    14.003074004430
         N            1.797145270980    -0.684023409078     0.000000016792    14.003074004430
         N           -0.995493729020    -1.226114409078     0.000000016792    14.003074004430
         C           -0.554578329020     0.033562790922     0.000004916792    12.000000000000
         C            0.958794270980     0.378608590922     0.000000016792    12.000000000000
         C           -2.646371729020     0.331658590922    -0.000000983208    12.000000000000
         C           -2.351477729020    -1.020677409078    -0.000002983208    12.000000000000
         C            3.238013270980    -0.537389409078     0.000000016792    12.000000000000
         H           -1.221269729020     1.953828590922     0.000009016792     1.007825032230
         H            1.362341270980    -1.600905409078     0.000007016792     1.007825032230
         H           -3.580853729020     0.873419590922    -0.000000983208     1.007825032230
         H           -3.047673729020    -1.848813409078    -0.000006983208     1.007825032230
         H            3.453843270980     0.530946590922    -0.000006983208     1.007825032230
         H            3.677606270980    -0.994565409078    -0.891024983208     1.007825032230
         H            3.677602270980    -0.994552409078     0.891033016792     1.007825032230

  Basis Set: AUG-CC-PVTZ
    Blend: AUG-CC-PVTZ
  Basis Set: (AUG-CC-PVTZ AUX)
    Blend: AUG-CC-PVTZ-JKFIT
	 Reference Energy          =    -431.7891234489621297 [Eh]
	 Singles Energy            =      -0.0000000000000000 [Eh]
	 Same-Spin Energy          =      -0.4543177184694287 [Eh]
	 Opposite-Spin Energy      =      -1.3771629448792326 [Eh]
	 Correlation Energy        =      -1.8314806633486613 [Eh]
	 Total Energy              =    -433.6206041123107866 [Eh]

	 ================> DF-SCS-MP2 Energies <==================
	-----------------------------------------------------------
	 SCS Same-Spin Scale       =       0.3333333333333333 [-]
	 SCS Opposite-Spin Scale   =       1.2000000000000000 [-]
	 SCS Same-Spin Energy      =      -0.1514392394898096 [Eh]
	 SCS Opposite-Spin Energy  =      -1.6525955338550791 [Eh]
	 SCS Correlation Energy    =      -1.8040347733448887 [Eh]
	 SCS Total Energy          =    -433.5931582223070109 [Eh]
	-----------------------------------------------------------

  Dipole Moment: [D]
     X:    -0.8456      Y:    -0.2669      Z:     0.0000     Total:     0.8867

*** Psi4 exiting successfully. Buy a developer a beer!
