                               Psi4 1.4a3.dev225

  ==> Input File <==

--------------------------------------------------------------------------
#psi4
#
memory 32 gb

molecule  {
0 1
  O        1.2542850     1.5918540    -0.0000040
  N       -1.4703060     0.9792780     0.0000030
  N        1.7567070    -0.6653920     0.0000000
  N       -1.0359320    -1.2074830     0.0000000
  C       -0.5279902    -0.0275564     0.0000048
  C        0.9183560     0.3972400     0.0000000
  C       -2.6868100     0.3502900    -0.0000010
  C       -2.3919160    -1.0020460    -0.0000030
  C        3.1975750    -0.5187580     0.0000000
  H       -1.2617080     1.9724600     0.0000090
  H        1.3219030    -1.5822740     0.0000070
  H       -3.6212920     0.8920510    -0.0000010
  H       -3.0881120    -1.8301820    -0.0000070
  H        3.4134050     0.5495780    -0.0000070
  H        3.6371680    -0.9759340    -0.8910250
  H        3.6371640    -0.9759210     0.8910330
units angstrom
no_reorient  #important for SAPT in psi4, default
symmetry c1  #important for SAPT in psi4, default
}

set PROPERTIES_ORIGIN ["COM"]
properties('MP2/aug-cc-pvtz', properties = ['dipole'])
--------------------------------------------------------------------------

    Molecular point group: c1
  Charge       = 0
  Multiplicity = 1
  Basis Set: AUG-CC-PVTZ
    Blend: AUG-CC-PVTZ
  Basis Set: (AUG-CC-PVTZ AUX)
    Blend: AUG-CC-PVTZ-JKFIT

    Orbital Energies [Eh]
    ---------------------

    Doubly Occupied:

       1A    -20.529274     2A    -15.629345     3A    -15.592841
       4A    -15.568754     5A    -11.368155     6A    -11.310030
       7A    -11.279820     8A    -11.262994     9A    -11.258654
      10A     -1.386236    11A     -1.351045    12A     -1.240302
      13A     -1.188878    14A     -1.034535    15A     -0.961756
      16A     -0.853416    17A     -0.826754    18A     -0.794828
      19A     -0.772042    20A     -0.668150    21A     -0.650652
      22A     -0.638514    23A     -0.615061    24A     -0.608876
      25A     -0.596704    26A     -0.582052    27A     -0.550784
      28A     -0.536574    29A     -0.470937    30A     -0.439242
      31A     -0.423412    32A     -0.395946    33A     -0.329568

  @DF-RHF Final Energy:  -431.79632005411850

   => Energetics <=

    Nuclear Repulsion Energy =            432.6976574996951399
    One-Electron Energy =               -1445.5556868633179874
    Two-Electron Energy =                 581.0617093095042947
    Total Energy =                       -431.7963200541184960
  Basis Set: (AUG-CC-PVTZ AUX)
    Blend: AUG-CC-PVTZ-RI
    Molecular point group: c1

    Geometry (in Angstrom), charge = 0, multiplicity = 1:

       Center              X                  Y                   Z               Mass
    ------------   -----------------  -----------------  -----------------  -----------------
         O            1.288291767715     1.580875041961    -0.000003973612    15.994914619570
         N           -1.436299232285     0.968299041961     0.000003026388    14.003074004430
         N            1.790713767715    -0.676370958039     0.000000026388    14.003074004430
         N           -1.001925232285    -1.218461958039     0.000000026388    14.003074004430
         C           -0.493983432285    -0.038535358039     0.000004826388    12.000000000000
         C            0.952362767715     0.386261041961     0.000000026388    12.000000000000
         C           -2.652803232285     0.339311041961    -0.000000973612    12.000000000000
         C           -2.357909232285    -1.013024958039    -0.000002973612    12.000000000000
         C            3.231581767715    -0.529736958039     0.000000026388    12.000000000000
         H           -1.227701232285     1.961481041961     0.000009026388     1.007825032230
         H            1.355909767715    -1.593252958039     0.000007026388     1.007825032230
         H           -3.587285232285     0.881072041961    -0.000000973612     1.007825032230
         H           -3.054105232285    -1.841160958039    -0.000006973612     1.007825032230
         H            3.447411767715     0.538599041961    -0.000006973612     1.007825032230
         H            3.671174767715    -0.986912958039    -0.891024973612     1.007825032230
         H            3.671170767715    -0.986899958039     0.891033026388     1.007825032230

  Basis Set: AUG-CC-PVTZ
    Blend: AUG-CC-PVTZ
  Basis Set: (AUG-CC-PVTZ AUX)
    Blend: AUG-CC-PVTZ-JKFIT
	 Reference Energy          =    -431.7963200541184960 [Eh]
	 Singles Energy            =      -0.0000000000000000 [Eh]
	 Same-Spin Energy          =      -0.4546101900931993 [Eh]
	 Opposite-Spin Energy      =      -1.3779690731018133 [Eh]
	 Correlation Energy        =      -1.8325792631950124 [Eh]
	 Total Energy              =    -433.6288993173134827 [Eh]

	 ================> DF-SCS-MP2 Energies <==================
	-----------------------------------------------------------
	 SCS Same-Spin Scale       =       0.3333333333333333 [-]
	 SCS Opposite-Spin Scale   =       1.2000000000000000 [-]
	 SCS Same-Spin Energy      =      -0.1515367300310664 [Eh]
	 SCS Opposite-Spin Energy  =      -1.6535628877221760 [Eh]
	 SCS Correlation Energy    =      -1.8050996177532423 [Eh]
	 SCS Total Energy          =    -433.6014196718717244 [Eh]
	-----------------------------------------------------------

  Dipole Moment: [D]
     X:    -0.8519      Y:    -0.4619      Z:     0.0000     Total:     0.9691

*** Psi4 exiting successfully. Buy a developer a beer!
