                               Psi4 1.3.2 release

  ==> Input File <==

--------------------------------------------------------------------------
#psi4
#
memory 32 gb

molecule  {
0 1
  O        1.2542850     1.5918540    -0.0000040
  N       -1.4703060     0.9792780     0.0000030
  N        1.7567070    -0.6653920     0.0000000
  N       -1.0359320    -1.2074830     0.0000000
  C       -0.5082200     0.0183690     0.0000050
  C        0.9183560     0.3972400     0.0000000
  C       -2.6641176     0.3082178    -0.0000012
  C       -2.3919160    -1.0020460    -0.0000030
  C        3.1975750    -0.5187580     0.0000000
  H       -1.2617080     1.9724600     0.0000090
  H        1.3219030    -1.5822740     0.0000070
  H       -3.6212920     0.8920510    -0.0000010
  H       -3.0881120    -1.8301820    -0.0000070
  H        3.4134050     0.5495780    -0.0000070
  H        3.6371680    -0.9759340    -0.8910250
  H        3.6371640    -0.9759210     0.8910330
units angstrom
no_reorient  #important for SAPT in psi4, default
symmetry c1  #important for SAPT in psi4, default
}

set PROPERTIES_ORIGIN ["COM"]
properties('MP2/aug-cc-pvtz', properties = ['dipole'])
--------------------------------------------------------------------------

    Molecular point group: c1
  Charge       = 0
  Multiplicity = 1
  Basis Set: AUG-CC-PVTZ
    Blend: AUG-CC-PVTZ
  Basis Set: (AUG-CC-PVTZ AUX)
    Blend: AUG-CC-PVTZ-JKFIT

    Orbital Energies [Eh]
    ---------------------

    Doubly Occupied:

       1A    -20.528332     2A    -15.632472     3A    -15.592676
       4A    -15.568966     5A    -11.366595     6A    -11.310866
       7A    -11.276978     8A    -11.263050     9A    -11.254154
      10A     -1.387608    11A     -1.350316    12A     -1.239992
      13A     -1.179082    14A     -1.042882    15A     -0.963242
      16A     -0.860696    17A     -0.824823    18A     -0.794400
      19A     -0.770888    20A     -0.667238    21A     -0.649208
      22A     -0.639529    23A     -0.621041    24A     -0.609430
      25A     -0.587546    26A     -0.585472    27A     -0.550610
      28A     -0.537434    29A     -0.463685    30A     -0.442589
      31A     -0.417048    32A     -0.395425    33A     -0.335522

  @DF-RHF Final Energy:  -431.79510840800572

   => Energetics <=

    Nuclear Repulsion Energy =            433.3859630116172070
    One-Electron Energy =               -1446.9425559678641093
    Two-Electron Energy =                 581.7614845482412420
    Total Energy =                       -431.7951084080057171
  Basis Set: (AUG-CC-PVTZ AUX)
    Blend: AUG-CC-PVTZ-RI
    Molecular point group: c1

    Geometry (in Angstrom), charge = 0, multiplicity = 1:

       Center              X                  Y                   Z               Mass
    ------------   -----------------  -----------------  -----------------  -----------------
         O            1.284217278401     1.580505309014    -0.000003973612    15.994914619570
         N           -1.440373721599     0.967929309014     0.000003026388    14.003074004430
         N            1.786639278401    -0.676740690986     0.000000026388    14.003074004430
         N           -1.005999721599    -1.218831690986     0.000000026388    14.003074004430
         C           -0.478287721599     0.007020309014     0.000005026388    12.000000000000
         C            0.948288278401     0.385891309014     0.000000026388    12.000000000000
         C           -2.634185321599     0.296869109014    -0.000001173612    12.000000000000
         C           -2.361983721599    -1.013394690986    -0.000002973612    12.000000000000
         C            3.227507278401    -0.530106690986     0.000000026388    12.000000000000
         H           -1.231775721599     1.961111309014     0.000009026388     1.007825032230
         H            1.351835278401    -1.593622690986     0.000007026388     1.007825032230
         H           -3.591359721599     0.880702309014    -0.000000973612     1.007825032230
         H           -3.058179721599    -1.841530690986    -0.000006973612     1.007825032230
         H            3.443337278401     0.538229309014    -0.000006973612     1.007825032230
         H            3.667100278401    -0.987282690986    -0.891024973612     1.007825032230
         H            3.667096278401    -0.987269690986     0.891033026388     1.007825032230

  Basis Set: AUG-CC-PVTZ
    Blend: AUG-CC-PVTZ
  Basis Set: (AUG-CC-PVTZ AUX)
    Blend: AUG-CC-PVTZ-JKFIT
	 Reference Energy          =    -431.7951084080057171 [Eh]
	 Singles Energy            =      -0.0000000000000000 [Eh]
	 Same-Spin Energy          =      -0.4551769463174197 [Eh]
	 Opposite-Spin Energy      =      -1.3787681976661861 [Eh]
	 Correlation Energy        =      -1.8339451439836059 [Eh]
	 Total Energy              =    -433.6290535519893297 [Eh]

	 ================> DF-SCS-MP2 Energies <==================
	-----------------------------------------------------------
	 SCS Same-Spin Scale       =       0.3333333333333333 [-]
	 SCS Opposite-Spin Scale   =       1.2000000000000000 [-]
	 SCS Same-Spin Energy      =      -0.1517256487724732 [Eh]
	 SCS Opposite-Spin Energy  =      -1.6545218371994233 [Eh]
	 SCS Correlation Energy    =      -1.8062474859718964 [Eh]
	 SCS Total Energy          =    -433.6013558939775976 [Eh]
	-----------------------------------------------------------

  Dipole Moment: [D]
     X:    -0.9598      Y:    -0.4207      Z:     0.0000     Total:     1.0479

*** Psi4 exiting successfully. Buy a developer a beer!
