                               Psi4 1.3.2 release

  ==> Input File <==

--------------------------------------------------------------------------
#psi4
#
memory 32 gb

molecule  {
0 1
  O        1.2542850     1.5918540    -0.0000040
  N       -1.4703060     0.9792780     0.0000030
  N        1.7567070    -0.6653920     0.0000000
  N       -1.0359320    -1.2074830     0.0000000
  C       -0.5082200     0.0183690     0.0000050
  C        0.9183560     0.3972400     0.0000000
  C       -2.6868100     0.3502900    -0.0000010
  C       -2.5896594    -0.9720871    -0.0000034
  C        3.1975750    -0.5187580     0.0000000
  H       -1.2617080     1.9724600     0.0000090
  H        1.3219030    -1.5822740     0.0000070
  H       -3.6212920     0.8920510    -0.0000010
  H       -3.0881120    -1.8301820    -0.0000070
  H        3.4134050     0.5495780    -0.0000070
  H        3.6371680    -0.9759340    -0.8910250
  H        3.6371640    -0.9759210     0.8910330
units angstrom
no_reorient  #important for SAPT in psi4, default
symmetry c1  #important for SAPT in psi4, default
}

set PROPERTIES_ORIGIN ["COM"]
properties('MP2/aug-cc-pvtz', properties = ['dipole'])
--------------------------------------------------------------------------

    Molecular point group: c1
  Charge       = 0
  Multiplicity = 1
  Basis Set: AUG-CC-PVTZ
    Blend: AUG-CC-PVTZ
  Basis Set: (AUG-CC-PVTZ AUX)
    Blend: AUG-CC-PVTZ-JKFIT

    Orbital Energies [Eh]
    ---------------------

    Doubly Occupied:

       1A    -20.531910     2A    -15.625212     3A    -15.594098
       4A    -15.572417     5A    -11.369438     6A    -11.315208
       7A    -11.284047     8A    -11.263884     9A    -11.260198
      10A     -1.387843    11A     -1.332987    12A     -1.241175
      13A     -1.144224    14A     -1.049297    15A     -0.967351
      16A     -0.861585    17A     -0.827375    18A     -0.792321
      19A     -0.772380    20A     -0.670643    21A     -0.650091
      22A     -0.646201    23A     -0.637162    24A     -0.603317
      25A     -0.591130    26A     -0.566010    27A     -0.551083
      28A     -0.538024    29A     -0.457968    30A     -0.431136
      31A     -0.404473    32A     -0.383801    33A     -0.353949

  @DF-RHF Final Energy:  -431.76212695544547

   => Energetics <=

    Nuclear Repulsion Energy =            429.6807999861882195
    One-Electron Energy =               -1439.5299783982920871
    Two-Electron Energy =                 578.0870514566584006
    Total Energy =                       -431.7621269554454102
  Basis Set: (AUG-CC-PVTZ AUX)
    Blend: AUG-CC-PVTZ-RI
    Molecular point group: c1

    Geometry (in Angstrom), charge = 0, multiplicity = 1:

       Center              X                  Y                   Z               Mass
    ------------   -----------------  -----------------  -----------------  -----------------
         O            1.305369146434     1.573593580876    -0.000003954421    15.994914619570
         N           -1.419221853566     0.961017580876     0.000003045579    14.003074004430
         N            1.807791146434    -0.683652419124     0.000000045579    14.003074004430
         N           -0.984847853566    -1.225743419124     0.000000045579    14.003074004430
         C           -0.457135853566     0.000108580876     0.000005045579    12.000000000000
         C            0.969440146434     0.378979580876     0.000000045579    12.000000000000
         C           -2.635725853566     0.332029580876    -0.000000954421    12.000000000000
         C           -2.538575253566    -0.990347519124    -0.000003354421    12.000000000000
         C            3.248659146434    -0.537018419124     0.000000045579    12.000000000000
         H           -1.210623853566     1.954199580876     0.000009045579     1.007825032230
         H            1.372987146434    -1.600534419124     0.000007045579     1.007825032230
         H           -3.570207853566     0.873790580876    -0.000000954421     1.007825032230
         H           -3.037027853566    -1.848442419124    -0.000006954421     1.007825032230
         H            3.464489146434     0.531317580876    -0.000006954421     1.007825032230
         H            3.688252146434    -0.994194419124    -0.891024954421     1.007825032230
         H            3.688248146434    -0.994181419124     0.891033045579     1.007825032230

  Basis Set: AUG-CC-PVTZ
    Blend: AUG-CC-PVTZ
  Basis Set: (AUG-CC-PVTZ AUX)
    Blend: AUG-CC-PVTZ-JKFIT
	 Reference Energy          =    -431.7621269554454670 [Eh]
	 Singles Energy            =      -0.0000000000000000 [Eh]
	 Same-Spin Energy          =      -0.4542225358582025 [Eh]
	 Opposite-Spin Energy      =      -1.3821533360602209 [Eh]
	 Correlation Energy        =      -1.8363758719184236 [Eh]
	 Total Energy              =    -433.5985028273639159 [Eh]

	 ================> DF-SCS-MP2 Energies <==================
	-----------------------------------------------------------
	 SCS Same-Spin Scale       =       0.3333333333333333 [-]
	 SCS Opposite-Spin Scale   =       1.2000000000000000 [-]
	 SCS Same-Spin Energy      =      -0.1514075119527342 [Eh]
	 SCS Opposite-Spin Energy  =      -1.6585840032722652 [Eh]
	 SCS Correlation Energy    =      -1.8099915152249992 [Eh]
	 SCS Total Energy          =    -433.5721184706704889 [Eh]
	-----------------------------------------------------------

  Dipole Moment: [D]
     X:    -0.8423      Y:    -0.4003      Z:     0.0000     Total:     0.9326

*** Psi4 exiting successfully. Buy a developer a beer!
