                               Psi4 1.4a3.dev225

  ==> Input File <==

--------------------------------------------------------------------------
#psi4
#
memory 32 gb

molecule  {
0 1
  O        1.2542850     1.5918540    -0.0000040
  N       -1.4703060     0.9792780     0.0000030
  N        1.7567070    -0.6653920     0.0000000
  N       -1.0359320    -1.2074830     0.0000000
  C       -0.5082200     0.0183690     0.0000050
  C        0.9183560     0.3972400     0.0000000
  C       -2.6868100     0.3502900    -0.0000010
  C       -2.3919160    -1.0020460    -0.0000030
  C        3.1975750    -0.5187580     0.0000000
  H       -1.2617080     1.9724600     0.0000090
  H        1.3219030    -1.5822740     0.0000070
  H       -3.6212920     0.8920510    -0.0000010
  H       -3.0559372    -1.7919095    -0.0000068
  H        3.4134050     0.5495780    -0.0000070
  H        3.6371680    -0.9759340    -0.8910250
  H        3.6371640    -0.9759210     0.8910330
units angstrom
no_reorient  #important for SAPT in psi4, default
symmetry c1  #important for SAPT in psi4, default
}

set PROPERTIES_ORIGIN ["COM"]
properties('MP2/aug-cc-pvtz', properties = ['dipole'])
--------------------------------------------------------------------------

    Molecular point group: c1
  Charge       = 0
  Multiplicity = 1
  Basis Set: AUG-CC-PVTZ
    Blend: AUG-CC-PVTZ
  Basis Set: (AUG-CC-PVTZ AUX)
    Blend: AUG-CC-PVTZ-JKFIT

    Orbital Energies [Eh]
    ---------------------

    Doubly Occupied:

       1A    -20.527570     2A    -15.635416     3A    -15.592435
       4A    -15.570570     5A    -11.366341     6A    -11.310116
       7A    -11.279414     8A    -11.262900     9A    -11.254981
      10A     -1.386715    11A     -1.347664    12A     -1.239797
      13A     -1.180208    14A     -1.039315    15A     -0.962286
      16A     -0.858534    17A     -0.831499    18A     -0.797216
      19A     -0.772871    20A     -0.668848    21A     -0.651357
      22A     -0.638724    23A     -0.616924    24A     -0.607949
      25A     -0.601382    26A     -0.587566    27A     -0.550480
      28A     -0.536545    29A     -0.464744    30A     -0.442288
      31A     -0.417859    32A     -0.395216    33A     -0.328623

  @DF-RHF Final Energy:  -431.79604636531189

   => Energetics <=

    Nuclear Repulsion Energy =            432.8562629762262759
    One-Electron Energy =               -1445.8559146309598873
    Two-Electron Energy =                 581.2036052894217164
    Total Energy =                       -431.7960463653118950
  Basis Set: (AUG-CC-PVTZ AUX)
    Blend: AUG-CC-PVTZ-RI
    Molecular point group: c1

    Geometry (in Angstrom), charge = 0, multiplicity = 1:

       Center              X                  Y                   Z               Mass
    ------------   -----------------  -----------------  -----------------  -----------------
         O            1.286135432234     1.576159849939    -0.000003994415    15.994914619570
         N           -1.438455567766     0.963583849939     0.000003005585    14.003074004430
         N            1.788557432234    -0.681086150061     0.000000005585    14.003074004430
         N           -1.004081567766    -1.223177150061     0.000000005585    14.003074004430
         C           -0.476369567766     0.002674849939     0.000005005585    12.000000000000
         C            0.950206432234     0.381545849939     0.000000005585    12.000000000000
         C           -2.654959567766     0.334595849939    -0.000000994415    12.000000000000
         C           -2.360065567766    -1.017740150061    -0.000002994415    12.000000000000
         C            3.229425432234    -0.534452150061     0.000000005585    12.000000000000
         H           -1.229857567766     1.956765849939     0.000009005585     1.007825032230
         H            1.353753432234    -1.597968150061     0.000007005585     1.007825032230
         H           -3.589441567766     0.876356849939    -0.000000994415     1.007825032230
         H           -3.024086767766    -1.807603650061    -0.000006794415     1.007825032230
         H            3.445255432234     0.533883849939    -0.000006994415     1.007825032230
         H            3.669018432234    -0.991628150061    -0.891024994415     1.007825032230
         H            3.669014432234    -0.991615150061     0.891033005585     1.007825032230

  Basis Set: AUG-CC-PVTZ
    Blend: AUG-CC-PVTZ
  Basis Set: (AUG-CC-PVTZ AUX)
    Blend: AUG-CC-PVTZ-JKFIT
	 Reference Energy          =    -431.7960463653118950 [Eh]
	 Singles Energy            =      -0.0000000000000000 [Eh]
	 Same-Spin Energy          =      -0.4556282509086480 [Eh]
	 Opposite-Spin Energy      =      -1.3793447835613493 [Eh]
	 Correlation Energy        =      -1.8349730344699973 [Eh]
	 Total Energy              =    -433.6310193997819056 [Eh]

	 ================> DF-SCS-MP2 Energies <==================
	-----------------------------------------------------------
	 SCS Same-Spin Scale       =       0.3333333333333333 [-]
	 SCS Opposite-Spin Scale   =       1.2000000000000000 [-]
	 SCS Same-Spin Energy      =      -0.1518760836362160 [Eh]
	 SCS Opposite-Spin Energy  =      -1.6552137402736191 [Eh]
	 SCS Correlation Energy    =      -1.8070898239098352 [Eh]
	 SCS Total Energy          =    -433.6031361892217433 [Eh]
	-----------------------------------------------------------

  Dipole Moment: [D]
     X:    -0.9862      Y:    -0.3972      Z:     0.0000     Total:     1.0631

*** Psi4 exiting successfully. Buy a developer a beer!
