                               Psi4 1.4a3.dev225

  ==> Input File <==

--------------------------------------------------------------------------
#psi4
#
memory 32 gb

molecule  {
0 1
  O        1.2542850     1.5918540    -0.0000040
  N       -1.4703060     0.9792780     0.0000030
  N        1.7567070    -0.6653920     0.0000000
  N       -1.0359320    -1.2074830     0.0000000
  C       -0.5082200     0.0183690     0.0000050
  C        0.8700312     0.3844059     0.0000002
  C       -2.6868100     0.3502900    -0.0000010
  C       -2.3919160    -1.0020460    -0.0000030
  C        3.1975750    -0.5187580     0.0000000
  H       -1.2617080     1.9724600     0.0000090
  H        1.3219030    -1.5822740     0.0000070
  H       -3.6212920     0.8920510    -0.0000010
  H       -3.0881120    -1.8301820    -0.0000070
  H        3.4134050     0.5495780    -0.0000070
  H        3.6371680    -0.9759340    -0.8910250
  H        3.6371640    -0.9759210     0.8910330
units angstrom
no_reorient  #important for SAPT in psi4, default
symmetry c1  #important for SAPT in psi4, default
}

set PROPERTIES_ORIGIN ["COM"]
properties('MP2/aug-cc-pvtz', properties = ['dipole'])
--------------------------------------------------------------------------

    Molecular point group: c1
  Charge       = 0
  Multiplicity = 1
  Basis Set: AUG-CC-PVTZ
    Blend: AUG-CC-PVTZ
  Basis Set: (AUG-CC-PVTZ AUX)
    Blend: AUG-CC-PVTZ-JKFIT

    Orbital Energies [Eh]
    ---------------------

    Doubly Occupied:

       1A    -20.524030     2A    -15.639894     3A    -15.589865
       4A    -15.576554     5A    -11.366061     6A    -11.310835
       7A    -11.285053     8A    -11.264764     9A    -11.260978
      10A     -1.378297    11A     -1.344405    12A     -1.229423
      13A     -1.183780    14A     -1.048307    15A     -0.960520
      16A     -0.868989    17A     -0.829710    18A     -0.800835
      19A     -0.764851    20A     -0.669595    21A     -0.646985
      22A     -0.638499    23A     -0.615894    24A     -0.607909
      25A     -0.599960    26A     -0.585681    27A     -0.545062
      28A     -0.528287    29A     -0.467826    30A     -0.441389
      31A     -0.420569    32A     -0.389859    33A     -0.332414

  @DF-RHF Final Energy:  -431.78972735167969

   => Energetics <=

    Nuclear Repulsion Energy =            432.7017293614414370
    One-Electron Energy =               -1445.5487529908084525
    Two-Electron Energy =                 581.0572962776872146
    Total Energy =                       -431.7897273516797441
  Basis Set: (AUG-CC-PVTZ AUX)
    Blend: AUG-CC-PVTZ-RI
    Molecular point group: c1

    Geometry (in Angstrom), charge = 0, multiplicity = 1:

       Center              X                  Y                   Z               Mass
    ------------   -----------------  -----------------  -----------------  -----------------
         O            1.291031717990     1.577699773649    -0.000004011994    15.994914619570
         N           -1.433559282010     0.965123773649     0.000002988006    14.003074004430
         N            1.793453717990    -0.679546226351    -0.000000011994    14.003074004430
         N           -0.999185282010    -1.221637226351    -0.000000011994    14.003074004430
         C           -0.471473282010     0.004214773649     0.000004988006    12.000000000000
         C            0.906777917990     0.370251673649     0.000000188006    12.000000000000
         C           -2.650063282010     0.336135773649    -0.000001011994    12.000000000000
         C           -2.355169282010    -1.016200226351    -0.000003011994    12.000000000000
         C            3.234321717990    -0.532912226351    -0.000000011994    12.000000000000
         H           -1.224961282010     1.958305773649     0.000008988006     1.007825032230
         H            1.358649717990    -1.596428226351     0.000006988006     1.007825032230
         H           -3.584545282010     0.877896773649    -0.000001011994     1.007825032230
         H           -3.051365282010    -1.844336226351    -0.000007011994     1.007825032230
         H            3.450151717990     0.535423773649    -0.000007011994     1.007825032230
         H            3.673914717990    -0.990088226351    -0.891025011994     1.007825032230
         H            3.673910717990    -0.990075226351     0.891032988006     1.007825032230

  Basis Set: AUG-CC-PVTZ
    Blend: AUG-CC-PVTZ
  Basis Set: (AUG-CC-PVTZ AUX)
    Blend: AUG-CC-PVTZ-JKFIT
	 Reference Energy          =    -431.7897273516796872 [Eh]
	 Singles Energy            =      -0.0000000000000000 [Eh]
	 Same-Spin Energy          =      -0.4570546826464559 [Eh]
	 Opposite-Spin Energy      =      -1.3820487122256853 [Eh]
	 Correlation Energy        =      -1.8391033948721411 [Eh]
	 Total Energy              =    -433.6288307465518415 [Eh]

	 ================> DF-SCS-MP2 Energies <==================
	-----------------------------------------------------------
	 SCS Same-Spin Scale       =       0.3333333333333333 [-]
	 SCS Opposite-Spin Scale   =       1.2000000000000000 [-]
	 SCS Same-Spin Energy      =      -0.1523515608821520 [Eh]
	 SCS Opposite-Spin Energy  =      -1.6584584546708223 [Eh]
	 SCS Correlation Energy    =      -1.8108100155529743 [Eh]
	 SCS Total Energy          =    -433.6005373672326755 [Eh]
	-----------------------------------------------------------

  Dipole Moment: [D]
     X:    -1.3596      Y:    -0.4688      Z:     0.0000     Total:     1.4382

*** Psi4 exiting successfully. Buy a developer a beer!
