                               Psi4 1.3.2 release

  ==> Input File <==

--------------------------------------------------------------------------
#psi4
#
memory 32 gb

molecule  {
0 1
  O        1.2542850     1.5918540    -0.0000040
  N       -1.5171453     1.0626048     0.0000032
  N        1.7567070    -0.6653920     0.0000000
  N       -1.0359320    -1.2074830     0.0000000
  C       -0.5082200     0.0183690     0.0000050
  C        0.9183560     0.3972400     0.0000000
  C       -2.6868100     0.3502900    -0.0000010
  C       -2.3919160    -1.0020460    -0.0000030
  C        3.1975750    -0.5187580     0.0000000
  H       -1.2617080     1.9724600     0.0000090
  H        1.3219030    -1.5822740     0.0000070
  H       -3.6212920     0.8920510    -0.0000010
  H       -3.0881120    -1.8301820    -0.0000070
  H        3.4134050     0.5495780    -0.0000070
  H        3.6371680    -0.9759340    -0.8910250
  H        3.6371640    -0.9759210     0.8910330
units angstrom
no_reorient  #important for SAPT in psi4, default
symmetry c1  #important for SAPT in psi4, default
}

set PROPERTIES_ORIGIN ["COM"]
properties('MP2/aug-cc-pvtz', properties = ['dipole'])
--------------------------------------------------------------------------

    Molecular point group: c1
  Charge       = 0
  Multiplicity = 1
  Basis Set: AUG-CC-PVTZ
    Blend: AUG-CC-PVTZ
  Basis Set: (AUG-CC-PVTZ AUX)
    Blend: AUG-CC-PVTZ-JKFIT

    Orbital Energies [Eh]
    ---------------------

    Doubly Occupied:

       1A    -20.526816     2A    -15.630131     3A    -15.592290
       4A    -15.582850     5A    -11.366310     6A    -11.318879
       7A    -11.287650     8A    -11.262886     9A    -11.261767
      10A     -1.383293    11A     -1.333867    12A     -1.239910
      13A     -1.189812    14A     -1.033202    15A     -0.961856
      16A     -0.870486    17A     -0.830829    18A     -0.787197
      19A     -0.769925    20A     -0.674966    21A     -0.650198
      22A     -0.634939    23A     -0.621662    24A     -0.600790
      25A     -0.592157    26A     -0.578904    27A     -0.550398
      28A     -0.535920    29A     -0.471155    30A     -0.442352
      31A     -0.424857    32A     -0.395803    33A     -0.325124

  @DF-RHF Final Energy:  -431.78192443178909

   => Energetics <=

    Nuclear Repulsion Energy =            430.5083462570117376
    One-Electron Energy =               -1441.1221851547388724
    Two-Electron Energy =                 578.8319144659380981
    Total Energy =                       -431.7819244317890934
  Basis Set: (AUG-CC-PVTZ AUX)
    Blend: AUG-CC-PVTZ-RI
    Molecular point group: c1

    Geometry (in Angstrom), charge = 0, multiplicity = 1:

       Center              X                  Y                   Z               Mass
    ------------   -----------------  -----------------  -----------------  -----------------
         O            1.291639404265     1.567138026970    -0.000004015198    15.994914619570
         N           -1.479790895735     1.037888826970     0.000003184802    14.003074004430
         N            1.794061404265    -0.690107973030    -0.000000015198    14.003074004430
         N           -0.998577595735    -1.232198973030    -0.000000015198    14.003074004430
         C           -0.470865595735    -0.006346973030     0.000004984802    12.000000000000
         C            0.955710404265     0.372524026970    -0.000000015198    12.000000000000
         C           -2.649455595735     0.325574026970    -0.000001015198    12.000000000000
         C           -2.354561595735    -1.026761973030    -0.000003015198    12.000000000000
         C            3.234929404265    -0.543473973030    -0.000000015198    12.000000000000
         H           -1.224353595735     1.947744026970     0.000008984802     1.007825032230
         H            1.359257404265    -1.606989973030     0.000006984802     1.007825032230
         H           -3.583937595735     0.867335026970    -0.000001015198     1.007825032230
         H           -3.050757595735    -1.854897973030    -0.000007015198     1.007825032230
         H            3.450759404265     0.524862026970    -0.000007015198     1.007825032230
         H            3.674522404265    -1.000649973030    -0.891025015198     1.007825032230
         H            3.674518404265    -1.000636973030     0.891032984802     1.007825032230

  Basis Set: AUG-CC-PVTZ
    Blend: AUG-CC-PVTZ
  Basis Set: (AUG-CC-PVTZ AUX)
    Blend: AUG-CC-PVTZ-JKFIT
	 Reference Energy          =    -431.7819244317890934 [Eh]
	 Singles Energy            =      -0.0000000000000000 [Eh]
	 Same-Spin Energy          =      -0.4557242701041422 [Eh]
	 Opposite-Spin Energy      =      -1.3811359335849249 [Eh]
	 Correlation Energy        =      -1.8368602036890671 [Eh]
	 Total Energy              =    -433.6187846354781641 [Eh]

	 ================> DF-SCS-MP2 Energies <==================
	-----------------------------------------------------------
	 SCS Same-Spin Scale       =       0.3333333333333333 [-]
	 SCS Opposite-Spin Scale   =       1.2000000000000000 [-]
	 SCS Same-Spin Energy      =      -0.1519080900347141 [Eh]
	 SCS Opposite-Spin Energy  =      -1.6573631203019099 [Eh]
	 SCS Correlation Energy    =      -1.8092712103366240 [Eh]
	 SCS Total Energy          =    -433.5911956421257401 [Eh]
	-----------------------------------------------------------

  Dipole Moment: [D]
     X:    -0.9512      Y:    -0.6370      Z:     0.0000     Total:     1.1448

*** Psi4 exiting successfully. Buy a developer a beer!
