                               Psi4 1.4a3.dev225

  ==> Input File <==

--------------------------------------------------------------------------
#psi4
#
memory 32 gb

molecule  {
0 1
  O        1.2542850     1.5918540    -0.0000040
  N       -1.4703060     0.9792780     0.0000030
  N        1.7567070    -0.6653920     0.0000000
  N       -1.0359320    -1.2074830     0.0000000
  C       -0.5082200     0.0183690     0.0000050
  C        0.9183560     0.3972400     0.0000000
  C       -2.6868100     0.3502900    -0.0000010
  C       -2.3812632    -1.0508980    -0.0000031
  C        3.1975750    -0.5187580     0.0000000
  H       -1.2617080     1.9724600     0.0000090
  H        1.3219030    -1.5822740     0.0000070
  H       -3.6212920     0.8920510    -0.0000010
  H       -3.0881120    -1.8301820    -0.0000070
  H        3.4134050     0.5495780    -0.0000070
  H        3.6371680    -0.9759340    -0.8910250
  H        3.6371640    -0.9759210     0.8910330
units angstrom
no_reorient  #important for SAPT in psi4, default
symmetry c1  #important for SAPT in psi4, default
}

set PROPERTIES_ORIGIN ["COM"]
properties('MP2/aug-cc-pvtz', properties = ['dipole'])
--------------------------------------------------------------------------

    Molecular point group: c1
  Charge       = 0
  Multiplicity = 1
  Basis Set: AUG-CC-PVTZ
    Blend: AUG-CC-PVTZ
  Basis Set: (AUG-CC-PVTZ AUX)
    Blend: AUG-CC-PVTZ-JKFIT

    Orbital Energies [Eh]
    ---------------------

    Doubly Occupied:

       1A    -20.526342     2A    -15.639906     3A    -15.591337
       4A    -15.571788     5A    -11.365560     6A    -11.308186
       7A    -11.285532     8A    -11.264522     9A    -11.262253
      10A     -1.385821    11A     -1.346890    12A     -1.238967
      13A     -1.184977    14A     -1.033639    15A     -0.959114
      16A     -0.856052    17A     -0.832724    18A     -0.796980
      19A     -0.771867    20A     -0.669474    21A     -0.651536
      22A     -0.638095    23A     -0.610726    24A     -0.607505
      25A     -0.607077    26A     -0.587273    27A     -0.549687
      28A     -0.535497    29A     -0.459939    30A     -0.441417
      31A     -0.421959    32A     -0.395232    33A     -0.320336

  @DF-RHF Final Energy:  -431.79236232796660

   => Energetics <=

    Nuclear Repulsion Energy =            432.0907755277710862
    One-Electron Energy =               -1444.3298579368872652
    Two-Electron Energy =                 580.4467200811495786
    Total Energy =                       -431.7923623279666572
  Basis Set: (AUG-CC-PVTZ AUX)
    Blend: AUG-CC-PVTZ-RI
    Molecular point group: c1

    Geometry (in Angstrom), charge = 0, multiplicity = 1:

       Center              X                  Y                   Z               Mass
    ------------   -----------------  -----------------  -----------------  -----------------
         O            1.285372535534     1.581155863212    -0.000003983208    15.994914619570
         N           -1.439218464466     0.968579863212     0.000003016792    14.003074004430
         N            1.787794535534    -0.676090136788     0.000000016792    14.003074004430
         N           -1.004844464466    -1.218181136788     0.000000016792    14.003074004430
         C           -0.477132464466     0.007670863212     0.000005016792    12.000000000000
         C            0.949443535534     0.386541863212     0.000000016792    12.000000000000
         C           -2.655722464466     0.339591863212    -0.000000983208    12.000000000000
         C           -2.350175664466    -1.061596136788    -0.000003083208    12.000000000000
         C            3.228662535534    -0.529456136788     0.000000016792    12.000000000000
         H           -1.230620464466     1.961761863212     0.000009016792     1.007825032230
         H            1.352990535534    -1.592972136788     0.000007016792     1.007825032230
         H           -3.590204464466     0.881352863212    -0.000000983208     1.007825032230
         H           -3.057024464466    -1.840880136788    -0.000006983208     1.007825032230
         H            3.444492535534     0.538879863212    -0.000006983208     1.007825032230
         H            3.668255535534    -0.986632136788    -0.891024983208     1.007825032230
         H            3.668251535534    -0.986619136788     0.891033016792     1.007825032230

  Basis Set: AUG-CC-PVTZ
    Blend: AUG-CC-PVTZ
  Basis Set: (AUG-CC-PVTZ AUX)
    Blend: AUG-CC-PVTZ-JKFIT
	 Reference Energy          =    -431.7923623279666003 [Eh]
	 Singles Energy            =      -0.0000000000000000 [Eh]
	 Same-Spin Energy          =      -0.4564538004132603 [Eh]
	 Opposite-Spin Energy      =      -1.3805532374309091 [Eh]
	 Correlation Energy        =      -1.8370070378441694 [Eh]
	 Total Energy              =    -433.6293693658107600 [Eh]

	 ================> DF-SCS-MP2 Energies <==================
	-----------------------------------------------------------
	 SCS Same-Spin Scale       =       0.3333333333333333 [-]
	 SCS Opposite-Spin Scale   =       1.2000000000000000 [-]
	 SCS Same-Spin Energy      =      -0.1521512668044201 [Eh]
	 SCS Opposite-Spin Energy  =      -1.6566638849170909 [Eh]
	 SCS Correlation Energy    =      -1.8088151517215110 [Eh]
	 SCS Total Energy          =    -433.6011774796880900 [Eh]
	-----------------------------------------------------------

  Dipole Moment: [D]
     X:    -1.0199      Y:    -0.4493      Z:     0.0000     Total:     1.1145

*** Psi4 exiting successfully. Buy a developer a beer!
