                               Psi4 1.3.2 release

  ==> Input File <==

--------------------------------------------------------------------------
#psi4
#
memory 32 gb

molecule  {
0 1
  O        1.2542850     1.5918540    -0.0000040
  N       -1.4703060     0.9792780     0.0000030
  N        1.7567070    -0.6653920     0.0000000
  N       -1.0359320    -1.2074830     0.0000000
  C       -0.5082200     0.0183690     0.0000050
  C        0.9183560     0.3972400     0.0000000
  C       -2.6394345     0.3597578    -0.0000008
  C       -2.3919160    -1.0020460    -0.0000030
  C        3.1975750    -0.5187580     0.0000000
  H       -1.2617080     1.9724600     0.0000090
  H        1.3219030    -1.5822740     0.0000070
  H       -3.6212920     0.8920510    -0.0000010
  H       -3.0881120    -1.8301820    -0.0000070
  H        3.4134050     0.5495780    -0.0000070
  H        3.6371680    -0.9759340    -0.8910250
  H        3.6371640    -0.9759210     0.8910330
units angstrom
no_reorient  #important for SAPT in psi4, default
symmetry c1  #important for SAPT in psi4, default
}

set PROPERTIES_ORIGIN ["COM"]
properties('MP2/aug-cc-pvtz', properties = ['dipole'])
--------------------------------------------------------------------------

    Molecular point group: c1
  Charge       = 0
  Multiplicity = 1
  Basis Set: AUG-CC-PVTZ
    Blend: AUG-CC-PVTZ
  Basis Set: (AUG-CC-PVTZ AUX)
    Blend: AUG-CC-PVTZ-JKFIT

    Orbital Energies [Eh]
    ---------------------

    Doubly Occupied:

       1A    -20.526290     2A    -15.637946     3A    -15.591020
       4A    -15.572134     5A    -11.365078     6A    -11.306561
       7A    -11.280301     8A    -11.262096     9A    -11.257592
      10A     -1.388414    11A     -1.356812    12A     -1.239028
      13A     -1.186530    14A     -1.038102    15A     -0.960280
      16A     -0.858271    17A     -0.829670    18A     -0.799528
      19A     -0.771045    20A     -0.673334    21A     -0.648130
      22A     -0.641019    23A     -0.614050    24A     -0.611877
      25A     -0.592377    26A     -0.585172    27A     -0.549544
      28A     -0.537136    29A     -0.463393    30A     -0.441322
      31A     -0.421618    32A     -0.394926    33A     -0.325586

  @DF-RHF Final Energy:  -431.79456579168465

   => Energetics <=

    Nuclear Repulsion Energy =            433.6102264659600110
    One-Electron Energy =               -1447.3572194818186745
    Two-Electron Energy =                 581.9524272241740164
    Total Energy =                       -431.7945657916845903
  Basis Set: (AUG-CC-PVTZ AUX)
    Blend: AUG-CC-PVTZ-RI
    Molecular point group: c1

    Geometry (in Angstrom), charge = 0, multiplicity = 1:

       Center              X                  Y                   Z               Mass
    ------------   -----------------  -----------------  -----------------  -----------------
         O            1.281848817044     1.575559799807    -0.000004011994    15.994914619570
         N           -1.442742182956     0.962983799807     0.000002988006    14.003074004430
         N            1.784270817044    -0.681686200193    -0.000000011994    14.003074004430
         N           -1.008368182956    -1.223777200193    -0.000000011994    14.003074004430
         C           -0.480656182956     0.002074799807     0.000004988006    12.000000000000
         C            0.945919817044     0.380945799807    -0.000000011994    12.000000000000
         C           -2.611870682956     0.343463599807    -0.000000811994    12.000000000000
         C           -2.364352182956    -1.018340200193    -0.000003011994    12.000000000000
         C            3.225138817044    -0.535052200193    -0.000000011994    12.000000000000
         H           -1.234144182956     1.956165799807     0.000008988006     1.007825032230
         H            1.349466817044    -1.598568200193     0.000006988006     1.007825032230
         H           -3.593728182956     0.875756799807    -0.000001011994     1.007825032230
         H           -3.060548182956    -1.846476200193    -0.000007011994     1.007825032230
         H            3.440968817044     0.533283799807    -0.000007011994     1.007825032230
         H            3.664731817044    -0.992228200193    -0.891025011994     1.007825032230
         H            3.664727817044    -0.992215200193     0.891032988006     1.007825032230

  Basis Set: AUG-CC-PVTZ
    Blend: AUG-CC-PVTZ
  Basis Set: (AUG-CC-PVTZ AUX)
    Blend: AUG-CC-PVTZ-JKFIT
	 Reference Energy          =    -431.7945657916846471 [Eh]
	 Singles Energy            =      -0.0000000000000000 [Eh]
	 Same-Spin Energy          =      -0.4559526775005502 [Eh]
	 Opposite-Spin Energy      =      -1.3790763385090714 [Eh]
	 Correlation Energy        =      -1.8350290160096216 [Eh]
	 Total Energy              =    -433.6295948076942750 [Eh]

	 ================> DF-SCS-MP2 Energies <==================
	-----------------------------------------------------------
	 SCS Same-Spin Scale       =       0.3333333333333333 [-]
	 SCS Opposite-Spin Scale   =       1.2000000000000000 [-]
	 SCS Same-Spin Energy      =      -0.1519842258335167 [Eh]
	 SCS Opposite-Spin Energy  =      -1.6548916062108856 [Eh]
	 SCS Correlation Energy    =      -1.8068758320444023 [Eh]
	 SCS Total Energy          =    -433.6014416237290447 [Eh]
	-----------------------------------------------------------

  Dipole Moment: [D]
     X:    -1.0096      Y:    -0.3581      Z:     0.0000     Total:     1.0712

*** Psi4 exiting successfully. Buy a developer a beer!
