                               Psi4 1.3.2 release

  ==> Input File <==

--------------------------------------------------------------------------
#psi4
#
memory 32 gb

molecule  {
0 1
  O        1.2542850     1.5918540    -0.0000040
  N       -1.5349920     0.9098255     0.0000026
  N        1.7567070    -0.6653920     0.0000000
  N       -1.0359320    -1.2074830     0.0000000
  C       -0.5082200     0.0183690     0.0000050
  C        0.9183560     0.3972400     0.0000000
  C       -2.6868100     0.3502900    -0.0000010
  C       -2.3919160    -1.0020460    -0.0000030
  C        3.1975750    -0.5187580     0.0000000
  H       -1.2617080     1.9724600     0.0000090
  H        1.3219030    -1.5822740     0.0000070
  H       -3.6212920     0.8920510    -0.0000010
  H       -3.0881120    -1.8301820    -0.0000070
  H        3.4134050     0.5495780    -0.0000070
  H        3.6371680    -0.9759340    -0.8910250
  H        3.6371640    -0.9759210     0.8910330
units angstrom
no_reorient  #important for SAPT in psi4, default
symmetry c1  #important for SAPT in psi4, default
}

set PROPERTIES_ORIGIN ["COM"]
properties('MP2/aug-cc-pvtz', properties = ['dipole'])
--------------------------------------------------------------------------

    Molecular point group: c1
  Charge       = 0
  Multiplicity = 1
  Basis Set: AUG-CC-PVTZ
    Blend: AUG-CC-PVTZ
  Basis Set: (AUG-CC-PVTZ AUX)
    Blend: AUG-CC-PVTZ-JKFIT

    Orbital Energies [Eh]
    ---------------------

    Doubly Occupied:

       1A    -20.526750     2A    -15.642132     3A    -15.591713
       4A    -15.569978     5A    -11.367549     6A    -11.301612
       7A    -11.274493     8A    -11.262653     9A    -11.253369
      10A     -1.390384    11A     -1.363777    12A     -1.239510
      13A     -1.180626    14A     -1.042234    15A     -0.963008
      16A     -0.850720    17A     -0.825376    18A     -0.793937
      19A     -0.773753    20A     -0.684608    21A     -0.649600
      22A     -0.643421    23A     -0.615049    24A     -0.602141
      25A     -0.591837    26A     -0.584233    27A     -0.550098
      28A     -0.539182    29A     -0.461746    30A     -0.441521
      31A     -0.419503    32A     -0.395242    33A     -0.323611

  @DF-RHF Final Energy:  -431.78098624041758

   => Energetics <=

    Nuclear Repulsion Energy =            433.6847613835060429
    One-Electron Energy =               -1447.5007629635792910
    Two-Electron Energy =                 582.0350153396556152
    Total Energy =                       -431.7809862404176329
  Basis Set: (AUG-CC-PVTZ AUX)
    Blend: AUG-CC-PVTZ-RI
    Molecular point group: c1

    Geometry (in Angstrom), charge = 0, multiplicity = 1:

       Center              X                  Y                   Z               Mass
    ------------   -----------------  -----------------  -----------------  -----------------
         O            1.293637731750     1.584245003294    -0.000003948015    15.994914619570
         N           -1.495639268250     0.902216503294     0.000002651985    14.003074004430
         N            1.796059731750    -0.673000996706     0.000000051985    14.003074004430
         N           -0.996579268250    -1.215091996706     0.000000051985    14.003074004430
         C           -0.468867268250     0.010760003294     0.000005051985    12.000000000000
         C            0.957708731750     0.389631003294     0.000000051985    12.000000000000
         C           -2.647457268250     0.342681003294    -0.000000948015    12.000000000000
         C           -2.352563268250    -1.009654996706    -0.000002948015    12.000000000000
         C            3.236927731750    -0.526366996706     0.000000051985    12.000000000000
         H           -1.222355268250     1.964851003294     0.000009051985     1.007825032230
         H            1.361255731750    -1.589882996706     0.000007051985     1.007825032230
         H           -3.581939268250     0.884442003294    -0.000000948015     1.007825032230
         H           -3.048759268250    -1.837790996706    -0.000006948015     1.007825032230
         H            3.452757731750     0.541969003294    -0.000006948015     1.007825032230
         H            3.676520731750    -0.983542996706    -0.891024948015     1.007825032230
         H            3.676516731750    -0.983529996706     0.891033051985     1.007825032230

  Basis Set: AUG-CC-PVTZ
    Blend: AUG-CC-PVTZ
  Basis Set: (AUG-CC-PVTZ AUX)
    Blend: AUG-CC-PVTZ-JKFIT
	 Reference Energy          =    -431.7809862404175760 [Eh]
	 Singles Energy            =      -0.0000000000000000 [Eh]
	 Same-Spin Energy          =      -0.4571535917976240 [Eh]
	 Opposite-Spin Energy      =      -1.3801970067998666 [Eh]
	 Correlation Energy        =      -1.8373505985974905 [Eh]
	 Total Energy              =    -433.6183368390150576 [Eh]

	 ================> DF-SCS-MP2 Energies <==================
	-----------------------------------------------------------
	 SCS Same-Spin Scale       =       0.3333333333333333 [-]
	 SCS Opposite-Spin Scale   =       1.2000000000000000 [-]
	 SCS Same-Spin Energy      =      -0.1523845305992080 [Eh]
	 SCS Opposite-Spin Energy  =      -1.6562364081598397 [Eh]
	 SCS Correlation Energy    =      -1.8086209387590477 [Eh]
	 SCS Total Energy          =    -433.5896071791765962 [Eh]
	-----------------------------------------------------------

  Dipole Moment: [D]
     X:    -0.9963      Y:    -0.1827      Z:     0.0000     Total:     1.0129

*** Psi4 exiting successfully. Buy a developer a beer!
