                               Psi4 1.3.2 release

  ==> Input File <==

--------------------------------------------------------------------------
#psi4
#
memory 32 gb

molecule  {
0 1
  O        1.2542850     1.5918540    -0.0000040
  N       -1.4703060     0.9792780     0.0000030
  N        1.7567070    -0.6653920     0.0000000
  N       -1.0359320    -1.2074830     0.0000000
  C       -0.5082200     0.0183690     0.0000050
  C        0.9183560     0.3972400     0.0000000
  C       -2.6868100     0.3502900    -0.0000010
  C       -2.2930443    -1.0170255    -0.0000028
  C        3.1975750    -0.5187580     0.0000000
  H       -1.2617080     1.9724600     0.0000090
  H        1.3219030    -1.5822740     0.0000070
  H       -3.6212920     0.8920510    -0.0000010
  H       -3.0881120    -1.8301820    -0.0000070
  H        3.4134050     0.5495780    -0.0000070
  H        3.6371680    -0.9759340    -0.8910250
  H        3.6371640    -0.9759210     0.8910330
units angstrom
no_reorient  #important for SAPT in psi4, default
symmetry c1  #important for SAPT in psi4, default
}

set PROPERTIES_ORIGIN ["COM"]
properties('MP2/aug-cc-pvtz', properties = ['dipole'])
--------------------------------------------------------------------------

    Molecular point group: c1
  Charge       = 0
  Multiplicity = 1
  Basis Set: AUG-CC-PVTZ
    Blend: AUG-CC-PVTZ
  Basis Set: (AUG-CC-PVTZ AUX)
    Blend: AUG-CC-PVTZ-JKFIT

    Orbital Energies [Eh]
    ---------------------

    Doubly Occupied:

       1A    -20.524459     2A    -15.643455     3A    -15.591037
       4A    -15.568112     5A    -11.364174     6A    -11.306768
       7A    -11.279548     8A    -11.263572     9A    -11.262090
      10A     -1.388535    11A     -1.358800    12A     -1.239125
      13A     -1.205598    14A     -1.033641    15A     -0.958494
      16A     -0.864563    17A     -0.822754    18A     -0.799821
      19A     -0.771856    20A     -0.670793    21A     -0.652209
      22A     -0.641322    23A     -0.618105    24A     -0.611533
      25A     -0.592770    26A     -0.581947    27A     -0.549180
      28A     -0.535842    29A     -0.460856    30A     -0.441342
      31A     -0.435740    32A     -0.396048    33A     -0.316130

  @DF-RHF Final Energy:  -431.78355412719333

   => Energetics <=

    Nuclear Repulsion Energy =            434.2297315906001245
    One-Electron Energy =               -1448.5261318546033635
    Two-Electron Energy =                 582.5128461368099124
    Total Energy =                       -431.7835541271933835
  Basis Set: (AUG-CC-PVTZ AUX)
    Blend: AUG-CC-PVTZ-RI
    Molecular point group: c1

    Geometry (in Angstrom), charge = 0, multiplicity = 1:

       Center              X                  Y                   Z               Mass
    ------------   -----------------  -----------------  -----------------  -----------------
         O            1.276907510657     1.577905635027    -0.000004011994    15.994914619570
         N           -1.447683489343     0.965329635027     0.000002988006    14.003074004430
         N            1.779329510657    -0.679340364973    -0.000000011994    14.003074004430
         N           -1.013309489343    -1.221431364973    -0.000000011994    14.003074004430
         C           -0.485597489343     0.004420635027     0.000004988006    12.000000000000
         C            0.940978510657     0.383291635027    -0.000000011994    12.000000000000
         C           -2.664187489343     0.336341635027    -0.000001011994    12.000000000000
         C           -2.270421789343    -1.030973864973    -0.000002811994    12.000000000000
         C            3.220197510657    -0.532706364973    -0.000000011994    12.000000000000
         H           -1.239085489343     1.958511635027     0.000008988006     1.007825032230
         H            1.344525510657    -1.596222364973     0.000006988006     1.007825032230
         H           -3.598669489343     0.878102635027    -0.000001011994     1.007825032230
         H           -3.065489489343    -1.844130364973    -0.000007011994     1.007825032230
         H            3.436027510657     0.535629635027    -0.000007011994     1.007825032230
         H            3.659790510657    -0.989882364973    -0.891025011994     1.007825032230
         H            3.659786510657    -0.989869364973     0.891032988006     1.007825032230

  Basis Set: AUG-CC-PVTZ
    Blend: AUG-CC-PVTZ
  Basis Set: (AUG-CC-PVTZ AUX)
    Blend: AUG-CC-PVTZ-JKFIT
	 Reference Energy          =    -431.7835541271933266 [Eh]
	 Singles Energy            =      -0.0000000000000000 [Eh]
	 Same-Spin Energy          =      -0.4570214183376649 [Eh]
	 Opposite-Spin Energy      =      -1.3799945090197581 [Eh]
	 Correlation Energy        =      -1.8370159273574229 [Eh]
	 Total Energy              =    -433.6205700545507398 [Eh]

	 ================> DF-SCS-MP2 Energies <==================
	-----------------------------------------------------------
	 SCS Same-Spin Scale       =       0.3333333333333333 [-]
	 SCS Opposite-Spin Scale   =       1.2000000000000000 [-]
	 SCS Same-Spin Energy      =      -0.1523404727792216 [Eh]
	 SCS Opposite-Spin Energy  =      -1.6559934108237095 [Eh]
	 SCS Correlation Energy    =      -1.8083338836029312 [Eh]
	 SCS Total Energy          =    -433.5918880107962536 [Eh]
	-----------------------------------------------------------

  Dipole Moment: [D]
     X:    -0.9945      Y:    -0.4355      Z:     0.0000     Total:     1.0857

*** Psi4 exiting successfully. Buy a developer a beer!
