                               Psi4 1.3.2 release

  ==> Input File <==

--------------------------------------------------------------------------
#psi4
#
memory 32 gb

molecule  {
0 1
  O        1.2750827     1.5858093    -0.0000040
  N       -1.4703060     0.9792780     0.0000030
  N        1.7567070    -0.6653920     0.0000000
  N       -1.0359320    -1.2074830     0.0000000
  C       -0.5082200     0.0183690     0.0000050
  C        0.9183560     0.3972400     0.0000000
  C       -2.6868100     0.3502900    -0.0000010
  C       -2.3919160    -1.0020460    -0.0000030
  C        3.1975750    -0.5187580     0.0000000
  H       -1.2617080     1.9724600     0.0000090
  H        1.3219030    -1.5822740     0.0000070
  H       -3.6212920     0.8920510    -0.0000010
  H       -3.0881120    -1.8301820    -0.0000070
  H        3.4134050     0.5495780    -0.0000070
  H        3.6371680    -0.9759340    -0.8910250
  H        3.6371640    -0.9759210     0.8910330
units angstrom
no_reorient  #important for SAPT in psi4, default
symmetry c1  #important for SAPT in psi4, default
}

set PROPERTIES_ORIGIN ["COM"]
properties('MP2/aug-cc-pvtz', properties = ['dipole'])
--------------------------------------------------------------------------

    Molecular point group: c1
  Charge       = 0
  Multiplicity = 1
  Basis Set: AUG-CC-PVTZ
    Blend: AUG-CC-PVTZ
  Basis Set: (AUG-CC-PVTZ AUX)
    Blend: AUG-CC-PVTZ-JKFIT

    Orbital Energies [Eh]
    ---------------------

    Doubly Occupied:

       1A    -20.527204     2A    -15.636477     3A    -15.591418
       4A    -15.571713     5A    -11.366235     6A    -11.311395
       7A    -11.280345     8A    -11.262071     9A    -11.261331
      10A     -1.386719    11A     -1.348729    12A     -1.238533
      13A     -1.180935    14A     -1.039197    15A     -0.961621
      16A     -0.858963    17A     -0.825607    18A     -0.797682
      19A     -0.772268    20A     -0.668944    21A     -0.650576
      22A     -0.638743    23A     -0.614520    24A     -0.608143
      25A     -0.596773    26A     -0.586376    27A     -0.549393
      28A     -0.536332    29A     -0.465031    30A     -0.442353
      31A     -0.418503    32A     -0.394585    33A     -0.329408

  @DF-RHF Final Energy:  -431.79676863910242

   => Energetics <=

    Nuclear Repulsion Energy =            432.5284117023766157
    One-Electron Energy =               -1445.2141104756535697
    Two-Electron Energy =                 580.8889301341745295
    Total Energy =                       -431.7967686391024245
  Basis Set: (AUG-CC-PVTZ AUX)
    Blend: AUG-CC-PVTZ-RI
    Molecular point group: c1

    Geometry (in Angstrom), charge = 0, multiplicity = 1:

       Center              X                  Y                   Z               Mass
    ------------   -----------------  -----------------  -----------------  -----------------
         O            1.304532416743     1.571196691765    -0.000003992803    15.994914619570
         N           -1.440856283257     0.964665391765     0.000003007197    14.003074004430
         N            1.786156716743    -0.680004608235     0.000000007197    14.003074004430
         N           -1.006482283257    -1.222095608235     0.000000007197    14.003074004430
         C           -0.478770283257     0.003756391765     0.000005007197    12.000000000000
         C            0.947805716743     0.382627391765     0.000000007197    12.000000000000
         C           -2.657360283257     0.335677391765    -0.000000992803    12.000000000000
         C           -2.362466283257    -1.016658608235    -0.000002992803    12.000000000000
         C            3.227024716743    -0.533370608235     0.000000007197    12.000000000000
         H           -1.232258283257     1.957847391765     0.000009007197     1.007825032230
         H            1.351352716743    -1.596886608235     0.000007007197     1.007825032230
         H           -3.591842283257     0.877438391765    -0.000000992803     1.007825032230
         H           -3.058662283257    -1.844794608235    -0.000006992803     1.007825032230
         H            3.442854716743     0.534965391765    -0.000006992803     1.007825032230
         H            3.666617716743    -0.990546608235    -0.891024992803     1.007825032230
         H            3.666613716743    -0.990533608235     0.891033007197     1.007825032230

  Basis Set: AUG-CC-PVTZ
    Blend: AUG-CC-PVTZ
  Basis Set: (AUG-CC-PVTZ AUX)
    Blend: AUG-CC-PVTZ-JKFIT
	 Reference Energy          =    -431.7967686391024245 [Eh]
	 Singles Energy            =      -0.0000000000000000 [Eh]
	 Same-Spin Energy          =      -0.4557554605925705 [Eh]
	 Opposite-Spin Energy      =      -1.3796637306569324 [Eh]
	 Correlation Energy        =      -1.8354191912495028 [Eh]
	 Total Energy              =    -433.6321878303519384 [Eh]

	 ================> DF-SCS-MP2 Energies <==================
	-----------------------------------------------------------
	 SCS Same-Spin Scale       =       0.3333333333333333 [-]
	 SCS Opposite-Spin Scale   =       1.2000000000000000 [-]
	 SCS Same-Spin Energy      =      -0.1519184868641902 [Eh]
	 SCS Opposite-Spin Energy  =      -1.6555964767883189 [Eh]
	 SCS Correlation Energy    =      -1.8075149636525092 [Eh]
	 SCS Total Energy          =    -433.6042836027549470 [Eh]
	-----------------------------------------------------------

  Dipole Moment: [D]
     X:    -1.0567      Y:    -0.3875      Z:     0.0000     Total:     1.1255

*** Psi4 exiting successfully. Buy a developer a beer!
