                               Psi4 1.3.2 release

  ==> Input File <==

--------------------------------------------------------------------------
#psi4
#
memory 32 gb

molecule  {
0 1
  O        1.2542850     1.5918540    -0.0000040
  N       -1.4703060     0.9792780     0.0000030
  N        1.7567070    -0.6653920     0.0000000
  N       -1.0359320    -1.2074830     0.0000000
  C       -0.5082200     0.0183690     0.0000050
  C        0.9183560     0.3972400     0.0000000
  C       -2.6868100     0.3502900    -0.0000010
  C       -2.3919160    -1.0020460    -0.0000030
  C        3.1975750    -0.5187580     0.0000000
  H       -1.2617080     1.9724600     0.0000090
  H        1.3219030    -1.5822740     0.0000070
  H       -3.7943174     0.9923616    -0.0000010
  H       -3.0881120    -1.8301820    -0.0000070
  H        3.4134050     0.5495780    -0.0000070
  H        3.6371680    -0.9759340    -0.8910250
  H        3.6371640    -0.9759210     0.8910330
units angstrom
no_reorient  #important for SAPT in psi4, default
symmetry c1  #important for SAPT in psi4, default
}

set PROPERTIES_ORIGIN ["COM"]
properties('MP2/aug-cc-pvtz', properties = ['dipole'])
--------------------------------------------------------------------------

    Molecular point group: c1
  Charge       = 0
  Multiplicity = 1
  Basis Set: AUG-CC-PVTZ
    Blend: AUG-CC-PVTZ
  Basis Set: (AUG-CC-PVTZ AUX)
    Blend: AUG-CC-PVTZ-JKFIT

    Orbital Energies [Eh]
    ---------------------

    Doubly Occupied:

       1A    -20.528030     2A    -15.637248     3A    -15.592889
       4A    -15.572214     5A    -11.366972     6A    -11.311256
       7A    -11.299446     8A    -11.263211     9A    -11.261900
      10A     -1.387383    11A     -1.348926    12A     -1.240255
      13A     -1.180918    14A     -1.036004    15A     -0.960019
      16A     -0.857659    17A     -0.823674    18A     -0.791393
      19A     -0.764697    20A     -0.663266    21A     -0.645753
      22A     -0.639485    23A     -0.608888    24A     -0.607763
      25A     -0.587135    26A     -0.572188    27A     -0.550479
      28A     -0.537091    29A     -0.464090    30A     -0.442810
      31A     -0.418988    32A     -0.395737    33A     -0.329328

  @DF-RHF Final Energy:  -431.77353441380427

   => Energetics <=

    Nuclear Repulsion Energy =            431.6668797827707635
    One-Electron Energy =               -1443.5066405031991508
    Two-Electron Energy =                 580.0662263066241167
    Total Energy =                       -431.7735344138042137
  Basis Set: (AUG-CC-PVTZ AUX)
    Blend: AUG-CC-PVTZ-RI
    Molecular point group: c1

    Geometry (in Angstrom), charge = 0, multiplicity = 1:

       Center              X                  Y                   Z               Mass
    ------------   -----------------  -----------------  -----------------  -----------------
         O            1.287789100054     1.575659897163    -0.000003992803    15.994914619570
         N           -1.436801899946     0.963083897163     0.000003007197    14.003074004430
         N            1.790211100054    -0.681586102837     0.000000007197    14.003074004430
         N           -1.002427899946    -1.223677102837     0.000000007197    14.003074004430
         C           -0.474715899946     0.002174897163     0.000005007197    12.000000000000
         C            0.951860100054     0.381045897163     0.000000007197    12.000000000000
         C           -2.653305899946     0.334095897163    -0.000000992803    12.000000000000
         C           -2.358411899946    -1.018240102837    -0.000002992803    12.000000000000
         C            3.231079100054    -0.534952102837     0.000000007197    12.000000000000
         H           -1.228203899946     1.956265897163     0.000009007197     1.007825032230
         H            1.355407100054    -1.598468102837     0.000007007197     1.007825032230
         H           -3.760813299946     0.976167497163    -0.000000992803     1.007825032230
         H           -3.054607899946    -1.846376102837    -0.000006992803     1.007825032230
         H            3.446909100054     0.533383897163    -0.000006992803     1.007825032230
         H            3.670672100054    -0.992128102837    -0.891024992803     1.007825032230
         H            3.670668100054    -0.992115102837     0.891033007197     1.007825032230

  Basis Set: AUG-CC-PVTZ
    Blend: AUG-CC-PVTZ
  Basis Set: (AUG-CC-PVTZ AUX)
    Blend: AUG-CC-PVTZ-JKFIT
	 Reference Energy          =    -431.7735344138042706 [Eh]
	 Singles Energy            =      -0.0000000000000000 [Eh]
	 Same-Spin Energy          =      -0.4562794609804812 [Eh]
	 Opposite-Spin Energy      =      -1.3818129761789242 [Eh]
	 Correlation Energy        =      -1.8380924371594054 [Eh]
	 Total Energy              =    -433.6116268509636598 [Eh]

	 ================> DF-SCS-MP2 Energies <==================
	-----------------------------------------------------------
	 SCS Same-Spin Scale       =       0.3333333333333333 [-]
	 SCS Opposite-Spin Scale   =       1.2000000000000000 [-]
	 SCS Same-Spin Energy      =      -0.1520931536601604 [Eh]
	 SCS Opposite-Spin Energy  =      -1.6581755714147091 [Eh]
	 SCS Correlation Energy    =      -1.8102687250748695 [Eh]
	 SCS Total Energy          =    -433.5838031388791478 [Eh]
	-----------------------------------------------------------

  Dipole Moment: [D]
     X:    -0.9701      Y:    -0.3967      Z:     0.0000     Total:     1.0481

*** Psi4 exiting successfully. Buy a developer a beer!
