                               Psi4 1.3.2 release

  ==> Input File <==

--------------------------------------------------------------------------
#psi4
#
memory 32 gb

molecule  {
0 1
  O        1.2542850     1.5918540    -0.0000040
  N       -1.4703060     0.9792780     0.0000030
  N        1.7567070    -0.6653920     0.0000000
  N       -1.0359320    -1.2074830     0.0000000
  C       -0.5082200     0.0183690     0.0000050
  C        0.9183560     0.3972400     0.0000000
  C       -2.6868100     0.3502900    -0.0000010
  C       -2.4345272    -0.8066380    -0.0000027
  C        3.1975750    -0.5187580     0.0000000
  H       -1.2617080     1.9724600     0.0000090
  H        1.3219030    -1.5822740     0.0000070
  H       -3.6212920     0.8920510    -0.0000010
  H       -3.0881120    -1.8301820    -0.0000070
  H        3.4134050     0.5495780    -0.0000070
  H        3.6371680    -0.9759340    -0.8910250
  H        3.6371640    -0.9759210     0.8910330
units angstrom
no_reorient  #important for SAPT in psi4, default
symmetry c1  #important for SAPT in psi4, default
}

set PROPERTIES_ORIGIN ["COM"]
properties('MP2/aug-cc-pvtz', properties = ['dipole'])
--------------------------------------------------------------------------

    Molecular point group: c1
  Charge       = 0
  Multiplicity = 1
  Basis Set: AUG-CC-PVTZ
    Blend: AUG-CC-PVTZ
  Basis Set: (AUG-CC-PVTZ AUX)
    Blend: AUG-CC-PVTZ-JKFIT

    Orbital Energies [Eh]
    ---------------------

    Doubly Occupied:

       1A    -20.532209     2A    -15.619341     3A    -15.596535
       4A    -15.569817     5A    -11.369437     6A    -11.318563
       7A    -11.265353     8A    -11.251839     9A    -11.244613
      10A     -1.390797    11A     -1.354554    12A     -1.243184
      13A     -1.160455    14A     -1.072518    15A     -0.974067
      16A     -0.870208    17A     -0.799330    18A     -0.789742
      19A     -0.777010    20A     -0.670023    21A     -0.655601
      22A     -0.642828    23A     -0.626492    24A     -0.614551
      25A     -0.591811    26A     -0.553254    27A     -0.541936
      28A     -0.523712    29A     -0.476781    30A     -0.442327
      31A     -0.408026    32A     -0.391814    33A     -0.371545

  @DF-RHF Final Energy:  -431.73464836639732

   => Energetics <=

    Nuclear Repulsion Energy =            434.8851080840610166
    One-Electron Energy =               -1449.8189638997268958
    Two-Electron Energy =                 583.1992074492685560
    Total Energy =                       -431.7346483663973231
  Basis Set: (AUG-CC-PVTZ AUX)
    Blend: AUG-CC-PVTZ-RI
    Molecular point group: c1

    Geometry (in Angstrom), charge = 0, multiplicity = 1:

       Center              X                  Y                   Z               Mass
    ------------   -----------------  -----------------  -----------------  -----------------
         O            1.290483470776     1.557717949380    -0.000004021590    15.994914619570
         N           -1.434107529224     0.945141949380     0.000002978410    14.003074004430
         N            1.792905470776    -0.699528050620    -0.000000021590    14.003074004430
         N           -0.999733529224    -1.241619050620    -0.000000021590    14.003074004430
         C           -0.472021529224    -0.015767050620     0.000004978410    12.000000000000
         C            0.954554470776     0.363103949380    -0.000000021590    12.000000000000
         C           -2.650611529224     0.316153949380    -0.000001021590    12.000000000000
         C           -2.398328729224    -0.840774050620    -0.000002721590    12.000000000000
         C            3.233773470776    -0.552894050620    -0.000000021590    12.000000000000
         H           -1.225509529224     1.938323949380     0.000008978410     1.007825032230
         H            1.358101470776    -1.616410050620     0.000006978410     1.007825032230
         H           -3.585093529224     0.857914949380    -0.000001021590     1.007825032230
         H           -3.051913529224    -1.864318050620    -0.000007021590     1.007825032230
         H            3.449603470776     0.515441949380    -0.000007021590     1.007825032230
         H            3.673366470776    -1.010070050620    -0.891025021590     1.007825032230
         H            3.673362470776    -1.010057050620     0.891032978410     1.007825032230

  Basis Set: AUG-CC-PVTZ
    Blend: AUG-CC-PVTZ
  Basis Set: (AUG-CC-PVTZ AUX)
    Blend: AUG-CC-PVTZ-JKFIT
	 Reference Energy          =    -431.7346483663973231 [Eh]
	 Singles Energy            =      -0.0000000000000000 [Eh]
	 Same-Spin Energy          =      -0.4536681264965159 [Eh]
	 Opposite-Spin Energy      =      -1.3785110325006840 [Eh]
	 Correlation Energy        =      -1.8321791589971999 [Eh]
	 Total Energy              =    -433.5668275253945012 [Eh]

	 ================> DF-SCS-MP2 Energies <==================
	-----------------------------------------------------------
	 SCS Same-Spin Scale       =       0.3333333333333333 [-]
	 SCS Opposite-Spin Scale   =       1.2000000000000000 [-]
	 SCS Same-Spin Energy      =      -0.1512227088321720 [Eh]
	 SCS Opposite-Spin Energy  =      -1.6542132390008206 [Eh]
	 SCS Correlation Energy    =      -1.8054359478329927 [Eh]
	 SCS Total Energy          =    -433.5400843142303415 [Eh]
	-----------------------------------------------------------

  Dipole Moment: [D]
     X:    -0.7521      Y:    -0.2685      Z:     0.0000     Total:     0.7985

*** Psi4 exiting successfully. Buy a developer a beer!
