                               Psi4 1.3.2 release

  ==> Input File <==

--------------------------------------------------------------------------
#psi4
#
memory 32 gb

molecule  {
0 1
  O        1.2542850     1.5918540    -0.0000040
  N       -1.4929984     1.0213502     0.0000030
  N        1.7567070    -0.6653920     0.0000000
  N       -1.0359320    -1.2074830     0.0000000
  C       -0.5082200     0.0183690     0.0000050
  C        0.9183560     0.3972400     0.0000000
  C       -2.6868100     0.3502900    -0.0000010
  C       -2.3919160    -1.0020460    -0.0000030
  C        3.1975750    -0.5187580     0.0000000
  H       -1.2617080     1.9724600     0.0000090
  H        1.3219030    -1.5822740     0.0000070
  H       -3.6212920     0.8920510    -0.0000010
  H       -3.0881120    -1.8301820    -0.0000070
  H        3.4134050     0.5495780    -0.0000070
  H        3.6371680    -0.9759340    -0.8910250
  H        3.6371640    -0.9759210     0.8910330
units angstrom
no_reorient  #important for SAPT in psi4, default
symmetry c1  #important for SAPT in psi4, default
}

set PROPERTIES_ORIGIN ["COM"]
properties('MP2/aug-cc-pvtz', properties = ['dipole'])
--------------------------------------------------------------------------

    Molecular point group: c1
  Charge       = 0
  Multiplicity = 1
  Basis Set: AUG-CC-PVTZ
    Blend: AUG-CC-PVTZ
  Basis Set: (AUG-CC-PVTZ AUX)
    Blend: AUG-CC-PVTZ-JKFIT

    Orbital Energies [Eh]
    ---------------------

    Doubly Occupied:

       1A    -20.527187     2A    -15.632959     3A    -15.592348
       4A    -15.577015     5A    -11.366313     6A    -11.314794
       7A    -11.283581     8A    -11.262887     9A    -11.261198
      10A     -1.384727    11A     -1.340467    12A     -1.239847
      13A     -1.185052    14A     -1.035405    15A     -0.961628
      16A     -0.864204    17A     -0.828066    18A     -0.792326
      19A     -0.771587    20A     -0.670515    21A     -0.650770
      22A     -0.636523    23A     -0.618356    24A     -0.604387
      25A     -0.594020    26A     -0.584334    27A     -0.550434
      28A     -0.536236    29A     -0.467901    30A     -0.442416
      31A     -0.421395    32A     -0.395556    33A     -0.326911

  @DF-RHF Final Energy:  -431.79266921119478

   => Energetics <=

    Nuclear Repulsion Energy =            431.5311392494064648
    One-Electron Energy =               -1443.2049216862887988
    Two-Electron Energy =                 579.8811132256876135
    Total Energy =                       -431.7926692111947204
  Basis Set: (AUG-CC-PVTZ AUX)
    Blend: AUG-CC-PVTZ-RI
    Molecular point group: c1

    Geometry (in Angstrom), charge = 0, multiplicity = 1:

       Center              X                  Y                   Z               Mass
    ------------   -----------------  -----------------  -----------------  -----------------
         O            1.288935631917     1.571757379628    -0.000003992803    15.994914619570
         N           -1.458347768083     1.001253579628     0.000003007197    14.003074004430
         N            1.791357631917    -0.685488620372     0.000000007197    14.003074004430
         N           -1.001281368083    -1.227579620372     0.000000007197    14.003074004430
         C           -0.473569368083    -0.001727620372     0.000005007197    12.000000000000
         C            0.953006631917     0.377143379628     0.000000007197    12.000000000000
         C           -2.652159368083     0.330193379628    -0.000000992803    12.000000000000
         C           -2.357265368083    -1.022142620372    -0.000002992803    12.000000000000
         C            3.232225631917    -0.538854620372     0.000000007197    12.000000000000
         H           -1.227057368083     1.952363379628     0.000009007197     1.007825032230
         H            1.356553631917    -1.602370620372     0.000007007197     1.007825032230
         H           -3.586641368083     0.871954379628    -0.000000992803     1.007825032230
         H           -3.053461368083    -1.850278620372    -0.000006992803     1.007825032230
         H            3.448055631917     0.529481379628    -0.000006992803     1.007825032230
         H            3.671818631917    -0.996030620372    -0.891024992803     1.007825032230
         H            3.671814631917    -0.996017620372     0.891033007197     1.007825032230

  Basis Set: AUG-CC-PVTZ
    Blend: AUG-CC-PVTZ
  Basis Set: (AUG-CC-PVTZ AUX)
    Blend: AUG-CC-PVTZ-JKFIT
	 Reference Energy          =    -431.7926692111947773 [Eh]
	 Singles Energy            =      -0.0000000000000000 [Eh]
	 Same-Spin Energy          =      -0.4556486439644940 [Eh]
	 Opposite-Spin Energy      =      -1.3801981272895589 [Eh]
	 Correlation Energy        =      -1.8358467712540529 [Eh]
	 Total Energy              =    -433.6285159824488460 [Eh]

	 ================> DF-SCS-MP2 Energies <==================
	-----------------------------------------------------------
	 SCS Same-Spin Scale       =       0.3333333333333333 [-]
	 SCS Opposite-Spin Scale   =       1.2000000000000000 [-]
	 SCS Same-Spin Energy      =      -0.1518828813214980 [Eh]
	 SCS Opposite-Spin Energy  =      -1.6562377527474708 [Eh]
	 SCS Correlation Energy    =      -1.8081206340689688 [Eh]
	 SCS Total Energy          =    -433.6007898452637619 [Eh]
	-----------------------------------------------------------

  Dipole Moment: [D]
     X:    -0.9709      Y:    -0.5158      Z:     0.0000     Total:     1.0994

*** Psi4 exiting successfully. Buy a developer a beer!
