                               Psi4 1.3.2 release

  ==> Input File <==

--------------------------------------------------------------------------
#psi4
#
memory 32 gb

molecule  {
0 1
  O        1.2542850     1.5918540    -0.0000040
  N       -1.4703060     0.9792780     0.0000030
  N        1.6410391    -0.7472023     0.0000005
  N       -1.0359320    -1.2074830     0.0000000
  C       -0.5082200     0.0183690     0.0000050
  C        0.9183560     0.3972400     0.0000000
  C       -2.6868100     0.3502900    -0.0000010
  C       -2.3919160    -1.0020460    -0.0000030
  C        3.1975750    -0.5187580     0.0000000
  H       -1.2617080     1.9724600     0.0000090
  H        1.3219030    -1.5822740     0.0000070
  H       -3.6212920     0.8920510    -0.0000010
  H       -3.0881120    -1.8301820    -0.0000070
  H        3.4134050     0.5495780    -0.0000070
  H        3.6371680    -0.9759340    -0.8910250
  H        3.6371640    -0.9759210     0.8910330
units angstrom
no_reorient  #important for SAPT in psi4, default
symmetry c1  #important for SAPT in psi4, default
}

set PROPERTIES_ORIGIN ["COM"]
properties('MP2/aug-cc-pvtz', properties = ['dipole'])
--------------------------------------------------------------------------

    Molecular point group: c1
  Charge       = 0
  Multiplicity = 1
  Basis Set: AUG-CC-PVTZ
    Blend: AUG-CC-PVTZ
  Basis Set: (AUG-CC-PVTZ AUX)
    Blend: AUG-CC-PVTZ-JKFIT

    Orbital Energies [Eh]
    ---------------------

    Doubly Occupied:

       1A    -20.534443     2A    -15.631268     3A    -15.587814
       4A    -15.566088     5A    -11.370053     6A    -11.303808
       7A    -11.275614     8A    -11.274049     9A    -11.257401
      10A     -1.387136    11A     -1.344668    12A     -1.242853
      13A     -1.175717    14A     -1.031902    15A     -0.954347
      16A     -0.874175    17A     -0.823589    18A     -0.811865
      19A     -0.778565    20A     -0.665266    21A     -0.642804
      22A     -0.633225    23A     -0.611122    24A     -0.601163
      25A     -0.590867    26A     -0.576570    27A     -0.556968
      28A     -0.541719    29A     -0.460770    30A     -0.442343
      31A     -0.419372    32A     -0.402073    33A     -0.324813

  @DF-RHF Final Energy:  -431.76816215506096

   => Energetics <=

    Nuclear Repulsion Energy =            432.4885099852710937
    One-Electron Energy =               -1445.1244811012584250
    Two-Electron Energy =                 580.8678089609263679
    Total Energy =                       -431.7681621550609634
  Basis Set: (AUG-CC-PVTZ AUX)
    Blend: AUG-CC-PVTZ-RI
    Molecular point group: c1

    Geometry (in Angstrom), charge = 0, multiplicity = 1:

       Center              X                  Y                   Z               Mass
    ------------   -----------------  -----------------  -----------------  -----------------
         O            1.299346267895     1.585628728655    -0.000004048789    15.994914619570
         N           -1.425244732105     0.973052728655     0.000002951211    14.003074004430
         N            1.686100367895    -0.753427571345     0.000000451211    14.003074004430
         N           -0.990870732105    -1.213708271345    -0.000000048789    14.003074004430
         C           -0.463158732105     0.012143728655     0.000004951211    12.000000000000
         C            0.963417267895     0.391014728655    -0.000000048789    12.000000000000
         C           -2.641748732105     0.344064728655    -0.000001048789    12.000000000000
         C           -2.346854732105    -1.008271271345    -0.000003048789    12.000000000000
         C            3.242636267895    -0.524983271345    -0.000000048789    12.000000000000
         H           -1.216646732105     1.966234728655     0.000008951211     1.007825032230
         H            1.366964267895    -1.588499271345     0.000006951211     1.007825032230
         H           -3.576230732105     0.885825728655    -0.000001048789     1.007825032230
         H           -3.043050732105    -1.836407271345    -0.000007048789     1.007825032230
         H            3.458466267895     0.543352728655    -0.000007048789     1.007825032230
         H            3.682229267895    -0.982159271345    -0.891025048789     1.007825032230
         H            3.682225267895    -0.982146271345     0.891032951211     1.007825032230

  Basis Set: AUG-CC-PVTZ
    Blend: AUG-CC-PVTZ
  Basis Set: (AUG-CC-PVTZ AUX)
    Blend: AUG-CC-PVTZ-JKFIT
	 Reference Energy          =    -431.7681621550609634 [Eh]
	 Singles Energy            =      -0.0000000000000000 [Eh]
	 Same-Spin Energy          =      -0.4551877723279387 [Eh]
	 Opposite-Spin Energy      =      -1.3802461229401053 [Eh]
	 Correlation Energy        =      -1.8354338952680440 [Eh]
	 Total Energy              =    -433.6035960503290312 [Eh]

	 ================> DF-SCS-MP2 Energies <==================
	-----------------------------------------------------------
	 SCS Same-Spin Scale       =       0.3333333333333333 [-]
	 SCS Opposite-Spin Scale   =       1.2000000000000000 [-]
	 SCS Same-Spin Energy      =      -0.1517292574426462 [Eh]
	 SCS Opposite-Spin Energy  =      -1.6562953475281263 [Eh]
	 SCS Correlation Energy    =      -1.8080246049707727 [Eh]
	 SCS Total Energy          =    -433.5761867600317601 [Eh]
	-----------------------------------------------------------

  Dipole Moment: [D]
     X:    -0.5870      Y:    -0.2603      Z:     0.0000     Total:     0.6422

*** Psi4 exiting successfully. Buy a developer a beer!
