                               Psi4 1.4a3.dev225

  ==> Input File <==

--------------------------------------------------------------------------
#psi4
#
memory 32 gb

molecule  {
0 1
  O        1.2542850     1.5918540    -0.0000040
  N       -1.4703060     0.9792780     0.0000030
  N        1.7567070    -0.6653920     0.0000000
  N       -1.0359320    -1.2074830     0.0000000
  C       -0.5082200     0.0183690     0.0000050
  C        0.9183560     0.3972400     0.0000000
  C       -2.7045758     0.3411043    -0.0000011
  C       -2.3919160    -1.0020460    -0.0000030
  C        3.1975750    -0.5187580     0.0000000
  H       -1.2617080     1.9724600     0.0000090
  H        1.3219030    -1.5822740     0.0000070
  H       -3.6212920     0.8920510    -0.0000010
  H       -3.0881120    -1.8301820    -0.0000070
  H        3.4134050     0.5495780    -0.0000070
  H        3.6371680    -0.9759340    -0.8910250
  H        3.6371640    -0.9759210     0.8910330
units angstrom
no_reorient  #important for SAPT in psi4, default
symmetry c1  #important for SAPT in psi4, default
}

set PROPERTIES_ORIGIN ["COM"]
properties('MP2/aug-cc-pvtz', properties = ['dipole'])
--------------------------------------------------------------------------

    Molecular point group: c1
  Charge       = 0
  Multiplicity = 1
  Basis Set: AUG-CC-PVTZ
    Blend: AUG-CC-PVTZ
  Basis Set: (AUG-CC-PVTZ AUX)
    Blend: AUG-CC-PVTZ-JKFIT

    Orbital Energies [Eh]
    ---------------------

    Doubly Occupied:

       1A    -20.528350     2A    -15.634190     3A    -15.593195
       4A    -15.570281     5A    -11.367101     6A    -11.312074
       7A    -11.279283     8A    -11.263344     9A    -11.261396
      10A     -1.386734    11A     -1.344476    12A     -1.240305
      13A     -1.177513    14A     -1.039128    15A     -0.962968
      16A     -0.859156    17A     -0.823304    18A     -0.796201
      19A     -0.773209    20A     -0.666685    21A     -0.652294
      22A     -0.638394    23A     -0.616499    24A     -0.606632
      25A     -0.594247    26A     -0.586804    27A     -0.550951
      28A     -0.536540    29A     -0.464793    30A     -0.442914
      31A     -0.416575    32A     -0.395466    33A     -0.330837

  @DF-RHF Final Energy:  -431.79624221130518

   => Energetics <=

    Nuclear Repulsion Energy =            432.2526609960630708
    One-Electron Energy =               -1444.6741266574294968
    Two-Electron Energy =                 580.6252234500612985
    Total Energy =                       -431.7962422113051844
  Basis Set: (AUG-CC-PVTZ AUX)
    Blend: AUG-CC-PVTZ-RI
    Molecular point group: c1

    Geometry (in Angstrom), charge = 0, multiplicity = 1:

       Center              X                  Y                   Z               Mass
    ------------   -----------------  -----------------  -----------------  -----------------
         O            1.288099435960     1.577349692240    -0.000003983208    15.994914619570
         N           -1.436491564040     0.964773692240     0.000003016792    14.003074004430
         N            1.790521435960    -0.679896307760     0.000000016792    14.003074004430
         N           -1.002117564040    -1.221987307760     0.000000016792    14.003074004430
         C           -0.474405564040     0.003864692240     0.000005016792    12.000000000000
         C            0.952170435960     0.382735692240     0.000000016792    12.000000000000
         C           -2.670761364040     0.326599992240    -0.000001083208    12.000000000000
         C           -2.358101564040    -1.016550307760    -0.000002983208    12.000000000000
         C            3.231389435960    -0.533262307760     0.000000016792    12.000000000000
         H           -1.227893564040     1.957955692240     0.000009016792     1.007825032230
         H            1.355717435960    -1.596778307760     0.000007016792     1.007825032230
         H           -3.587477564040     0.877546692240    -0.000000983208     1.007825032230
         H           -3.054297564040    -1.844686307760    -0.000006983208     1.007825032230
         H            3.447219435960     0.535073692240    -0.000006983208     1.007825032230
         H            3.670982435960    -0.990438307760    -0.891024983208     1.007825032230
         H            3.670978435960    -0.990425307760     0.891033016792     1.007825032230

  Basis Set: AUG-CC-PVTZ
    Blend: AUG-CC-PVTZ
  Basis Set: (AUG-CC-PVTZ AUX)
    Blend: AUG-CC-PVTZ-JKFIT
	 Reference Energy          =    -431.7962422113051844 [Eh]
	 Singles Energy            =      -0.0000000000000000 [Eh]
	 Same-Spin Energy          =      -0.4555570122431679 [Eh]
	 Opposite-Spin Energy      =      -1.3797868707033338 [Eh]
	 Correlation Energy        =      -1.8353438829465016 [Eh]
	 Total Energy              =    -433.6315860942517020 [Eh]

	 ================> DF-SCS-MP2 Energies <==================
	-----------------------------------------------------------
	 SCS Same-Spin Scale       =       0.3333333333333333 [-]
	 SCS Opposite-Spin Scale   =       1.2000000000000000 [-]
	 SCS Same-Spin Energy      =      -0.1518523374143893 [Eh]
	 SCS Opposite-Spin Energy  =      -1.6557442448440005 [Eh]
	 SCS Correlation Energy    =      -1.8075965822583897 [Eh]
	 SCS Total Energy          =    -433.6038387935635683 [Eh]
	-----------------------------------------------------------

  Dipole Moment: [D]
     X:    -0.9612      Y:    -0.4182      Z:     0.0000     Total:     1.0483

*** Psi4 exiting successfully. Buy a developer a beer!
