                               Psi4 1.3.2 release

  ==> Input File <==

--------------------------------------------------------------------------
#psi4
#
memory 32 gb

molecule  {
0 1
  O        1.2542850     1.5918540    -0.0000040
  N       -1.4703060     0.9792780     0.0000030
  N        1.7567070    -0.6653920     0.0000000
  N       -1.0783921    -1.1883194     0.0000003
  C       -0.5082200     0.0183690     0.0000050
  C        0.9183560     0.3972400     0.0000000
  C       -2.6868100     0.3502900    -0.0000010
  C       -2.3919160    -1.0020460    -0.0000030
  C        3.1975750    -0.5187580     0.0000000
  H       -1.2617080     1.9724600     0.0000090
  H        1.3219030    -1.5822740     0.0000070
  H       -3.6212920     0.8920510    -0.0000010
  H       -3.0881120    -1.8301820    -0.0000070
  H        3.4134050     0.5495780    -0.0000070
  H        3.6371680    -0.9759340    -0.8910250
  H        3.6371640    -0.9759210     0.8910330
units angstrom
no_reorient  #important for SAPT in psi4, default
symmetry c1  #important for SAPT in psi4, default
}

set PROPERTIES_ORIGIN ["COM"]
properties('MP2/aug-cc-pvtz', properties = ['dipole'])
--------------------------------------------------------------------------

    Molecular point group: c1
  Charge       = 0
  Multiplicity = 1
  Basis Set: AUG-CC-PVTZ
    Blend: AUG-CC-PVTZ
  Basis Set: (AUG-CC-PVTZ AUX)
    Blend: AUG-CC-PVTZ-JKFIT

    Orbital Energies [Eh]
    ---------------------

    Doubly Occupied:

       1A    -20.527463     2A    -15.636651     3A    -15.592932
       4A    -15.565298     5A    -11.367278     6A    -11.307569
       7A    -11.277477     8A    -11.263161     9A    -11.256344
      10A     -1.387506    11A     -1.352503    12A     -1.239939
      13A     -1.186053    14A     -1.038897    15A     -0.962004
      16A     -0.859782    17A     -0.829002    18A     -0.795395
      19A     -0.772604    20A     -0.672035    21A     -0.651163
      22A     -0.639655    23A     -0.615194    24A     -0.609555
      25A     -0.600517    26A     -0.588678    27A     -0.550574
      28A     -0.537158    29A     -0.457311    30A     -0.442369
      31A     -0.421798    32A     -0.396579    33A     -0.325463

  @DF-RHF Final Energy:  -431.79619628483096

   => Energetics <=

    Nuclear Repulsion Energy =            433.2082891462468410
    One-Electron Energy =               -1446.5571582782210953
    Two-Electron Energy =                 581.5526728471431852
    Total Energy =                       -431.7961962848310122
  Basis Set: (AUG-CC-PVTZ AUX)
    Blend: AUG-CC-PVTZ-RI
    Molecular point group: c1

    Geometry (in Angstrom), charge = 0, multiplicity = 1:

       Center              X                  Y                   Z               Mass
    ------------   -----------------  -----------------  -----------------  -----------------
         O            1.291149057269     1.574322497270    -0.000004026395    15.994914619570
         N           -1.433441942731     0.961746497270     0.000002973605    14.003074004430
         N            1.793571057269    -0.682923502730    -0.000000026395    14.003074004430
         N           -1.041528042731    -1.205850902730     0.000000273605    14.003074004430
         C           -0.471355942731     0.000837497270     0.000004973605    12.000000000000
         C            0.955220057269     0.379708497270    -0.000000026395    12.000000000000
         C           -2.649945942731     0.332758497270    -0.000001026395    12.000000000000
         C           -2.355051942731    -1.019577502730    -0.000003026395    12.000000000000
         C            3.234439057269    -0.536289502730    -0.000000026395    12.000000000000
         H           -1.224843942731     1.954928497270     0.000008973605     1.007825032230
         H            1.358767057269    -1.599805502730     0.000006973605     1.007825032230
         H           -3.584427942731     0.874519497270    -0.000001026395     1.007825032230
         H           -3.051247942731    -1.847713502730    -0.000007026395     1.007825032230
         H            3.450269057269     0.532046497270    -0.000007026395     1.007825032230
         H            3.674032057269    -0.993465502730    -0.891025026395     1.007825032230
         H            3.674028057269    -0.993452502730     0.891032973605     1.007825032230

  Basis Set: AUG-CC-PVTZ
    Blend: AUG-CC-PVTZ
  Basis Set: (AUG-CC-PVTZ AUX)
    Blend: AUG-CC-PVTZ-JKFIT
	 Reference Energy          =    -431.7961962848309554 [Eh]
	 Singles Energy            =      -0.0000000000000000 [Eh]
	 Same-Spin Energy          =      -0.4559851276796088 [Eh]
	 Opposite-Spin Energy      =      -1.3788798689868997 [Eh]
	 Correlation Energy        =      -1.8348649966665085 [Eh]
	 Total Energy              =    -433.6310612814974661 [Eh]

	 ================> DF-SCS-MP2 Energies <==================
	-----------------------------------------------------------
	 SCS Same-Spin Scale       =       0.3333333333333333 [-]
	 SCS Opposite-Spin Scale   =       1.2000000000000000 [-]
	 SCS Same-Spin Energy      =      -0.1519950425598696 [Eh]
	 SCS Opposite-Spin Energy  =      -1.6546558427842797 [Eh]
	 SCS Correlation Energy    =      -1.8066508853441492 [Eh]
	 SCS Total Energy          =    -433.6028471701750959 [Eh]
	-----------------------------------------------------------

  Dipole Moment: [D]
     X:    -0.9147      Y:    -0.4606      Z:     0.0000     Total:     1.0241

*** Psi4 exiting successfully. Buy a developer a beer!
