                               Psi4 1.3.2 release

  ==> Input File <==

--------------------------------------------------------------------------
#psi4
#
memory 32 gb

molecule  {
0 1
  O        1.2542850     1.5918540    -0.0000040
  N       -1.4703060     0.9792780     0.0000030
  N        1.7567070    -0.6653920     0.0000000
  N       -1.0359320    -1.2074830     0.0000000
  C       -0.5873009    -0.1653324     0.0000043
  C        0.9183560     0.3972400     0.0000000
  C       -2.6868100     0.3502900    -0.0000010
  C       -2.3919160    -1.0020460    -0.0000030
  C        3.1975750    -0.5187580     0.0000000
  H       -1.2617080     1.9724600     0.0000090
  H        1.3219030    -1.5822740     0.0000070
  H       -3.6212920     0.8920510    -0.0000010
  H       -3.0881120    -1.8301820    -0.0000070
  H        3.4134050     0.5495780    -0.0000070
  H        3.6371680    -0.9759340    -0.8910250
  H        3.6371640    -0.9759210     0.8910330
units angstrom
no_reorient  #important for SAPT in psi4, default
symmetry c1  #important for SAPT in psi4, default
}

set PROPERTIES_ORIGIN ["COM"]
properties('MP2/aug-cc-pvtz', properties = ['dipole'])
--------------------------------------------------------------------------

    Molecular point group: c1
  Charge       = 0
  Multiplicity = 1
  Basis Set: AUG-CC-PVTZ
    Blend: AUG-CC-PVTZ
  Basis Set: (AUG-CC-PVTZ AUX)
    Blend: AUG-CC-PVTZ-JKFIT

    Orbital Energies [Eh]
    ---------------------

    Doubly Occupied:

       1A    -20.532319     2A    -15.609586     3A    -15.592906
       4A    -15.559886     5A    -11.369596     6A    -11.306717
       7A    -11.281707     8A    -11.262401     9A    -11.254620
      10A     -1.394210    11A     -1.369743    12A     -1.240015
      13A     -1.211032    14A     -1.023739    15A     -0.961123
      16A     -0.839779    17A     -0.831324    18A     -0.788173
      19A     -0.768102    20A     -0.668779    21A     -0.648663
      22A     -0.642268    23A     -0.618381    24A     -0.615284
      25A     -0.599382    26A     -0.562565    27A     -0.550991
      28A     -0.535892    29A     -0.488859    30A     -0.446431
      31A     -0.420781    32A     -0.397086    33A     -0.327934

  @DF-RHF Final Energy:  -431.73934130058092

   => Energetics <=

    Nuclear Repulsion Energy =            433.3418310221834986
    One-Electron Energy =               -1446.7217920744171806
    Two-Electron Energy =                 581.6406197516528209
    Total Energy =                       -431.7393413005809180
  Basis Set: (AUG-CC-PVTZ AUX)
    Blend: AUG-CC-PVTZ-RI
    Molecular point group: c1

    Geometry (in Angstrom), charge = 0, multiplicity = 1:

       Center              X                  Y                   Z               Mass
    ------------   -----------------  -----------------  -----------------  -----------------
         O            1.293982912707     1.594095307318    -0.000003925635    15.994914619570
         N           -1.430608087293     0.981519307318     0.000003074365    14.003074004430
         N            1.796404912707    -0.663150692682     0.000000074365    14.003074004430
         N           -0.996234087293    -1.205241692682     0.000000074365    14.003074004430
         C           -0.547602987293    -0.163091092682     0.000004374365    12.000000000000
         C            0.958053912707     0.399481307318     0.000000074365    12.000000000000
         C           -2.647112087293     0.352531307318    -0.000000925635    12.000000000000
         C           -2.352218087293    -0.999804692682    -0.000002925635    12.000000000000
         C            3.237272912707    -0.516516692682     0.000000074365    12.000000000000
         H           -1.222010087293     1.974701307318     0.000009074365     1.007825032230
         H            1.361600912707    -1.580032692682     0.000007074365     1.007825032230
         H           -3.581594087293     0.894292307318    -0.000000925635     1.007825032230
         H           -3.048414087293    -1.827940692682    -0.000006925635     1.007825032230
         H            3.453102912707     0.551819307318    -0.000006925635     1.007825032230
         H            3.676865912707    -0.973692692682    -0.891024925635     1.007825032230
         H            3.676861912707    -0.973679692682     0.891033074365     1.007825032230

  Basis Set: AUG-CC-PVTZ
    Blend: AUG-CC-PVTZ
  Basis Set: (AUG-CC-PVTZ AUX)
    Blend: AUG-CC-PVTZ-JKFIT
	 Reference Energy          =    -431.7393413005809180 [Eh]
	 Singles Energy            =      -0.0000000000000000 [Eh]
	 Same-Spin Energy          =      -0.4521647682867894 [Eh]
	 Opposite-Spin Energy      =      -1.3750431368982621 [Eh]
	 Correlation Energy        =      -1.8272079051850514 [Eh]
	 Total Energy              =    -433.5665492057659662 [Eh]

	 ================> DF-SCS-MP2 Energies <==================
	-----------------------------------------------------------
	 SCS Same-Spin Scale       =       0.3333333333333333 [-]
	 SCS Opposite-Spin Scale   =       1.2000000000000000 [-]
	 SCS Same-Spin Energy      =      -0.1507215894289298 [Eh]
	 SCS Opposite-Spin Energy  =      -1.6500517642779144 [Eh]
	 SCS Correlation Energy    =      -1.8007733537068442 [Eh]
	 SCS Total Energy          =    -433.5401146542877768 [Eh]
	-----------------------------------------------------------

  Dipole Moment: [D]
     X:    -0.5143      Y:    -0.7833      Z:     0.0000     Total:     0.9371

*** Psi4 exiting successfully. Buy a developer a beer!
