                               Psi4 1.3.2 release

  ==> Input File <==

--------------------------------------------------------------------------
#psi4
#
memory 32 gb

molecule  {
0 1
  O        1.2542850     1.5918540    -0.0000040
  N       -1.4703060     0.9792780     0.0000030
  N        1.7567070    -0.6653920     0.0000000
  N       -1.0359320    -1.2074830     0.0000000
  C       -0.5082200     0.0183690     0.0000050
  C        0.9183560     0.3972400     0.0000000
  C       -2.6868100     0.3502900    -0.0000010
  C       -2.3919160    -1.0020460    -0.0000030
  C        3.1975750    -0.5187580     0.0000000
  H       -1.2617080     1.9724600     0.0000090
  H        1.3219030    -1.5822740     0.0000070
  H       -3.4482666     0.7917404    -0.0000010
  H       -3.0881120    -1.8301820    -0.0000070
  H        3.4134050     0.5495780    -0.0000070
  H        3.6371680    -0.9759340    -0.8910250
  H        3.6371640    -0.9759210     0.8910330
units angstrom
no_reorient  #important for SAPT in psi4, default
symmetry c1  #important for SAPT in psi4, default
}

set PROPERTIES_ORIGIN ["COM"]
properties('MP2/aug-cc-pvtz', properties = ['dipole'])
--------------------------------------------------------------------------

    Molecular point group: c1
  Charge       = 0
  Multiplicity = 1
  Basis Set: AUG-CC-PVTZ
    Blend: AUG-CC-PVTZ
  Basis Set: (AUG-CC-PVTZ AUX)
    Blend: AUG-CC-PVTZ-JKFIT

    Orbital Energies [Eh]
    ---------------------

    Doubly Occupied:

       1A    -20.527699     2A    -15.634818     3A    -15.592543
       4A    -15.570251     5A    -11.366411     6A    -11.310252
       7A    -11.262962     8A    -11.260593     9A    -11.257175
      10A     -1.386755    11A     -1.347588    12A     -1.239918
      13A     -1.180560    14A     -1.045859    15A     -0.967229
      16A     -0.864863    17A     -0.833811    18A     -0.809777
      19A     -0.778831    20A     -0.684495    21A     -0.654848
      22A     -0.638677    23A     -0.623932    24A     -0.607813
      25A     -0.600885    26A     -0.586353    27A     -0.550592
      28A     -0.536595    29A     -0.464721    30A     -0.442408
      31A     -0.417653    32A     -0.395232    33A     -0.329036

  @DF-RHF Final Energy:  -431.76031531293052

   => Energetics <=

    Nuclear Repulsion Energy =            433.7732512263946774
    One-Electron Energy =               -1447.5248689378529434
    Two-Electron Energy =                 581.9913023985277505
    Total Energy =                       -431.7603153129305156
  Basis Set: (AUG-CC-PVTZ AUX)
    Blend: AUG-CC-PVTZ-RI
    Molecular point group: c1

    Geometry (in Angstrom), charge = 0, multiplicity = 1:

       Center              X                  Y                   Z               Mass
    ------------   -----------------  -----------------  -----------------  -----------------
         O            1.285000345111     1.577276663728    -0.000003992803    15.994914619570
         N           -1.439590654889     0.964700663728     0.000003007197    14.003074004430
         N            1.787422345111    -0.679969336272     0.000000007197    14.003074004430
         N           -1.005216654889    -1.222060336272     0.000000007197    14.003074004430
         C           -0.477504654889     0.003791663728     0.000005007197    12.000000000000
         C            0.949071345111     0.382662663728     0.000000007197    12.000000000000
         C           -2.656094654889     0.335712663728    -0.000000992803    12.000000000000
         C           -2.361200654889    -1.016623336272    -0.000002992803    12.000000000000
         C            3.228290345111    -0.533335336272     0.000000007197    12.000000000000
         H           -1.230992654889     1.957882663728     0.000009007197     1.007825032230
         H            1.352618345111    -1.596851336272     0.000007007197     1.007825032230
         H           -3.417551254889     0.777163063728    -0.000000992803     1.007825032230
         H           -3.057396654889    -1.844759336272    -0.000006992803     1.007825032230
         H            3.444120345111     0.535000663728    -0.000006992803     1.007825032230
         H            3.667883345111    -0.990511336272    -0.891024992803     1.007825032230
         H            3.667879345111    -0.990498336272     0.891033007197     1.007825032230

  Basis Set: AUG-CC-PVTZ
    Blend: AUG-CC-PVTZ
  Basis Set: (AUG-CC-PVTZ AUX)
    Blend: AUG-CC-PVTZ-JKFIT
	 Reference Energy          =    -431.7603153129305156 [Eh]
	 Singles Energy            =      -0.0000000000000000 [Eh]
	 Same-Spin Energy          =      -0.4554871894706546 [Eh]
	 Opposite-Spin Energy      =      -1.3790915485331370 [Eh]
	 Correlation Energy        =      -1.8345787380037917 [Eh]
	 Total Energy              =    -433.5948940509343288 [Eh]

	 ================> DF-SCS-MP2 Energies <==================
	-----------------------------------------------------------
	 SCS Same-Spin Scale       =       0.3333333333333333 [-]
	 SCS Opposite-Spin Scale   =       1.2000000000000000 [-]
	 SCS Same-Spin Energy      =      -0.1518290631568849 [Eh]
	 SCS Opposite-Spin Energy  =      -1.6549098582397643 [Eh]
	 SCS Correlation Energy    =      -1.8067389213966492 [Eh]
	 SCS Total Energy          =    -433.5670542343271450 [Eh]
	-----------------------------------------------------------

  Dipole Moment: [D]
     X:    -0.9440      Y:    -0.4178      Z:     0.0000     Total:     1.0323

*** Psi4 exiting successfully. Buy a developer a beer!
