                               Psi4 1.3.2 release

  ==> Input File <==

--------------------------------------------------------------------------
#psi4
#
memory 32 gb

molecule  {
0 1
  O        1.2542850     1.5918540    -0.0000040
  N       -1.4703060     0.9792780     0.0000030
  N        1.7567070    -0.6653920     0.0000000
  N       -1.0439277    -1.2546810    -0.0000001
  C       -0.5082200     0.0183690     0.0000050
  C        0.9183560     0.3972400     0.0000000
  C       -2.6868100     0.3502900    -0.0000010
  C       -2.3919160    -1.0020460    -0.0000030
  C        3.1975750    -0.5187580     0.0000000
  H       -1.2617080     1.9724600     0.0000090
  H        1.3219030    -1.5822740     0.0000070
  H       -3.6212920     0.8920510    -0.0000010
  H       -3.0881120    -1.8301820    -0.0000070
  H        3.4134050     0.5495780    -0.0000070
  H        3.6371680    -0.9759340    -0.8910250
  H        3.6371640    -0.9759210     0.8910330
units angstrom
no_reorient  #important for SAPT in psi4, default
symmetry c1  #important for SAPT in psi4, default
}

set PROPERTIES_ORIGIN ["COM"]
properties('MP2/aug-cc-pvtz', properties = ['dipole'])
--------------------------------------------------------------------------

    Molecular point group: c1
  Charge       = 0
  Multiplicity = 1
  Basis Set: AUG-CC-PVTZ
    Blend: AUG-CC-PVTZ
  Basis Set: (AUG-CC-PVTZ AUX)
    Blend: AUG-CC-PVTZ-JKFIT

    Orbital Energies [Eh]
    ---------------------

    Doubly Occupied:

       1A    -20.527808     2A    -15.641611     3A    -15.592723
       4A    -15.577668     5A    -11.367105     6A    -11.316177
       7A    -11.279273     8A    -11.263052     9A    -11.262157
      10A     -1.386225    11A     -1.343902    12A     -1.239914
      13A     -1.177401    14A     -1.036419    15A     -0.961735
      16A     -0.861982    17A     -0.821561    18A     -0.798574
      19A     -0.772249    20A     -0.666506    21A     -0.651166
      22A     -0.637853    23A     -0.615721    24A     -0.606827
      25A     -0.593543    26A     -0.582329    27A     -0.550603
      28A     -0.536951    29A     -0.467706    30A     -0.443807
      31A     -0.417274    32A     -0.395771    33A     -0.325849

  @DF-RHF Final Energy:  -431.79041019755971

   => Energetics <=

    Nuclear Repulsion Energy =            431.3769100560854781
    One-Electron Energy =               -1442.8957584858901555
    Two-Electron Energy =                 579.7284382322449119
    Total Energy =                       -431.7904101975597086
  Basis Set: (AUG-CC-PVTZ AUX)
    Blend: AUG-CC-PVTZ-RI
    Molecular point group: c1

    Geometry (in Angstrom), charge = 0, multiplicity = 1:

       Center              X                  Y                   Z               Mass
    ------------   -----------------  -----------------  -----------------  -----------------
         O            1.287290015666     1.581753126419    -0.000003981606    15.994914619570
         N           -1.437300984334     0.969177126419     0.000003018394    14.003074004430
         N            1.789712015666    -0.675492873581     0.000000018394    14.003074004430
         N           -1.010922684334    -1.264781873581    -0.000000081606    14.003074004430
         C           -0.475214984334     0.008268126419     0.000005018394    12.000000000000
         C            0.951361015666     0.387139126419     0.000000018394    12.000000000000
         C           -2.653804984334     0.340189126419    -0.000000981606    12.000000000000
         C           -2.358910984334    -1.012146873581    -0.000002981606    12.000000000000
         C            3.230580015666    -0.528858873581     0.000000018394    12.000000000000
         H           -1.228702984334     1.962359126419     0.000009018394     1.007825032230
         H            1.354908015666    -1.592374873581     0.000007018394     1.007825032230
         H           -3.588286984334     0.881950126419    -0.000000981606     1.007825032230
         H           -3.055106984334    -1.840282873581    -0.000006981606     1.007825032230
         H            3.446410015666     0.539477126419    -0.000006981606     1.007825032230
         H            3.670173015666    -0.986034873581    -0.891024981606     1.007825032230
         H            3.670169015666    -0.986021873581     0.891033018394     1.007825032230

  Basis Set: AUG-CC-PVTZ
    Blend: AUG-CC-PVTZ
  Basis Set: (AUG-CC-PVTZ AUX)
    Blend: AUG-CC-PVTZ-JKFIT
	 Reference Energy          =    -431.7904101975597086 [Eh]
	 Singles Energy            =      -0.0000000000000000 [Eh]
	 Same-Spin Energy          =      -0.4568063982891203 [Eh]
	 Opposite-Spin Energy      =      -1.3820148727144814 [Eh]
	 Correlation Energy        =      -1.8388212710036016 [Eh]
	 Total Energy              =    -433.6292314685633187 [Eh]

	 ================> DF-SCS-MP2 Energies <==================
	-----------------------------------------------------------
	 SCS Same-Spin Scale       =       0.3333333333333333 [-]
	 SCS Opposite-Spin Scale   =       1.2000000000000000 [-]
	 SCS Same-Spin Energy      =      -0.1522687994297068 [Eh]
	 SCS Opposite-Spin Energy  =      -1.6584178472573776 [Eh]
	 SCS Correlation Energy    =      -1.8106866466870843 [Eh]
	 SCS Total Energy          =    -433.6010968442467970 [Eh]
	-----------------------------------------------------------

  Dipole Moment: [D]
     X:    -1.0109      Y:    -0.3001      Z:     0.0000     Total:     1.0545

*** Psi4 exiting successfully. Buy a developer a beer!
