                               Psi4 1.3.2 release

  ==> Input File <==

--------------------------------------------------------------------------
#psi4
#
memory 32 gb

molecule  {
0 1
  O        1.2957718     1.5794025    -0.0000041
  N       -1.4703060     0.9792780     0.0000030
  N        1.7567070    -0.6653920     0.0000000
  N       -1.0359320    -1.2074830     0.0000000
  C       -0.5082200     0.0183690     0.0000050
  C        0.9183560     0.3972400     0.0000000
  C       -2.6868100     0.3502900    -0.0000010
  C       -2.3919160    -1.0020460    -0.0000030
  C        3.1975750    -0.5187580     0.0000000
  H       -1.2617080     1.9724600     0.0000090
  H        1.3219030    -1.5822740     0.0000070
  H       -3.6212920     0.8920510    -0.0000010
  H       -3.0881120    -1.8301820    -0.0000070
  H        3.4134050     0.5495780    -0.0000070
  H        3.6371680    -0.9759340    -0.8910250
  H        3.6371640    -0.9759210     0.8910330
units angstrom
no_reorient  #important for SAPT in psi4, default
symmetry c1  #important for SAPT in psi4, default
}

set PROPERTIES_ORIGIN ["COM"]
properties('MP2/aug-cc-pvtz', properties = ['dipole'])
--------------------------------------------------------------------------

    Molecular point group: c1
  Charge       = 0
  Multiplicity = 1
  Basis Set: AUG-CC-PVTZ
    Blend: AUG-CC-PVTZ
  Basis Set: (AUG-CC-PVTZ AUX)
    Blend: AUG-CC-PVTZ-JKFIT

    Orbital Energies [Eh]
    ---------------------

    Doubly Occupied:

       1A    -20.526687     2A    -15.637306     3A    -15.590281
       4A    -15.572447     5A    -11.365975     6A    -11.312367
       7A    -11.280984     8A    -11.261965     9A    -11.261152
      10A     -1.386604    11A     -1.349527    12A     -1.237132
      13A     -1.181587    14A     -1.039884    15A     -0.961169
      16A     -0.859302    17A     -0.826313    18A     -0.797978
      19A     -0.771729    20A     -0.669148    21A     -0.650154
      22A     -0.638628    23A     -0.615182    24A     -0.608131
      25A     -0.597097    26A     -0.586401    27A     -0.548224
      28A     -0.535984    29A     -0.465582    30A     -0.442208
      31A     -0.418938    32A     -0.393801    33A     -0.330049

  @DF-RHF Final Energy:  -431.79647131111386

   => Energetics <=

    Nuclear Repulsion Energy =            432.4756400384957828
    One-Electron Energy =               -1445.1043893141250010
    Two-Electron Energy =                 580.8322779645152423
    Total Energy =                       -431.7964713111139190
  Basis Set: (AUG-CC-PVTZ AUX)
    Blend: AUG-CC-PVTZ-RI
    Molecular point group: c1

    Geometry (in Angstrom), charge = 0, multiplicity = 1:

       Center              X                  Y                   Z               Mass
    ------------   -----------------  -----------------  -----------------  -----------------
         O            1.322575400740     1.565609315327    -0.000004080013    15.994914619570
         N           -1.443502399260     0.965484815327     0.000003019987    14.003074004430
         N            1.783510600740    -0.679185184673     0.000000019987    14.003074004430
         N           -1.009128399260    -1.221276184673     0.000000019987    14.003074004430
         C           -0.481416399260     0.004575815327     0.000005019987    12.000000000000
         C            0.945159600740     0.383446815327     0.000000019987    12.000000000000
         C           -2.660006399260     0.336496815327    -0.000000980013    12.000000000000
         C           -2.365112399260    -1.015839184673    -0.000002980013    12.000000000000
         C            3.224378600740    -0.532551184673     0.000000019987    12.000000000000
         H           -1.234904399260     1.958666815327     0.000009019987     1.007825032230
         H            1.348706600740    -1.596067184673     0.000007019987     1.007825032230
         H           -3.594488399260     0.878257815327    -0.000000980013     1.007825032230
         H           -3.061308399260    -1.843975184673    -0.000006980013     1.007825032230
         H            3.440208600740     0.535784815327    -0.000006980013     1.007825032230
         H            3.663971600740    -0.989727184673    -0.891024980013     1.007825032230
         H            3.663967600740    -0.989714184673     0.891033019987     1.007825032230

  Basis Set: AUG-CC-PVTZ
    Blend: AUG-CC-PVTZ
  Basis Set: (AUG-CC-PVTZ AUX)
    Blend: AUG-CC-PVTZ-JKFIT
	 Reference Energy          =    -431.7964713111138622 [Eh]
	 Singles Energy            =      -0.0000000000000000 [Eh]
	 Same-Spin Energy          =      -0.4558029789790567 [Eh]
	 Opposite-Spin Energy      =      -1.3797180029915004 [Eh]
	 Correlation Energy        =      -1.8355209819705571 [Eh]
	 Total Energy              =    -433.6319922930844086 [Eh]

	 ================> DF-SCS-MP2 Energies <==================
	-----------------------------------------------------------
	 SCS Same-Spin Scale       =       0.3333333333333333 [-]
	 SCS Opposite-Spin Scale   =       1.2000000000000000 [-]
	 SCS Same-Spin Energy      =      -0.1519343263263522 [Eh]
	 SCS Opposite-Spin Energy  =      -1.6556616035898004 [Eh]
	 SCS Correlation Energy    =      -1.8075959299161526 [Eh]
	 SCS Total Energy          =    -433.6040672410300090 [Eh]
	-----------------------------------------------------------

  Dipole Moment: [D]
     X:    -1.1364      Y:    -0.3746      Z:     0.0000     Total:     1.1966

*** Psi4 exiting successfully. Buy a developer a beer!
