                               Psi4 1.3.2 release

  ==> Input File <==

--------------------------------------------------------------------------
#psi4
#
memory 32 gb

molecule  {
0 1
  O        1.2542850     1.5918540    -0.0000040
  N       -1.4533893     0.9959224     0.0000031
  N        1.7567070    -0.6653920     0.0000000
  N       -1.0359320    -1.2074830     0.0000000
  C       -0.5082200     0.0183690     0.0000050
  C        0.9183560     0.3972400     0.0000000
  C       -2.6868100     0.3502900    -0.0000010
  C       -2.3919160    -1.0020460    -0.0000030
  C        3.1975750    -0.5187580     0.0000000
  H       -1.2617080     1.9724600     0.0000090
  H        1.3219030    -1.5822740     0.0000070
  H       -3.6212920     0.8920510    -0.0000010
  H       -3.0881120    -1.8301820    -0.0000070
  H        3.4134050     0.5495780    -0.0000070
  H        3.6371680    -0.9759340    -0.8910250
  H        3.6371640    -0.9759210     0.8910330
units angstrom
no_reorient  #important for SAPT in psi4, default
symmetry c1  #important for SAPT in psi4, default
}

set PROPERTIES_ORIGIN ["COM"]
properties('MP2/aug-cc-pvtz', properties = ['dipole'])
--------------------------------------------------------------------------

    Molecular point group: c1
  Charge       = 0
  Multiplicity = 1
  Basis Set: AUG-CC-PVTZ
    Blend: AUG-CC-PVTZ
  Basis Set: (AUG-CC-PVTZ AUX)
    Blend: AUG-CC-PVTZ-JKFIT

    Orbital Energies [Eh]
    ---------------------

    Doubly Occupied:

       1A    -20.527847     2A    -15.633917     3A    -15.592703
       4A    -15.571251     5A    -11.366190     6A    -11.312707
       7A    -11.281007     8A    -11.263016     9A    -11.262589
      10A     -1.386613    11A     -1.344289    12A     -1.239991
      13A     -1.180936    14A     -1.037440    15A     -0.961861
      16A     -0.861742    17A     -0.825187    18A     -0.797599
      19A     -0.772567    20A     -0.665074    21A     -0.651343
      22A     -0.638264    23A     -0.618416    24A     -0.606506
      25A     -0.594928    26A     -0.585925    27A     -0.550603
      28A     -0.536006    29A     -0.465146    30A     -0.442595
      31A     -0.418017    32A     -0.395364    33A     -0.329855

  @DF-RHF Final Energy:  -431.79614795547576

   => Energetics <=

    Nuclear Repulsion Energy =            432.3572579868178991
    One-Electron Energy =               -1444.8718220576110980
    Two-Electron Energy =                 580.7184161153174955
    Total Energy =                       -431.7961479554757034
  Basis Set: (AUG-CC-PVTZ AUX)
    Blend: AUG-CC-PVTZ-RI
    Molecular point group: c1

    Geometry (in Angstrom), charge = 0, multiplicity = 1:

       Center              X                  Y                   Z               Mass
    ------------   -----------------  -----------------  -----------------  -----------------
         O            1.284500528890     1.574604576680    -0.000004004000    15.994914619570
         N           -1.423173771110     0.978672976680     0.000003096000    14.003074004430
         N            1.786922528890    -0.682641423320    -0.000000004000    14.003074004430
         N           -1.005716471110    -1.224732423320    -0.000000004000    14.003074004430
         C           -0.478004471110     0.001119576680     0.000004996000    12.000000000000
         C            0.948571528890     0.379990576680    -0.000000004000    12.000000000000
         C           -2.656594471110     0.333040576680    -0.000001004000    12.000000000000
         C           -2.361700471110    -1.019295423320    -0.000003004000    12.000000000000
         C            3.227790528890    -0.536007423320    -0.000000004000    12.000000000000
         H           -1.231492471110     1.955210576680     0.000008996000     1.007825032230
         H            1.352118528890    -1.599523423320     0.000006996000     1.007825032230
         H           -3.591076471110     0.874801576680    -0.000001004000     1.007825032230
         H           -3.057896471110    -1.847431423320    -0.000007004000     1.007825032230
         H            3.443620528890     0.532328576680    -0.000007004000     1.007825032230
         H            3.667383528890    -0.993183423320    -0.891025004000     1.007825032230
         H            3.667379528890    -0.993170423320     0.891032996000     1.007825032230

  Basis Set: AUG-CC-PVTZ
    Blend: AUG-CC-PVTZ
  Basis Set: (AUG-CC-PVTZ AUX)
    Blend: AUG-CC-PVTZ-JKFIT
	 Reference Energy          =    -431.7961479554757602 [Eh]
	 Singles Energy            =      -0.0000000000000000 [Eh]
	 Same-Spin Energy          =      -0.4554196847594427 [Eh]
	 Opposite-Spin Energy      =      -1.3796677731427034 [Eh]
	 Correlation Energy        =      -1.8350874579021461 [Eh]
	 Total Energy              =    -433.6312354133779081 [Eh]

	 ================> DF-SCS-MP2 Energies <==================
	-----------------------------------------------------------
	 SCS Same-Spin Scale       =       0.3333333333333333 [-]
	 SCS Opposite-Spin Scale   =       1.2000000000000000 [-]
	 SCS Same-Spin Energy      =      -0.1518065615864809 [Eh]
	 SCS Opposite-Spin Energy  =      -1.6556013277712440 [Eh]
	 SCS Correlation Energy    =      -1.8074078893577248 [Eh]
	 SCS Total Energy          =    -433.6035558448334655 [Eh]
	-----------------------------------------------------------

  Dipole Moment: [D]
     X:    -0.9784      Y:    -0.4550      Z:     0.0000     Total:     1.0791

*** Psi4 exiting successfully. Buy a developer a beer!
