                               Psi4 1.3.2 release

  ==> Input File <==

--------------------------------------------------------------------------
#psi4
#
memory 32 gb

molecule  {
0 1
  O        1.2542850     1.5918540    -0.0000040
  N       -1.4703060     0.9792780     0.0000030
  N        1.7567070    -0.6653920     0.0000000
  N       -1.0359320    -1.2074830     0.0000000
  C       -0.5082200     0.0183690     0.0000050
  C        0.9183560     0.3972400     0.0000000
  C       -2.5438369     0.3737066    -0.0000005
  C       -2.3919160    -1.0020460    -0.0000030
  C        3.1975750    -0.5187580     0.0000000
  H       -1.2617080     1.9724600     0.0000090
  H        1.3219030    -1.5822740     0.0000070
  H       -3.6212920     0.8920510    -0.0000010
  H       -3.0881120    -1.8301820    -0.0000070
  H        3.4134050     0.5495780    -0.0000070
  H        3.6371680    -0.9759340    -0.8910250
  H        3.6371640    -0.9759210     0.8910330
units angstrom
no_reorient  #important for SAPT in psi4, default
symmetry c1  #important for SAPT in psi4, default
}

set PROPERTIES_ORIGIN ["COM"]
properties('MP2/aug-cc-pvtz', properties = ['dipole'])
--------------------------------------------------------------------------

    Molecular point group: c1
  Charge       = 0
  Multiplicity = 1
  Basis Set: AUG-CC-PVTZ
    Blend: AUG-CC-PVTZ
  Basis Set: (AUG-CC-PVTZ AUX)
    Blend: AUG-CC-PVTZ-JKFIT

    Orbital Energies [Eh]
    ---------------------

    Doubly Occupied:

       1A    -20.523471     2A    -15.641920     3A    -15.587964
       4A    -15.575054     5A    -11.362267     6A    -11.299013
       7A    -11.282858     8A    -11.260360     9A    -11.252494
      10A     -1.403227    11A     -1.369403    12A     -1.237654
      13A     -1.199515    14A     -1.037317    15A     -0.956988
      16A     -0.860512    17A     -0.843445    18A     -0.803869
      19A     -0.766929    20A     -0.684482    21A     -0.651405
      22A     -0.644214    23A     -0.621147    24A     -0.617540
      25A     -0.584102    26A     -0.567126    27A     -0.547158
      28A     -0.538020    29A     -0.460304    30A     -0.439150
      31A     -0.429812    32A     -0.393911    33A     -0.319445

  @DF-RHF Final Energy:  -431.76787762085513

   => Energetics <=

    Nuclear Repulsion Energy =            435.8239343473345571
    One-Electron Energy =               -1451.6594718811888924
    Two-Electron Energy =                 584.0676599129992610
    Total Energy =                       -431.7678776208550744
  Basis Set: (AUG-CC-PVTZ AUX)
    Blend: AUG-CC-PVTZ-RI
    Molecular point group: c1

    Geometry (in Angstrom), charge = 0, multiplicity = 1:

       Center              X                  Y                   Z               Mass
    ------------   -----------------  -----------------  -----------------  -----------------
         O            1.272675770654     1.574221345814    -0.000004040781    15.994914619570
         N           -1.451915229346     0.961645345814     0.000002959219    14.003074004430
         N            1.775097770654    -0.683024654186    -0.000000040781    14.003074004430
         N           -1.017541229346    -1.225115654186    -0.000000040781    14.003074004430
         C           -0.489829229346     0.000736345814     0.000004959219    12.000000000000
         C            0.936746770654     0.379607345814    -0.000000040781    12.000000000000
         C           -2.525446129346     0.356073945814    -0.000000540781    12.000000000000
         C           -2.373525229346    -1.019678654186    -0.000003040781    12.000000000000
         C            3.215965770654    -0.536390654186    -0.000000040781    12.000000000000
         H           -1.243317229346     1.954827345814     0.000008959219     1.007825032230
         H            1.340293770654    -1.599906654186     0.000006959219     1.007825032230
         H           -3.602901229346     0.874418345814    -0.000001040781     1.007825032230
         H           -3.069721229346    -1.847814654186    -0.000007040781     1.007825032230
         H            3.431795770654     0.531945345814    -0.000007040781     1.007825032230
         H            3.655558770654    -0.993566654186    -0.891025040781     1.007825032230
         H            3.655554770654    -0.993553654186     0.891032959219     1.007825032230

  Basis Set: AUG-CC-PVTZ
    Blend: AUG-CC-PVTZ
  Basis Set: (AUG-CC-PVTZ AUX)
    Blend: AUG-CC-PVTZ-JKFIT
	 Reference Energy          =    -431.7678776208551312 [Eh]
	 Singles Energy            =      -0.0000000000000000 [Eh]
	 Same-Spin Energy          =      -0.4565093666817953 [Eh]
	 Opposite-Spin Energy      =      -1.3785114857253478 [Eh]
	 Correlation Energy        =      -1.8350208524071432 [Eh]
	 Total Energy              =    -433.6028984732622575 [Eh]

	 ================> DF-SCS-MP2 Energies <==================
	-----------------------------------------------------------
	 SCS Same-Spin Scale       =       0.3333333333333333 [-]
	 SCS Opposite-Spin Scale   =       1.2000000000000000 [-]
	 SCS Same-Spin Energy      =      -0.1521697888939318 [Eh]
	 SCS Opposite-Spin Energy  =      -1.6542137828704173 [Eh]
	 SCS Correlation Energy    =      -1.8063835717643490 [Eh]
	 SCS Total Energy          =    -433.5742611926194741 [Eh]
	-----------------------------------------------------------

  Dipole Moment: [D]
     X:    -1.0562      Y:    -0.2771      Z:     0.0000     Total:     1.0919

*** Psi4 exiting successfully. Buy a developer a beer!
