                               Psi4 1.3.2 release

  ==> Input File <==

--------------------------------------------------------------------------
#psi4
#
memory 32 gb

molecule  {
0 1
  O        1.2542850     1.5918540    -0.0000040
  N       -1.5032552     0.9451163     0.0000032
  N        1.7567070    -0.6653920     0.0000000
  N       -1.0359320    -1.2074830     0.0000000
  C       -0.5082200     0.0183690     0.0000050
  C        0.9183560     0.3972400     0.0000000
  C       -2.6868100     0.3502900    -0.0000010
  C       -2.3919160    -1.0020460    -0.0000030
  C        3.1975750    -0.5187580     0.0000000
  H       -1.2617080     1.9724600     0.0000090
  H        1.3219030    -1.5822740     0.0000070
  H       -3.6212920     0.8920510    -0.0000010
  H       -3.0881120    -1.8301820    -0.0000070
  H        3.4134050     0.5495780    -0.0000070
  H        3.6371680    -0.9759340    -0.8910250
  H        3.6371640    -0.9759210     0.8910330
units angstrom
no_reorient  #important for SAPT in psi4, default
symmetry c1  #important for SAPT in psi4, default
}

set PROPERTIES_ORIGIN ["COM"]
properties('MP2/aug-cc-pvtz', properties = ['dipole'])
--------------------------------------------------------------------------

    Molecular point group: c1
  Charge       = 0
  Multiplicity = 1
  Basis Set: AUG-CC-PVTZ
    Blend: AUG-CC-PVTZ
  Basis Set: (AUG-CC-PVTZ AUX)
    Blend: AUG-CC-PVTZ-JKFIT

    Orbital Energies [Eh]
    ---------------------

    Doubly Occupied:

       1A    -20.527301     2A    -15.638969     3A    -15.592175
       4A    -15.570444     5A    -11.367071     6A    -11.305939
       7A    -11.277070     8A    -11.262844     9A    -11.256947
      10A     -1.387900    11A     -1.355781    12A     -1.239732
      13A     -1.179816    14A     -1.040525    15A     -0.962524
      16A     -0.853813    17A     -0.824628    18A     -0.796295
      19A     -0.773236    20A     -0.676548    21A     -0.650326
      22A     -0.640634    23A     -0.611577    24A     -0.603616
      25A     -0.599411    26A     -0.585838    27A     -0.550356
      28A     -0.537967    29A     -0.463102    30A     -0.442039
      31A     -0.418563    32A     -0.395287    33A     -0.326318

  @DF-RHF Final Energy:  -431.79280588273349

   => Energetics <=

    Nuclear Repulsion Energy =            433.1031727293774338
    One-Electron Energy =               -1446.3627737189999607
    Two-Electron Energy =                 581.4667951068889806
    Total Energy =                       -431.7928058827335462
  Basis Set: (AUG-CC-PVTZ AUX)
    Blend: AUG-CC-PVTZ-RI
    Molecular point group: c1

    Geometry (in Angstrom), charge = 0, multiplicity = 1:

       Center              X                  Y                   Z               Mass
    ------------   -----------------  -----------------  -----------------  -----------------
         O            1.290084104484     1.580293428178    -0.000004015198    15.994914619570
         N           -1.467456095516     0.933555728178     0.000003184802    14.003074004430
         N            1.792506104484    -0.676952571822    -0.000000015198    14.003074004430
         N           -1.000132895516    -1.219043571822    -0.000000015198    14.003074004430
         C           -0.472420895516     0.006808428178     0.000004984802    12.000000000000
         C            0.954155104484     0.385679428178    -0.000000015198    12.000000000000
         C           -2.651010895516     0.338729428178    -0.000001015198    12.000000000000
         C           -2.356116895516    -1.013606571822    -0.000003015198    12.000000000000
         C            3.233374104484    -0.530318571822    -0.000000015198    12.000000000000
         H           -1.225908895516     1.960899428178     0.000008984802     1.007825032230
         H            1.357702104484    -1.593834571822     0.000006984802     1.007825032230
         H           -3.585492895516     0.880490428178    -0.000001015198     1.007825032230
         H           -3.052312895516    -1.841742571822    -0.000007015198     1.007825032230
         H            3.449204104484     0.538017428178    -0.000007015198     1.007825032230
         H            3.672967104484    -0.987494571822    -0.891025015198     1.007825032230
         H            3.672963104484    -0.987481571822     0.891032984802     1.007825032230

  Basis Set: AUG-CC-PVTZ
    Blend: AUG-CC-PVTZ
  Basis Set: (AUG-CC-PVTZ AUX)
    Blend: AUG-CC-PVTZ-JKFIT
	 Reference Energy          =    -431.7928058827334894 [Eh]
	 Singles Energy            =      -0.0000000000000000 [Eh]
	 Same-Spin Energy          =      -0.4563909914642431 [Eh]
	 Opposite-Spin Energy      =      -1.3797641437693435 [Eh]
	 Correlation Energy        =      -1.8361551352335868 [Eh]
	 Total Energy              =    -433.6289610179670717 [Eh]

	 ================> DF-SCS-MP2 Energies <==================
	-----------------------------------------------------------
	 SCS Same-Spin Scale       =       0.3333333333333333 [-]
	 SCS Opposite-Spin Scale   =       1.2000000000000000 [-]
	 SCS Same-Spin Energy      =      -0.1521303304880810 [Eh]
	 SCS Opposite-Spin Energy  =      -1.6557169725232121 [Eh]
	 SCS Correlation Energy    =      -1.8078473030112931 [Eh]
	 SCS Total Energy          =    -433.6006531857447612 [Eh]
	-----------------------------------------------------------

  Dipole Moment: [D]
     X:    -0.9805      Y:    -0.2889      Z:     0.0000     Total:     1.0221

*** Psi4 exiting successfully. Buy a developer a beer!
