                               Psi4 1.4a3.dev225

  ==> Input File <==

--------------------------------------------------------------------------
#psi4
#
memory 32 gb

molecule  {
0 1
  O        1.2542850     1.5918540    -0.0000040
  N       -1.4703060     0.9792780     0.0000030
  N        1.7567070    -0.6653920     0.0000000
  N       -1.0359320    -1.2074830     0.0000000
  C       -0.5082200     0.0183690     0.0000050
  C        0.9569980     0.4289701     0.0000000
  C       -2.6868100     0.3502900    -0.0000010
  C       -2.3919160    -1.0020460    -0.0000030
  C        3.1975750    -0.5187580     0.0000000
  H       -1.2617080     1.9724600     0.0000090
  H        1.3219030    -1.5822740     0.0000070
  H       -3.6212920     0.8920510    -0.0000010
  H       -3.0881120    -1.8301820    -0.0000070
  H        3.4134050     0.5495780    -0.0000070
  H        3.6371680    -0.9759340    -0.8910250
  H        3.6371640    -0.9759210     0.8910330
units angstrom
no_reorient  #important for SAPT in psi4, default
symmetry c1  #important for SAPT in psi4, default
}

set PROPERTIES_ORIGIN ["COM"]
properties('MP2/aug-cc-pvtz', properties = ['dipole'])
--------------------------------------------------------------------------

    Molecular point group: c1
  Charge       = 0
  Multiplicity = 1
  Basis Set: AUG-CC-PVTZ
    Blend: AUG-CC-PVTZ
  Basis Set: (AUG-CC-PVTZ AUX)
    Blend: AUG-CC-PVTZ-JKFIT

    Orbital Energies [Eh]
    ---------------------

    Doubly Occupied:

       1A    -20.535859     2A    -15.631953     3A    -15.590767
       4A    -15.566268     5A    -11.367538     6A    -11.308661
       7A    -11.275248     8A    -11.262452     9A    -11.257408
      10A     -1.410588    11A     -1.348303    12A     -1.243292
      13A     -1.176878    14A     -1.030482    15A     -0.959344
      16A     -0.850066    17A     -0.821302    18A     -0.795101
      19A     -0.773752    20A     -0.670615    21A     -0.656350
      22A     -0.640010    23A     -0.612499    24A     -0.606207
      25A     -0.592966    26A     -0.590566    27A     -0.552662
      28A     -0.548537    29A     -0.462723    30A     -0.442430
      31A     -0.416610    32A     -0.398258    33A     -0.325416

  @DF-RHF Final Energy:  -431.79715733123521

   => Energetics <=

    Nuclear Repulsion Energy =            432.5368162086132884
    One-Electron Energy =               -1445.2257256465713908
    Two-Electron Energy =                 580.8917521067228336
    Total Energy =                       -431.7971573312352120
  Basis Set: (AUG-CC-PVTZ AUX)
    Blend: AUG-CC-PVTZ-RI
    Molecular point group: c1

    Geometry (in Angstrom), charge = 0, multiplicity = 1:

       Center              X                  Y                   Z               Mass
    ------------   -----------------  -----------------  -----------------  -----------------
         O            1.282686838089     1.573423625775    -0.000003992803    15.994914619570
         N           -1.441904161911     0.960847625775     0.000003007197    14.003074004430
         N            1.785108838089    -0.683822374225     0.000000007197    14.003074004430
         N           -1.007530161911    -1.225913374225     0.000000007197    14.003074004430
         C           -0.479818161911    -0.000061374225     0.000005007197    12.000000000000
         C            0.985399838089     0.410539725775     0.000000007197    12.000000000000
         C           -2.658408161911     0.331859625775    -0.000000992803    12.000000000000
         C           -2.363514161911    -1.020476374225    -0.000002992803    12.000000000000
         C            3.225976838089    -0.537188374225     0.000000007197    12.000000000000
         H           -1.233306161911     1.954029625775     0.000009007197     1.007825032230
         H            1.350304838089    -1.600704374225     0.000007007197     1.007825032230
         H           -3.592890161911     0.873620625775    -0.000000992803     1.007825032230
         H           -3.059710161911    -1.848612374225    -0.000006992803     1.007825032230
         H            3.441806838089     0.531147625775    -0.000006992803     1.007825032230
         H            3.665569838089    -0.994364374225    -0.891024992803     1.007825032230
         H            3.665565838089    -0.994351374225     0.891033007197     1.007825032230

  Basis Set: AUG-CC-PVTZ
    Blend: AUG-CC-PVTZ
  Basis Set: (AUG-CC-PVTZ AUX)
    Blend: AUG-CC-PVTZ-JKFIT
	 Reference Energy          =    -431.7971573312352120 [Eh]
	 Singles Energy            =      -0.0000000000000000 [Eh]
	 Same-Spin Energy          =      -0.4545251997152262 [Eh]
	 Opposite-Spin Energy      =      -1.3774489101295710 [Eh]
	 Correlation Energy        =      -1.8319741098447972 [Eh]
	 Total Energy              =    -433.6291314410800055 [Eh]

	 ================> DF-SCS-MP2 Energies <==================
	-----------------------------------------------------------
	 SCS Same-Spin Scale       =       0.3333333333333333 [-]
	 SCS Opposite-Spin Scale   =       1.2000000000000000 [-]
	 SCS Same-Spin Energy      =      -0.1515083999050754 [Eh]
	 SCS Opposite-Spin Energy  =      -1.6529386921554852 [Eh]
	 SCS Correlation Energy    =      -1.8044470920605606 [Eh]
	 SCS Total Energy          =    -433.6016044232957825 [Eh]
	-----------------------------------------------------------

  Dipole Moment: [D]
     X:    -0.7057      Y:    -0.1647      Z:     0.0000     Total:     0.7247

*** Psi4 exiting successfully. Buy a developer a beer!
