                               Psi4 1.3.2 release

  ==> Input File <==

--------------------------------------------------------------------------
#psi4
#
memory 32 gb

molecule  {
0 1
  O        1.2542850     1.5918540    -0.0000040
  N       -1.4703060     0.9792780     0.0000030
  N        1.7932816    -0.6354866    -0.0000002
  N       -1.0359320    -1.2074830     0.0000000
  C       -0.5082200     0.0183690     0.0000050
  C        0.9183560     0.3972400     0.0000000
  C       -2.6868100     0.3502900    -0.0000010
  C       -2.3919160    -1.0020460    -0.0000030
  C        3.1975750    -0.5187580     0.0000000
  H       -1.2617080     1.9724600     0.0000090
  H        1.3219030    -1.5822740     0.0000070
  H       -3.6212920     0.8920510    -0.0000010
  H       -3.0881120    -1.8301820    -0.0000070
  H        3.4134050     0.5495780    -0.0000070
  H        3.6371680    -0.9759340    -0.8910250
  H        3.6371640    -0.9759210     0.8910330
units angstrom
no_reorient  #important for SAPT in psi4, default
symmetry c1  #important for SAPT in psi4, default
}

set PROPERTIES_ORIGIN ["COM"]
properties('MP2/aug-cc-pvtz', properties = ['dipole'])
--------------------------------------------------------------------------

    Molecular point group: c1
  Charge       = 0
  Multiplicity = 1
  Basis Set: AUG-CC-PVTZ
    Blend: AUG-CC-PVTZ
  Basis Set: (AUG-CC-PVTZ AUX)
    Blend: AUG-CC-PVTZ-JKFIT

    Orbital Energies [Eh]
    ---------------------

    Doubly Occupied:

       1A    -20.525724     2A    -15.637138     3A    -15.593937
       4A    -15.572624     5A    -11.366304     6A    -11.312743
       7A    -11.281103     8A    -11.261831     9A    -11.259338
      10A     -1.387335    11A     -1.349189    12A     -1.241417
      13A     -1.181923    14A     -1.040885    15A     -0.965130
      16A     -0.857345    17A     -0.825874    18A     -0.795620
      19A     -0.766356    20A     -0.671364    21A     -0.653885
      22A     -0.641562    23A     -0.614874    24A     -0.610714
      25A     -0.600898    26A     -0.587867    27A     -0.542251
      28A     -0.535282    29A     -0.465603    30A     -0.442052
      31A     -0.418621    32A     -0.391925    33A     -0.330086

  @DF-RHF Final Energy:  -431.79281526213498

   => Energetics <=

    Nuclear Repulsion Energy =            432.7080437921470093
    One-Electron Energy =               -1445.5441231019071893
    Two-Electron Energy =                 581.0432640476251436
    Total Energy =                       -431.7928152621350364
  Basis Set: (AUG-CC-PVTZ AUX)
    Blend: AUG-CC-PVTZ-RI
    Molecular point group: c1

    Geometry (in Angstrom), charge = 0, multiplicity = 1:

       Center              X                  Y                   Z               Mass
    ------------   -----------------  -----------------  -----------------  -----------------
         O            1.282299398044     1.573119718371    -0.000003970409    15.994914619570
         N           -1.442291601956     0.960543718371     0.000003029591    14.003074004430
         N            1.821295998044    -0.654220881629    -0.000000170409    14.003074004430
         N           -1.007917601956    -1.226217281629     0.000000029591    14.003074004430
         C           -0.480205601956    -0.000365281629     0.000005029591    12.000000000000
         C            0.946370398044     0.378505718371     0.000000029591    12.000000000000
         C           -2.658795601956     0.331555718371    -0.000000970409    12.000000000000
         C           -2.363901601956    -1.020780281629    -0.000002970409    12.000000000000
         C            3.225589398044    -0.537492281629     0.000000029591    12.000000000000
         H           -1.233693601956     1.953725718371     0.000009029591     1.007825032230
         H            1.349917398044    -1.601008281629     0.000007029591     1.007825032230
         H           -3.593277601956     0.873316718371    -0.000000970409     1.007825032230
         H           -3.060097601956    -1.848916281629    -0.000006970409     1.007825032230
         H            3.441419398044     0.530843718371    -0.000006970409     1.007825032230
         H            3.665182398044    -0.994668281629    -0.891024970409     1.007825032230
         H            3.665178398044    -0.994655281629     0.891033029591     1.007825032230

  Basis Set: AUG-CC-PVTZ
    Blend: AUG-CC-PVTZ
  Basis Set: (AUG-CC-PVTZ AUX)
    Blend: AUG-CC-PVTZ-JKFIT
	 Reference Energy          =    -431.7928152621349795 [Eh]
	 Singles Energy            =      -0.0000000000000000 [Eh]
	 Same-Spin Energy          =      -0.4562354364669282 [Eh]
	 Opposite-Spin Energy      =      -1.3802585387934823 [Eh]
	 Correlation Energy        =      -1.8364939752604104 [Eh]
	 Total Energy              =    -433.6293092373953755 [Eh]

	 ================> DF-SCS-MP2 Energies <==================
	-----------------------------------------------------------
	 SCS Same-Spin Scale       =       0.3333333333333333 [-]
	 SCS Opposite-Spin Scale   =       1.2000000000000000 [-]
	 SCS Same-Spin Energy      =      -0.1520784788223094 [Eh]
	 SCS Opposite-Spin Energy  =      -1.6563102465521786 [Eh]
	 SCS Correlation Energy    =      -1.8083887253744879 [Eh]
	 SCS Total Energy          =    -433.6012039875094501 [Eh]
	-----------------------------------------------------------

  Dipole Moment: [D]
     X:    -1.1134      Y:    -0.4341      Z:     0.0000     Total:     1.1950

*** Psi4 exiting successfully. Buy a developer a beer!
