                               Psi4 1.3.2 release

  ==> Input File <==

--------------------------------------------------------------------------
#psi4
#
memory 32 gb

molecule  {
0 1
  O        1.2542850     1.5918540    -0.0000040
  N       -1.4703060     0.9792780     0.0000030
  N        1.6805394    -0.7212839     0.0000003
  N       -1.0359320    -1.2074830     0.0000000
  C       -0.5082200     0.0183690     0.0000050
  C        0.9183560     0.3972400     0.0000000
  C       -2.6868100     0.3502900    -0.0000010
  C       -2.3919160    -1.0020460    -0.0000030
  C        3.1975750    -0.5187580     0.0000000
  H       -1.2617080     1.9724600     0.0000090
  H        1.3219030    -1.5822740     0.0000070
  H       -3.6212920     0.8920510    -0.0000010
  H       -3.0881120    -1.8301820    -0.0000070
  H        3.4134050     0.5495780    -0.0000070
  H        3.6371680    -0.9759340    -0.8910250
  H        3.6371640    -0.9759210     0.8910330
units angstrom
no_reorient  #important for SAPT in psi4, default
symmetry c1  #important for SAPT in psi4, default
}

set PROPERTIES_ORIGIN ["COM"]
properties('MP2/aug-cc-pvtz', properties = ['dipole'])
--------------------------------------------------------------------------

    Molecular point group: c1
  Charge       = 0
  Multiplicity = 1
  Basis Set: AUG-CC-PVTZ
    Blend: AUG-CC-PVTZ
  Basis Set: (AUG-CC-PVTZ AUX)
    Blend: AUG-CC-PVTZ-JKFIT

    Orbital Energies [Eh]
    ---------------------

    Doubly Occupied:

       1A    -20.532079     2A    -15.632692     3A    -15.589448
       4A    -15.567686     5A    -11.368383     6A    -11.305931
       7A    -11.276945     8A    -11.270428     9A    -11.258461
      10A     -1.386791    11A     -1.345665    12A     -1.240729
      13A     -1.177146    14A     -1.033926    15A     -0.956634
      16A     -0.866397    17A     -0.823573    18A     -0.807090
      19A     -0.778541    20A     -0.665725    21A     -0.645265
      22A     -0.634760    23A     -0.611989    24A     -0.603310
      25A     -0.591265    26A     -0.579111    27A     -0.559517
      28A     -0.539927    29A     -0.462041    30A     -0.442588
      31A     -0.418302    32A     -0.400577    33A     -0.326111

  @DF-RHF Final Energy:  -431.78485168508217

   => Energetics <=

    Nuclear Repulsion Energy =            432.4776985295372356
    One-Electron Energy =               -1445.1270363013084079
    Two-Electron Energy =                 580.8644860866889985
    Total Energy =                       -431.7848516850821170
  Basis Set: (AUG-CC-PVTZ AUX)
    Blend: AUG-CC-PVTZ-RI
    Molecular point group: c1

    Geometry (in Angstrom), charge = 0, multiplicity = 1:

       Center              X                  Y                   Z               Mass
    ------------   -----------------  -----------------  -----------------  -----------------
         O            1.294923347402     1.582726598228    -0.000004026395    15.994914619570
         N           -1.429667652598     0.970150598228     0.000002973605    14.003074004430
         N            1.721177747402    -0.730411301772     0.000000273605    14.003074004430
         N           -0.995293652598    -1.216610401772    -0.000000026395    14.003074004430
         C           -0.467581652598     0.009241598228     0.000004973605    12.000000000000
         C            0.958994347402     0.388112598228    -0.000000026395    12.000000000000
         C           -2.646171652598     0.341162598228    -0.000001026395    12.000000000000
         C           -2.351277652598    -1.011173401772    -0.000003026395    12.000000000000
         C            3.238213347402    -0.527885401772    -0.000000026395    12.000000000000
         H           -1.221069652598     1.963332598228     0.000008973605     1.007825032230
         H            1.362541347402    -1.591401401772     0.000006973605     1.007825032230
         H           -3.580653652598     0.882923598228    -0.000001026395     1.007825032230
         H           -3.047473652598    -1.839309401772    -0.000007026395     1.007825032230
         H            3.454043347402     0.540450598228    -0.000007026395     1.007825032230
         H            3.677806347402    -0.985061401772    -0.891025026395     1.007825032230
         H            3.677802347402    -0.985048401772     0.891032973605     1.007825032230

  Basis Set: AUG-CC-PVTZ
    Blend: AUG-CC-PVTZ
  Basis Set: (AUG-CC-PVTZ AUX)
    Blend: AUG-CC-PVTZ-JKFIT
	 Reference Energy          =    -431.7848516850821738 [Eh]
	 Singles Energy            =      -0.0000000000000000 [Eh]
	 Same-Spin Energy          =      -0.4551826008085385 [Eh]
	 Opposite-Spin Energy      =      -1.3796076482415891 [Eh]
	 Correlation Energy        =      -1.8347902490501276 [Eh]
	 Total Energy              =    -433.6196419341322894 [Eh]

	 ================> DF-SCS-MP2 Energies <==================
	-----------------------------------------------------------
	 SCS Same-Spin Scale       =       0.3333333333333333 [-]
	 SCS Opposite-Spin Scale   =       1.2000000000000000 [-]
	 SCS Same-Spin Energy      =      -0.1517275336028461 [Eh]
	 SCS Opposite-Spin Energy  =      -1.6555291778899068 [Eh]
	 SCS Correlation Energy    =      -1.8072567114927529 [Eh]
	 SCS Total Energy          =    -433.5921083965749290 [Eh]
	-----------------------------------------------------------

  Dipole Moment: [D]
     X:    -0.7112      Y:    -0.3109      Z:     0.0000     Total:     0.7762

*** Psi4 exiting successfully. Buy a developer a beer!
