                               Psi4 1.4a3.dev225

  ==> Input File <==

--------------------------------------------------------------------------
#psi4
#
memory 32 gb

molecule  {
0 1
  O        1.2542850     1.5918540    -0.0000040
  N       -1.4703060     0.9792780     0.0000030
  N        1.7567070    -0.6653920     0.0000000
  N       -1.0359320    -1.2074830     0.0000000
  C       -0.5082200     0.0183690     0.0000050
  C        0.8797140     0.3655099     0.0000000
  C       -2.6868100     0.3502900    -0.0000010
  C       -2.3919160    -1.0020460    -0.0000030
  C        3.1975750    -0.5187580     0.0000000
  H       -1.2617080     1.9724600     0.0000090
  H        1.3219030    -1.5822740     0.0000070
  H       -3.6212920     0.8920510    -0.0000010
  H       -3.0881120    -1.8301820    -0.0000070
  H        3.4134050     0.5495780    -0.0000070
  H        3.6371680    -0.9759340    -0.8910250
  H        3.6371640    -0.9759210     0.8910330
units angstrom
no_reorient  #important for SAPT in psi4, default
symmetry c1  #important for SAPT in psi4, default
}

set PROPERTIES_ORIGIN ["COM"]
properties('MP2/aug-cc-pvtz', properties = ['dipole'])
--------------------------------------------------------------------------

    Molecular point group: c1
  Charge       = 0
  Multiplicity = 1
  Basis Set: AUG-CC-PVTZ
    Blend: AUG-CC-PVTZ
  Basis Set: (AUG-CC-PVTZ AUX)
    Blend: AUG-CC-PVTZ-JKFIT

    Orbital Energies [Eh]
    ---------------------

    Doubly Occupied:

       1A    -20.519743     2A    -15.639283     3A    -15.594304
       4A    -15.575665     5A    -11.365298     6A    -11.310808
       7A    -11.284398     8A    -11.264023     9A    -11.263428
      10A     -1.374433    11A     -1.339718    12A     -1.234555
      13A     -1.183412    14A     -1.047122    15A     -0.964489
      16A     -0.867971    17A     -0.828435    18A     -0.800902
      19A     -0.770012    20A     -0.670270    21A     -0.646714
      22A     -0.639254    23A     -0.614805    24A     -0.609463
      25A     -0.601104    26A     -0.580035    27A     -0.546971
      28A     -0.526187    29A     -0.467213    30A     -0.438213
      31A     -0.419922    32A     -0.391087    33A     -0.331853

  @DF-RHF Final Energy:  -431.78909571358145

   => Energetics <=

    Nuclear Repulsion Energy =            432.6836700162828606
    One-Electron Energy =               -1445.5233519420405628
    Two-Electron Energy =                 581.0505862121763130
    Total Energy =                       -431.7890957135814460
  Basis Set: (AUG-CC-PVTZ AUX)
    Blend: AUG-CC-PVTZ-RI
    Molecular point group: c1

    Geometry (in Angstrom), charge = 0, multiplicity = 1:

       Center              X                  Y                   Z               Mass
    ------------   -----------------  -----------------  -----------------  -----------------
         O            1.290102607076     1.579512935115    -0.000003992803    15.994914619570
         N           -1.434488392924     0.966936935115     0.000003007197    14.003074004430
         N            1.792524607076    -0.677733064885     0.000000007197    14.003074004430
         N           -1.000114392924    -1.219824064885     0.000000007197    14.003074004430
         C           -0.472402392924     0.006027935115     0.000005007197    12.000000000000
         C            0.915531607076     0.353168835115     0.000000007197    12.000000000000
         C           -2.650992392924     0.337948935115    -0.000000992803    12.000000000000
         C           -2.356098392924    -1.014387064885    -0.000002992803    12.000000000000
         C            3.233392607076    -0.531099064885     0.000000007197    12.000000000000
         H           -1.225890392924     1.960118935115     0.000009007197     1.007825032230
         H            1.357720607076    -1.594615064885     0.000007007197     1.007825032230
         H           -3.585474392924     0.879709935115    -0.000000992803     1.007825032230
         H           -3.052294392924    -1.842523064885    -0.000006992803     1.007825032230
         H            3.449222607076     0.537236935115    -0.000006992803     1.007825032230
         H            3.672985607076    -0.988275064885    -0.891024992803     1.007825032230
         H            3.672981607076    -0.988262064885     0.891033007197     1.007825032230

  Basis Set: AUG-CC-PVTZ
    Blend: AUG-CC-PVTZ
  Basis Set: (AUG-CC-PVTZ AUX)
    Blend: AUG-CC-PVTZ-JKFIT
	 Reference Energy          =    -431.7890957135814460 [Eh]
	 Singles Energy            =      -0.0000000000000000 [Eh]
	 Same-Spin Energy          =      -0.4571290119634592 [Eh]
	 Opposite-Spin Energy      =      -1.3822179946117628 [Eh]
	 Correlation Energy        =      -1.8393470065752220 [Eh]
	 Total Energy              =    -433.6284427201566700 [Eh]

	 ================> DF-SCS-MP2 Energies <==================
	-----------------------------------------------------------
	 SCS Same-Spin Scale       =       0.3333333333333333 [-]
	 SCS Opposite-Spin Scale   =       1.2000000000000000 [-]
	 SCS Same-Spin Energy      =      -0.1523763373211531 [Eh]
	 SCS Opposite-Spin Energy  =      -1.6586615935341154 [Eh]
	 SCS Correlation Energy    =      -1.8110379308552684 [Eh]
	 SCS Total Energy          =    -433.6001336444367098 [Eh]
	-----------------------------------------------------------

  Dipole Moment: [D]
     X:    -1.2384      Y:    -0.6122      Z:     0.0000     Total:     1.3815

*** Psi4 exiting successfully. Buy a developer a beer!
