                               Psi4 1.3.2 release

  ==> Input File <==

--------------------------------------------------------------------------
#psi4
#
memory 32 gb

molecule  {
0 1
  O        1.2542850     1.5918540    -0.0000040
  N       -1.4703060     0.9792780     0.0000030
  N        1.7567070    -0.6653920     0.0000000
  N       -1.0359320    -1.2074830     0.0000000
  C       -0.5082200     0.0183690     0.0000050
  C        0.9183560     0.3972400     0.0000000
  C       -2.6143987     0.2265764    -0.0000017
  C       -2.3919160    -1.0020460    -0.0000030
  C        3.1975750    -0.5187580     0.0000000
  H       -1.2617080     1.9724600     0.0000090
  H        1.3219030    -1.5822740     0.0000070
  H       -3.6212920     0.8920510    -0.0000010
  H       -3.0881120    -1.8301820    -0.0000070
  H        3.4134050     0.5495780    -0.0000070
  H        3.6371680    -0.9759340    -0.8910250
  H        3.6371640    -0.9759210     0.8910330
units angstrom
no_reorient  #important for SAPT in psi4, default
symmetry c1  #important for SAPT in psi4, default
}

set PROPERTIES_ORIGIN ["COM"]
properties('MP2/aug-cc-pvtz', properties = ['dipole'])
--------------------------------------------------------------------------

    Molecular point group: c1
  Charge       = 0
  Multiplicity = 1
  Basis Set: AUG-CC-PVTZ
    Blend: AUG-CC-PVTZ
  Basis Set: (AUG-CC-PVTZ AUX)
    Blend: AUG-CC-PVTZ-JKFIT

    Orbital Energies [Eh]
    ---------------------

    Doubly Occupied:

       1A    -20.529741     2A    -15.627228     3A    -15.593123
       4A    -15.565872     5A    -11.366985     6A    -11.312281
       7A    -11.271835     8A    -11.263340     9A    -11.240716
      10A     -1.389717    11A     -1.356482    12A     -1.240359
      13A     -1.178488    14A     -1.053789    15A     -0.966279
      16A     -0.865715    17A     -0.826180    18A     -0.789643
      19A     -0.765520    20A     -0.672992    21A     -0.645996
      22A     -0.641780    23A     -0.633616    24A     -0.612955
      25A     -0.588283    26A     -0.557222    27A     -0.549686
      28A     -0.539373    29A     -0.461134    30A     -0.442878
      31A     -0.416437    32A     -0.396318    33A     -0.349601

  @DF-RHF Final Energy:  -431.76791404020884

   => Energetics <=

    Nuclear Repulsion Energy =            435.1407261505814859
    One-Electron Energy =               -1450.3941552053117903
    Two-Electron Energy =                 583.4855150145215248
    Total Energy =                       -431.7679140402087796
  Basis Set: (AUG-CC-PVTZ AUX)
    Blend: AUG-CC-PVTZ-RI
    Molecular point group: c1

    Geometry (in Angstrom), charge = 0, multiplicity = 1:

       Center              X                  Y                   Z               Mass
    ------------   -----------------  -----------------  -----------------  -----------------
         O            1.279446512438     1.588339191346    -0.000003925635    15.994914619570
         N           -1.445144487562     0.975763191346     0.000003074365    14.003074004430
         N            1.781868512438    -0.668906808654     0.000000074365    14.003074004430
         N           -1.010770487562    -1.210997808654     0.000000074365    14.003074004430
         C           -0.483058487562     0.014854191346     0.000005074365    12.000000000000
         C            0.943517512438     0.393725191346     0.000000074365    12.000000000000
         C           -2.589237187562     0.223061591346    -0.000001625635    12.000000000000
         C           -2.366754487562    -1.005560808654    -0.000002925635    12.000000000000
         C            3.222736512438    -0.522272808654     0.000000074365    12.000000000000
         H           -1.236546487562     1.968945191346     0.000009074365     1.007825032230
         H            1.347064512438    -1.585788808654     0.000007074365     1.007825032230
         H           -3.596130487562     0.888536191346    -0.000000925635     1.007825032230
         H           -3.062950487562    -1.833696808654    -0.000006925635     1.007825032230
         H            3.438566512438     0.546063191346    -0.000006925635     1.007825032230
         H            3.662329512438    -0.979448808654    -0.891024925635     1.007825032230
         H            3.662325512438    -0.979435808654     0.891033074365     1.007825032230

  Basis Set: AUG-CC-PVTZ
    Blend: AUG-CC-PVTZ
  Basis Set: (AUG-CC-PVTZ AUX)
    Blend: AUG-CC-PVTZ-JKFIT
	 Reference Energy          =    -431.7679140402088365 [Eh]
	 Singles Energy            =      -0.0000000000000000 [Eh]
	 Same-Spin Energy          =      -0.4545605478145008 [Eh]
	 Opposite-Spin Energy      =      -1.3781383306944588 [Eh]
	 Correlation Energy        =      -1.8326988785089595 [Eh]
	 Total Energy              =    -433.6006129187177862 [Eh]

	 ================> DF-SCS-MP2 Energies <==================
	-----------------------------------------------------------
	 SCS Same-Spin Scale       =       0.3333333333333333 [-]
	 SCS Opposite-Spin Scale   =       1.2000000000000000 [-]
	 SCS Same-Spin Energy      =      -0.1515201826048336 [Eh]
	 SCS Opposite-Spin Energy  =      -1.6537659968333505 [Eh]
	 SCS Correlation Energy    =      -1.8052861794381840 [Eh]
	 SCS Total Energy          =    -433.5732002196469921 [Eh]
	-----------------------------------------------------------

  Dipole Moment: [D]
     X:    -0.8729      Y:    -0.5046      Z:     0.0000     Total:     1.0083

*** Psi4 exiting successfully. Buy a developer a beer!
