                               Psi4 1.3.2 release

  ==> Input File <==

--------------------------------------------------------------------------
#psi4
#
memory 32 gb

molecule  {
0 1
  O        1.2542850     1.5918540    -0.0000040
  N       -1.4703060     0.9792780     0.0000030
  N        1.7751248    -0.6505989    -0.0000001
  N       -1.0359320    -1.2074830     0.0000000
  C       -0.5082200     0.0183690     0.0000050
  C        0.9183560     0.3972400     0.0000000
  C       -2.6868100     0.3502900    -0.0000010
  C       -2.3919160    -1.0020460    -0.0000030
  C        3.1975750    -0.5187580     0.0000000
  H       -1.2617080     1.9724600     0.0000090
  H        1.3219030    -1.5822740     0.0000070
  H       -3.6212920     0.8920510    -0.0000010
  H       -3.0881120    -1.8301820    -0.0000070
  H        3.4134050     0.5495780    -0.0000070
  H        3.6371680    -0.9759340    -0.8910250
  H        3.6371640    -0.9759210     0.8910330
units angstrom
no_reorient  #important for SAPT in psi4, default
symmetry c1  #important for SAPT in psi4, default
}

set PROPERTIES_ORIGIN ["COM"]
properties('MP2/aug-cc-pvtz', properties = ['dipole'])
--------------------------------------------------------------------------

    Molecular point group: c1
  Charge       = 0
  Multiplicity = 1
  Basis Set: AUG-CC-PVTZ
    Blend: AUG-CC-PVTZ
  Basis Set: (AUG-CC-PVTZ AUX)
    Blend: AUG-CC-PVTZ-JKFIT

    Orbital Energies [Eh]
    ---------------------

    Doubly Occupied:

       1A    -20.526694     2A    -15.636385     3A    -15.593258
       4A    -15.571797     5A    -11.366342     6A    -11.311577
       7A    -11.280398     8A    -11.261258     9A    -11.261138
      10A     -1.387067    11A     -1.348543    12A     -1.240500
      13A     -1.181091    14A     -1.039695    15A     -0.963578
      16A     -0.857830    17A     -0.825368    18A     -0.796246
      19A     -0.769753    20A     -0.669976    21A     -0.652473
      22A     -0.640167    23A     -0.614351    24A     -0.609414
      25A     -0.598643    26A     -0.587213    27A     -0.546639
      28A     -0.535954    29A     -0.465041    30A     -0.442271
      31A     -0.418317    32A     -0.393676    33A     -0.329421

  @DF-RHF Final Energy:  -431.79565506582526

   => Energetics <=

    Nuclear Repulsion Energy =            432.6436490173896914
    One-Electron Energy =               -1445.4344665037324376
    Two-Electron Energy =                 580.9951624205175449
    Total Energy =                       -431.7956550658252581
  Basis Set: (AUG-CC-PVTZ AUX)
    Blend: AUG-CC-PVTZ-RI
    Molecular point group: c1

    Geometry (in Angstrom), charge = 0, multiplicity = 1:

       Center              X                  Y                   Z               Mass
    ------------   -----------------  -----------------  -----------------  -----------------
         O            1.284332447991     1.574811870110    -0.000003981606    15.994914619570
         N           -1.440258552009     0.962235870110     0.000003018394    14.003074004430
         N            1.805172247991    -0.667641029890    -0.000000081606    14.003074004430
         N           -1.005884552009    -1.224525129890     0.000000018394    14.003074004430
         C           -0.478172552009     0.001326870110     0.000005018394    12.000000000000
         C            0.948403447991     0.380197870110     0.000000018394    12.000000000000
         C           -2.656762552009     0.333247870110    -0.000000981606    12.000000000000
         C           -2.361868552009    -1.019088129890    -0.000002981606    12.000000000000
         C            3.227622447991    -0.535800129890     0.000000018394    12.000000000000
         H           -1.231660552009     1.955417870110     0.000009018394     1.007825032230
         H            1.351950447991    -1.599316129890     0.000007018394     1.007825032230
         H           -3.591244552009     0.875008870110    -0.000000981606     1.007825032230
         H           -3.058064552009    -1.847224129890    -0.000006981606     1.007825032230
         H            3.443452447991     0.532535870110    -0.000006981606     1.007825032230
         H            3.667215447991    -0.992976129890    -0.891024981606     1.007825032230
         H            3.667211447991    -0.992963129890     0.891033018394     1.007825032230

  Basis Set: AUG-CC-PVTZ
    Blend: AUG-CC-PVTZ
  Basis Set: (AUG-CC-PVTZ AUX)
    Blend: AUG-CC-PVTZ-JKFIT
	 Reference Energy          =    -431.7956550658252581 [Eh]
	 Singles Energy            =      -0.0000000000000000 [Eh]
	 Same-Spin Energy          =      -0.4559559515264585 [Eh]
	 Opposite-Spin Energy      =      -1.3798902722095860 [Eh]
	 Correlation Energy        =      -1.8358462237360444 [Eh]
	 Total Energy              =    -433.6315012895612995 [Eh]

	 ================> DF-SCS-MP2 Energies <==================
	-----------------------------------------------------------
	 SCS Same-Spin Scale       =       0.3333333333333333 [-]
	 SCS Opposite-Spin Scale   =       1.2000000000000000 [-]
	 SCS Same-Spin Energy      =      -0.1519853171754862 [Eh]
	 SCS Opposite-Spin Energy  =      -1.6558683266515033 [Eh]
	 SCS Correlation Energy    =      -1.8078536438269894 [Eh]
	 SCS Total Energy          =    -433.6035087096522602 [Eh]
	-----------------------------------------------------------

  Dipole Moment: [D]
     X:    -1.0449      Y:    -0.4176      Z:     0.0000     Total:     1.1252

*** Psi4 exiting successfully. Buy a developer a beer!
