                               Psi4 1.3.2 release

  ==> Input File <==

--------------------------------------------------------------------------
#psi4
#
memory 32 gb

molecule  {
0 1
  O        1.1275736     1.6204239    -0.0000037
  N       -1.4703060     0.9792780     0.0000030
  N        1.7567070    -0.6653920     0.0000000
  N       -1.0359320    -1.2074830     0.0000000
  C       -0.5082200     0.0183690     0.0000050
  C        0.9183560     0.3972400     0.0000000
  C       -2.6868100     0.3502900    -0.0000010
  C       -2.3919160    -1.0020460    -0.0000030
  C        3.1975750    -0.5187580     0.0000000
  H       -1.2617080     1.9724600     0.0000090
  H        1.3219030    -1.5822740     0.0000070
  H       -3.6212920     0.8920510    -0.0000010
  H       -3.0881120    -1.8301820    -0.0000070
  H        3.4134050     0.5495780    -0.0000070
  H        3.6371680    -0.9759340    -0.8910250
  H        3.6371640    -0.9759210     0.8910330
units angstrom
no_reorient  #important for SAPT in psi4, default
symmetry c1  #important for SAPT in psi4, default
}

set PROPERTIES_ORIGIN ["COM"]
properties('MP2/aug-cc-pvtz', properties = ['dipole'])
--------------------------------------------------------------------------

    Molecular point group: c1
  Charge       = 0
  Multiplicity = 1
  Basis Set: AUG-CC-PVTZ
    Blend: AUG-CC-PVTZ
  Basis Set: (AUG-CC-PVTZ AUX)
    Blend: AUG-CC-PVTZ-JKFIT

    Orbital Energies [Eh]
    ---------------------

    Doubly Occupied:

       1A    -20.530293     2A    -15.630278     3A    -15.599219
       4A    -15.566292     5A    -11.368314     6A    -11.304510
       7A    -11.275616     8A    -11.268088     9A    -11.256636
      10A     -1.388649    11A     -1.342847    12A     -1.247816
      13A     -1.175988    14A     -1.034185    15A     -0.964675
      16A     -0.856552    17A     -0.820422    18A     -0.795992
      19A     -0.775075    20A     -0.667959    21A     -0.653946
      22A     -0.640254    23A     -0.609563    24A     -0.607594
      25A     -0.593971    26A     -0.586053    27A     -0.557019
      28A     -0.538526    29A     -0.460661    30A     -0.441710
      31A     -0.416248    32A     -0.398849    33A     -0.324576

  @DF-RHF Final Energy:  -431.79370928086900

   => Energetics <=

    Nuclear Repulsion Energy =            433.1242837928554081
    One-Electron Energy =               -1446.4392330000791844
    Two-Electron Energy =                 581.5212399263548377
    Total Energy =                       -431.7937092808689385
  Basis Set: (AUG-CC-PVTZ AUX)
    Blend: AUG-CC-PVTZ-RI
    Molecular point group: c1

    Geometry (in Angstrom), charge = 0, multiplicity = 1:

       Center              X                  Y                   Z               Mass
    ------------   -----------------  -----------------  -----------------  -----------------
         O            1.175889588847     1.601384117697    -0.000003731173    15.994914619570
         N           -1.421990011153     0.960238217697     0.000002968827    14.003074004430
         N            1.805022988847    -0.684431782303    -0.000000031173    14.003074004430
         N           -0.987616011153    -1.226522782303    -0.000000031173    14.003074004430
         C           -0.459904011153    -0.000670782303     0.000004968827    12.000000000000
         C            0.966671988847     0.378200217697    -0.000000031173    12.000000000000
         C           -2.638494011153     0.331250217697    -0.000001031173    12.000000000000
         C           -2.343600011153    -1.021085782303    -0.000003031173    12.000000000000
         C            3.245890988847    -0.537797782303    -0.000000031173    12.000000000000
         H           -1.213392011153     1.953420217697     0.000008968827     1.007825032230
         H            1.370218988847    -1.601313782303     0.000006968827     1.007825032230
         H           -3.572976011153     0.873011217697    -0.000001031173     1.007825032230
         H           -3.039796011153    -1.849221782303    -0.000007031173     1.007825032230
         H            3.461720988847     0.530538217697    -0.000007031173     1.007825032230
         H            3.685483988847    -0.994973782303    -0.891025031173     1.007825032230
         H            3.685479988847    -0.994960782303     0.891032968827     1.007825032230

  Basis Set: AUG-CC-PVTZ
    Blend: AUG-CC-PVTZ
  Basis Set: (AUG-CC-PVTZ AUX)
    Blend: AUG-CC-PVTZ-JKFIT
	 Reference Energy          =    -431.7937092808689954 [Eh]
	 Singles Energy            =      -0.0000000000000000 [Eh]
	 Same-Spin Energy          =      -0.4556578727157234 [Eh]
	 Opposite-Spin Energy      =      -1.3796724662049862 [Eh]
	 Correlation Energy        =      -1.8353303389207096 [Eh]
	 Total Energy              =    -433.6290396197896939 [Eh]

	 ================> DF-SCS-MP2 Energies <==================
	-----------------------------------------------------------
	 SCS Same-Spin Scale       =       0.3333333333333333 [-]
	 SCS Opposite-Spin Scale   =       1.2000000000000000 [-]
	 SCS Same-Spin Energy      =      -0.1518859575719078 [Eh]
	 SCS Opposite-Spin Energy  =      -1.6556069594459835 [Eh]
	 SCS Correlation Energy    =      -1.8074929170178913 [Eh]
	 SCS Total Energy          =    -433.6012021978868916 [Eh]
	-----------------------------------------------------------

  Dipole Moment: [D]
     X:    -0.4863      Y:    -0.4444      Z:     0.0000     Total:     0.6588

*** Psi4 exiting successfully. Buy a developer a beer!
