                               Psi4 1.3.2 release

  ==> Input File <==

--------------------------------------------------------------------------
#psi4
#
memory 32 gb

molecule  {
0 1
  O        1.2542850     1.5918540    -0.0000040
  N       -1.4703060     0.9792780     0.0000030
  N        1.7567070    -0.6653920     0.0000000
  N       -1.0359320    -1.2074830     0.0000000
  C       -0.4657599    -0.0007946     0.0000051
  C        0.9183560     0.3972400     0.0000000
  C       -2.6868100     0.3502900    -0.0000010
  C       -2.3919160    -1.0020460    -0.0000030
  C        3.1975750    -0.5187580     0.0000000
  H       -1.2617080     1.9724600     0.0000090
  H        1.3219030    -1.5822740     0.0000070
  H       -3.6212920     0.8920510    -0.0000010
  H       -3.0881120    -1.8301820    -0.0000070
  H        3.4134050     0.5495780    -0.0000070
  H        3.6371680    -0.9759340    -0.8910250
  H        3.6371640    -0.9759210     0.8910330
units angstrom
no_reorient  #important for SAPT in psi4, default
symmetry c1  #important for SAPT in psi4, default
}

set PROPERTIES_ORIGIN ["COM"]
properties('MP2/aug-cc-pvtz', properties = ['dipole'])
--------------------------------------------------------------------------

    Molecular point group: c1
  Charge       = 0
  Multiplicity = 1
  Basis Set: AUG-CC-PVTZ
    Blend: AUG-CC-PVTZ
  Basis Set: (AUG-CC-PVTZ AUX)
    Blend: AUG-CC-PVTZ-JKFIT

    Orbital Energies [Eh]
    ---------------------

    Doubly Occupied:

       1A    -20.527244     2A    -15.633980     3A    -15.591739
       4A    -15.575442     5A    -11.364516     6A    -11.311197
       7A    -11.284081     8A    -11.262444     9A    -11.260952
      10A     -1.386042    11A     -1.339104    12A     -1.240522
      13A     -1.176306    14A     -1.042258    15A     -0.963016
      16A     -0.864541    17A     -0.824458    18A     -0.789564
      19A     -0.771691    20A     -0.672027    21A     -0.651963
      22A     -0.638055    23A     -0.610534    24A     -0.603680
      25A     -0.596002    26A     -0.589969    27A     -0.550229
      28A     -0.536346    29A     -0.462310    30A     -0.444128
      31A     -0.417940    32A     -0.395059    33A     -0.328076

  @DF-RHF Final Energy:  -431.79121652520911

   => Energetics <=

    Nuclear Repulsion Energy =            432.4481569648418713
    One-Electron Energy =               -1445.0679159830963272
    Two-Electron Energy =                 580.8285424930452336
    Total Energy =                       -431.7912165252091654
  Basis Set: (AUG-CC-PVTZ AUX)
    Blend: AUG-CC-PVTZ-RI
    Molecular point group: c1

    Geometry (in Angstrom), charge = 0, multiplicity = 1:

       Center              X                  Y                   Z               Mass
    ------------   -----------------  -----------------  -----------------  -----------------
         O            1.282320473155     1.578307119410    -0.000004002399    15.994914619570
         N           -1.442270526845     0.965731119410     0.000002997601    14.003074004430
         N            1.784742473155    -0.678938880590    -0.000000002399    14.003074004430
         N           -1.007896526845    -1.221029880590    -0.000000002399    14.003074004430
         C           -0.437724426845    -0.014341480590     0.000005097601    12.000000000000
         C            0.946391473155     0.383693119410    -0.000000002399    12.000000000000
         C           -2.658774526845     0.336743119410    -0.000001002399    12.000000000000
         C           -2.363880526845    -1.015592880590    -0.000003002399    12.000000000000
         C            3.225610473155    -0.532304880590    -0.000000002399    12.000000000000
         H           -1.233672526845     1.958913119410     0.000008997601     1.007825032230
         H            1.349938473155    -1.595820880590     0.000006997601     1.007825032230
         H           -3.593256526845     0.878504119410    -0.000001002399     1.007825032230
         H           -3.060076526845    -1.843728880590    -0.000007002399     1.007825032230
         H            3.441440473155     0.536031119410    -0.000007002399     1.007825032230
         H            3.665203473155    -0.989480880590    -0.891025002399     1.007825032230
         H            3.665199473155    -0.989467880590     0.891032997601     1.007825032230

  Basis Set: AUG-CC-PVTZ
    Blend: AUG-CC-PVTZ
  Basis Set: (AUG-CC-PVTZ AUX)
    Blend: AUG-CC-PVTZ-JKFIT
	 Reference Energy          =    -431.7912165252091086 [Eh]
	 Singles Energy            =      -0.0000000000000000 [Eh]
	 Same-Spin Energy          =      -0.4566487533847228 [Eh]
	 Opposite-Spin Energy      =      -1.3813164549156340 [Eh]
	 Correlation Energy        =      -1.8379652083003568 [Eh]
	 Total Energy              =    -433.6291817335094834 [Eh]

	 ================> DF-SCS-MP2 Energies <==================
	-----------------------------------------------------------
	 SCS Same-Spin Scale       =       0.3333333333333333 [-]
	 SCS Opposite-Spin Scale   =       1.2000000000000000 [-]
	 SCS Same-Spin Energy      =      -0.1522162511282409 [Eh]
	 SCS Opposite-Spin Energy  =      -1.6575797458987609 [Eh]
	 SCS Correlation Energy    =      -1.8097959970270019 [Eh]
	 SCS Total Energy          =    -433.6010125222360898 [Eh]
	-----------------------------------------------------------

  Dipole Moment: [D]
     X:    -1.0406      Y:    -0.4662      Z:     0.0000     Total:     1.1403

*** Psi4 exiting successfully. Buy a developer a beer!
