                               Psi4 1.3.2 release

  ==> Input File <==

--------------------------------------------------------------------------
#psi4
#
memory 32 gb

molecule  {
0 1
  O        1.2542850     1.5918540    -0.0000040
  N       -1.4703060     0.9792780     0.0000030
  N        1.7567070    -0.6653920     0.0000000
  N       -1.0249045    -1.1123939     0.0000003
  C       -0.5082200     0.0183690     0.0000050
  C        0.9183560     0.3972400     0.0000000
  C       -2.6868100     0.3502900    -0.0000010
  C       -2.3919160    -1.0020460    -0.0000030
  C        3.1975750    -0.5187580     0.0000000
  H       -1.2617080     1.9724600     0.0000090
  H        1.3219030    -1.5822740     0.0000070
  H       -3.6212920     0.8920510    -0.0000010
  H       -3.0881120    -1.8301820    -0.0000070
  H        3.4134050     0.5495780    -0.0000070
  H        3.6371680    -0.9759340    -0.8910250
  H        3.6371640    -0.9759210     0.8910330
units angstrom
no_reorient  #important for SAPT in psi4, default
symmetry c1  #important for SAPT in psi4, default
}

set PROPERTIES_ORIGIN ["COM"]
properties('MP2/aug-cc-pvtz', properties = ['dipole'])
--------------------------------------------------------------------------

    Molecular point group: c1
  Charge       = 0
  Multiplicity = 1
  Basis Set: AUG-CC-PVTZ
    Blend: AUG-CC-PVTZ
  Basis Set: (AUG-CC-PVTZ AUX)
    Blend: AUG-CC-PVTZ-JKFIT

    Orbital Energies [Eh]
    ---------------------

    Doubly Occupied:

       1A    -20.527410     2A    -15.623172     3A    -15.592340
       4A    -15.556302     5A    -11.364922     6A    -11.297374
       7A    -11.280444     8A    -11.262885     9A    -11.258167
      10A     -1.390131    11A     -1.358340    12A     -1.239890
      13A     -1.185389    14A     -1.043076    15A     -0.963200
      16A     -0.852646    17A     -0.832080    18A     -0.793841
      19A     -0.773901    20A     -0.674507    21A     -0.650634
      22A     -0.642325    23A     -0.611391    24A     -0.609842
      25A     -0.605308    26A     -0.588726    27A     -0.550365
      28A     -0.536107    29A     -0.461670    30A     -0.433416
      31A     -0.421070    32A     -0.394753    33A     -0.333803

  @DF-RHF Final Energy:  -431.79474284693356

   => Energetics <=

    Nuclear Repulsion Energy =            435.1322190676768287
    One-Electron Energy =               -1450.4350694097111045
    Two-Electron Energy =                 583.5081074951007167
    Total Energy =                       -431.7947428469335591
  Basis Set: (AUG-CC-PVTZ AUX)
    Blend: AUG-CC-PVTZ-RI
    Molecular point group: c1

    Geometry (in Angstrom), charge = 0, multiplicity = 1:

       Center              X                  Y                   Z               Mass
    ------------   -----------------  -----------------  -----------------  -----------------
         O            1.285159953334     1.565820980828    -0.000004026395    15.994914619570
         N           -1.439431046666     0.953244980828     0.000002973605    14.003074004430
         N            1.787581953334    -0.691425019172    -0.000000026395    14.003074004430
         N           -0.994029546666    -1.138426919172     0.000000273605    14.003074004430
         C           -0.477345046666    -0.007664019172     0.000004973605    12.000000000000
         C            0.949230953334     0.371206980828    -0.000000026395    12.000000000000
         C           -2.655935046666     0.324256980828    -0.000001026395    12.000000000000
         C           -2.361041046666    -1.028079019172    -0.000003026395    12.000000000000
         C            3.228449953334    -0.544791019172    -0.000000026395    12.000000000000
         H           -1.230833046666     1.946426980828     0.000008973605     1.007825032230
         H            1.352777953334    -1.608307019172     0.000006973605     1.007825032230
         H           -3.590417046666     0.866017980828    -0.000001026395     1.007825032230
         H           -3.057237046666    -1.856215019172    -0.000007026395     1.007825032230
         H            3.444279953334     0.523544980828    -0.000007026395     1.007825032230
         H            3.668042953334    -1.001967019172    -0.891025026395     1.007825032230
         H            3.668038953334    -1.001954019172     0.891032973605     1.007825032230

  Basis Set: AUG-CC-PVTZ
    Blend: AUG-CC-PVTZ
  Basis Set: (AUG-CC-PVTZ AUX)
    Blend: AUG-CC-PVTZ-JKFIT
	 Reference Energy          =    -431.7947428469335591 [Eh]
	 Singles Energy            =      -0.0000000000000000 [Eh]
	 Same-Spin Energy          =      -0.4538324637499865 [Eh]
	 Opposite-Spin Energy      =      -1.3755905857335189 [Eh]
	 Correlation Energy        =      -1.8294230494835055 [Eh]
	 Total Energy              =    -433.6241658964170824 [Eh]

	 ================> DF-SCS-MP2 Energies <==================
	-----------------------------------------------------------
	 SCS Same-Spin Scale       =       0.3333333333333333 [-]
	 SCS Opposite-Spin Scale   =       1.2000000000000000 [-]
	 SCS Same-Spin Energy      =      -0.1512774879166622 [Eh]
	 SCS Opposite-Spin Energy  =      -1.6507087028802225 [Eh]
	 SCS Correlation Energy    =      -1.8019861907968848 [Eh]
	 SCS Total Energy          =    -433.5967290377304266 [Eh]
	-----------------------------------------------------------

  Dipole Moment: [D]
     X:    -0.8970      Y:    -0.6387      Z:     0.0000     Total:     1.1012

*** Psi4 exiting successfully. Buy a developer a beer!
