                               Psi4 1.4a3.dev225

  ==> Input File <==

--------------------------------------------------------------------------
#psi4
#
memory 32 gb

molecule  {
0 1
  O        1.2542850     1.5918540    -0.0000040
  N       -1.4703060     0.9792780     0.0000030
  N        1.7567070    -0.6653920     0.0000000
  N       -1.0359320    -1.2074830     0.0000000
  C       -0.5161281    -0.0000011     0.0000049
  C        0.9183560     0.3972400     0.0000000
  C       -2.6868100     0.3502900    -0.0000010
  C       -2.3919160    -1.0020460    -0.0000030
  C        3.1975750    -0.5187580     0.0000000
  H       -1.2617080     1.9724600     0.0000090
  H        1.3219030    -1.5822740     0.0000070
  H       -3.6212920     0.8920510    -0.0000010
  H       -3.0881120    -1.8301820    -0.0000070
  H        3.4134050     0.5495780    -0.0000070
  H        3.6371680    -0.9759340    -0.8910250
  H        3.6371640    -0.9759210     0.8910330
units angstrom
no_reorient  #important for SAPT in psi4, default
symmetry c1  #important for SAPT in psi4, default
}

set PROPERTIES_ORIGIN ["COM"]
properties('MP2/aug-cc-pvtz', properties = ['dipole'])
--------------------------------------------------------------------------

    Molecular point group: c1
  Charge       = 0
  Multiplicity = 1
  Basis Set: AUG-CC-PVTZ
    Blend: AUG-CC-PVTZ
  Basis Set: (AUG-CC-PVTZ AUX)
    Blend: AUG-CC-PVTZ-JKFIT

    Orbital Energies [Eh]
    ---------------------

    Doubly Occupied:

       1A    -20.528351     2A    -15.633141     3A    -15.592676
       4A    -15.570137     5A    -11.367215     6A    -11.310298
       7A    -11.279722     8A    -11.262991     9A    -11.259851
      10A     -1.386560    11A     -1.348936    12A     -1.240090
      13A     -1.183685    14A     -1.036915    15A     -0.961930
      16A     -0.856539    17A     -0.825592    18A     -0.796352
      19A     -0.772519    20A     -0.668442    21A     -0.650882
      22A     -0.638685    23A     -0.614271    24A     -0.608359
      25A     -0.596426    26A     -0.585025    27A     -0.550645
      28A     -0.536633    29A     -0.467059    30A     -0.441313
      31A     -0.420039    32A     -0.395579    33A     -0.329182

  @DF-RHF Final Energy:  -431.79753589970710

   => Energetics <=

    Nuclear Repulsion Energy =            432.6275153611733231
    One-Electron Energy =               -1445.4180269678170134
    Two-Electron Energy =                 580.9929757069365905
    Total Energy =                       -431.7975358997070998
  Basis Set: (AUG-CC-PVTZ AUX)
    Blend: AUG-CC-PVTZ-RI
    Molecular point group: c1

    Geometry (in Angstrom), charge = 0, multiplicity = 1:

       Center              X                  Y                   Z               Mass
    ------------   -----------------  -----------------  -----------------  -----------------
         O            1.287153542555     1.578230979294    -0.000003983208    15.994914619570
         N           -1.437437457445     0.965654979294     0.000003016792    14.003074004430
         N            1.789575542555    -0.679015020706     0.000000016792    14.003074004430
         N           -1.003063457445    -1.221106020706     0.000000016792    14.003074004430
         C           -0.483259557445    -0.013624120706     0.000004916792    12.000000000000
         C            0.951224542555     0.383616979294     0.000000016792    12.000000000000
         C           -2.653941457445     0.336666979294    -0.000000983208    12.000000000000
         C           -2.359047457445    -1.015669020706    -0.000002983208    12.000000000000
         C            3.230443542555    -0.532381020706     0.000000016792    12.000000000000
         H           -1.228839457445     1.958836979294     0.000009016792     1.007825032230
         H            1.354771542555    -1.595897020706     0.000007016792     1.007825032230
         H           -3.588423457445     0.878427979294    -0.000000983208     1.007825032230
         H           -3.055243457445    -1.843805020706    -0.000006983208     1.007825032230
         H            3.446273542555     0.535954979294    -0.000006983208     1.007825032230
         H            3.670036542555    -0.989557020706    -0.891024983208     1.007825032230
         H            3.670032542555    -0.989544020706     0.891033016792     1.007825032230

  Basis Set: AUG-CC-PVTZ
    Blend: AUG-CC-PVTZ
  Basis Set: (AUG-CC-PVTZ AUX)
    Blend: AUG-CC-PVTZ-JKFIT
	 Reference Energy          =    -431.7975358997070998 [Eh]
	 Singles Energy            =      -0.0000000000000000 [Eh]
	 Same-Spin Energy          =      -0.4552580809944633 [Eh]
	 Opposite-Spin Energy      =      -1.3789190847496300 [Eh]
	 Correlation Energy        =      -1.8341771657440933 [Eh]
	 Total Energy              =    -433.6317130654512084 [Eh]

	 ================> DF-SCS-MP2 Energies <==================
	-----------------------------------------------------------
	 SCS Same-Spin Scale       =       0.3333333333333333 [-]
	 SCS Opposite-Spin Scale   =       1.2000000000000000 [-]
	 SCS Same-Spin Energy      =      -0.1517526936648211 [Eh]
	 SCS Opposite-Spin Energy  =      -1.6547029016995560 [Eh]
	 SCS Correlation Energy    =      -1.8064555953643771 [Eh]
	 SCS Total Energy          =    -433.6039914950714547 [Eh]
	-----------------------------------------------------------

  Dipole Moment: [D]
     X:    -0.9267      Y:    -0.4219      Z:     0.0000     Total:     1.0182

*** Psi4 exiting successfully. Buy a developer a beer!
