                               Psi4 1.3.2 release

  ==> Input File <==

--------------------------------------------------------------------------
#psi4
#
memory 32 gb

molecule  {
0 1
  O        1.2542850     1.5918540    -0.0000040
  N       -1.4703060     0.9792780     0.0000030
  N        1.7567070    -0.6653920     0.0000000
  N       -1.0359320    -1.2074830     0.0000000
  C       -0.5082200     0.0183690     0.0000050
  C        0.8217064     0.3715717     0.0000003
  C       -2.6868100     0.3502900    -0.0000010
  C       -2.3919160    -1.0020460    -0.0000030
  C        3.1975750    -0.5187580     0.0000000
  H       -1.2617080     1.9724600     0.0000090
  H        1.3219030    -1.5822740     0.0000070
  H       -3.6212920     0.8920510    -0.0000010
  H       -3.0881120    -1.8301820    -0.0000070
  H        3.4134050     0.5495780    -0.0000070
  H        3.6371680    -0.9759340    -0.8910250
  H        3.6371640    -0.9759210     0.8910330
units angstrom
no_reorient  #important for SAPT in psi4, default
symmetry c1  #important for SAPT in psi4, default
}

set PROPERTIES_ORIGIN ["COM"]
properties('MP2/aug-cc-pvtz', properties = ['dipole'])
--------------------------------------------------------------------------

    Molecular point group: c1
  Charge       = 0
  Multiplicity = 1
  Basis Set: AUG-CC-PVTZ
    Blend: AUG-CC-PVTZ
  Basis Set: (AUG-CC-PVTZ AUX)
    Blend: AUG-CC-PVTZ-JKFIT

    Orbital Energies [Eh]
    ---------------------

    Doubly Occupied:

       1A    -20.520079     2A    -15.644354     3A    -15.586915
       4A    -15.582485     5A    -11.365264     6A    -11.309958
       7A    -11.291015     8A    -11.269200     9A    -11.258796
      10A     -1.376577    11A     -1.334205    12A     -1.219721
      13A     -1.186525    14A     -1.059382    15A     -0.959266
      16A     -0.879360    17A     -0.834630    18A     -0.805354
      19A     -0.755307    20A     -0.671014    21A     -0.645322
      22A     -0.640188    23A     -0.617577    24A     -0.606117
      25A     -0.603123    26A     -0.583328    27A     -0.538707
      28A     -0.520030    29A     -0.471735    30A     -0.437639
      31A     -0.423510    32A     -0.383853    33A     -0.335956

  @DF-RHF Final Energy:  -431.77501203261590

   => Energetics <=

    Nuclear Repulsion Energy =            432.8511681292548019
    One-Electron Energy =               -1445.8193761981574426
    Two-Electron Energy =                 581.1931960362867358
    Total Energy =                       -431.7750120326159049
  Basis Set: (AUG-CC-PVTZ AUX)
    Blend: AUG-CC-PVTZ-RI
    Molecular point group: c1

    Geometry (in Angstrom), charge = 0, multiplicity = 1:

       Center              X                  Y                   Z               Mass
    ------------   -----------------  -----------------  -----------------  -----------------
         O            1.295668713398     1.578931276448    -0.000004021590    15.994914619570
         N           -1.428922286602     0.966355276448     0.000002978410    14.003074004430
         N            1.798090713398    -0.678314723552    -0.000000021590    14.003074004430
         N           -0.994548286602    -1.220405723552    -0.000000021590    14.003074004430
         C           -0.466836286602     0.005446276448     0.000004978410    12.000000000000
         C            0.863090113398     0.358648976448     0.000000278410    12.000000000000
         C           -2.645426286602     0.337367276448    -0.000001021590    12.000000000000
         C           -2.350532286602    -1.014968723552    -0.000003021590    12.000000000000
         C            3.238958713398    -0.531680723552    -0.000000021590    12.000000000000
         H           -1.220324286602     1.959537276448     0.000008978410     1.007825032230
         H            1.363286713398    -1.595196723552     0.000006978410     1.007825032230
         H           -3.579908286602     0.879128276448    -0.000001021590     1.007825032230
         H           -3.046728286602    -1.843104723552    -0.000007021590     1.007825032230
         H            3.454788713398     0.536655276448    -0.000007021590     1.007825032230
         H            3.678551713398    -0.988856723552    -0.891025021590     1.007825032230
         H            3.678547713398    -0.988843723552     0.891032978410     1.007825032230

  Basis Set: AUG-CC-PVTZ
    Blend: AUG-CC-PVTZ
  Basis Set: (AUG-CC-PVTZ AUX)
    Blend: AUG-CC-PVTZ-JKFIT
	 Reference Energy          =    -431.7750120326159049 [Eh]
	 Singles Energy            =      -0.0000000000000000 [Eh]
	 Same-Spin Energy          =      -0.4586987956662734 [Eh]
	 Opposite-Spin Energy      =      -1.3850341785036102 [Eh]
	 Correlation Energy        =      -1.8437329741698836 [Eh]
	 Total Energy              =    -433.6187450067857867 [Eh]

	 ================> DF-SCS-MP2 Energies <==================
	-----------------------------------------------------------
	 SCS Same-Spin Scale       =       0.3333333333333333 [-]
	 SCS Opposite-Spin Scale   =       1.2000000000000000 [-]
	 SCS Same-Spin Energy      =      -0.1528995985554245 [Eh]
	 SCS Opposite-Spin Energy  =      -1.6620410142043323 [Eh]
	 SCS Correlation Energy    =      -1.8149406127597567 [Eh]
	 SCS Total Energy          =    -433.5899526453756607 [Eh]
	-----------------------------------------------------------

  Dipole Moment: [D]
     X:    -1.7480      Y:    -0.5316      Z:     0.0000     Total:     1.8271

*** Psi4 exiting successfully. Buy a developer a beer!
