                               Psi4 1.3.2 release

  ==> Input File <==

--------------------------------------------------------------------------
#psi4
#
memory 32 gb

molecule  {
0 1
  O        1.2542850     1.5918540    -0.0000040
  N       -1.4703060     0.9792780     0.0000030
  N        1.7567070    -0.6653920     0.0000000
  N       -1.0359320    -1.2074830     0.0000000
  C       -0.5477604    -0.0734817     0.0000046
  C        0.9183560     0.3972400     0.0000000
  C       -2.6868100     0.3502900    -0.0000010
  C       -2.3919160    -1.0020460    -0.0000030
  C        3.1975750    -0.5187580     0.0000000
  H       -1.2617080     1.9724600     0.0000090
  H        1.3219030    -1.5822740     0.0000070
  H       -3.6212920     0.8920510    -0.0000010
  H       -3.0881120    -1.8301820    -0.0000070
  H        3.4134050     0.5495780    -0.0000070
  H        3.6371680    -0.9759340    -0.8910250
  H        3.6371640    -0.9759210     0.8910330
units angstrom
no_reorient  #important for SAPT in psi4, default
symmetry c1  #important for SAPT in psi4, default
}

set PROPERTIES_ORIGIN ["COM"]
properties('MP2/aug-cc-pvtz', properties = ['dipole'])
--------------------------------------------------------------------------

    Molecular point group: c1
  Charge       = 0
  Multiplicity = 1
  Basis Set: AUG-CC-PVTZ
    Blend: AUG-CC-PVTZ
  Basis Set: (AUG-CC-PVTZ AUX)
    Blend: AUG-CC-PVTZ-JKFIT

    Orbital Energies [Eh]
    ---------------------

    Doubly Occupied:

       1A    -20.530632     2A    -15.622889     3A    -15.593030
       4A    -15.566112     5A    -11.369314     6A    -11.309312
       7A    -11.280167     8A    -11.262927     9A    -11.256882
      10A     -1.386277    11A     -1.356313    12A     -1.240489
      13A     -1.197346    14A     -1.030651    15A     -0.961537
      16A     -0.848211    17A     -0.828893    18A     -0.792425
      19A     -0.770999    20A     -0.668060    21A     -0.650161
      22A     -0.638668    23A     -0.616494    24A     -0.610299
      25A     -0.597313    26A     -0.575746    27A     -0.550956
      28A     -0.536451    29A     -0.477284    30A     -0.434691
      31A     -0.430141    32A     -0.396507    33A     -0.329583

  @DF-RHF Final Energy:  -431.78772300269850

   => Energetics <=

    Nuclear Repulsion Energy =            432.8530390496012501
    One-Electron Energy =               -1445.8480072683450999
    Two-Electron Energy =                 581.2072452160454077
    Total Energy =                       -431.7877230026984989
  Basis Set: (AUG-CC-PVTZ AUX)
    Blend: AUG-CC-PVTZ-RI
    Molecular point group: c1

    Geometry (in Angstrom), charge = 0, multiplicity = 1:

       Center              X                  Y                   Z               Mass
    ------------   -----------------  -----------------  -----------------  -----------------
         O            1.290188812847     1.585281793882    -0.000003954421    15.994914619570
         N           -1.434402187153     0.972705793882     0.000003045579    14.003074004430
         N            1.792610812847    -0.671964206118     0.000000045579    14.003074004430
         N           -1.000028187153    -1.214055206118     0.000000045579    14.003074004430
         C           -0.511856587153    -0.080053906118     0.000004645579    12.000000000000
         C            0.954259812847     0.390667793882     0.000000045579    12.000000000000
         C           -2.650906187153     0.343717793882    -0.000000954421    12.000000000000
         C           -2.356012187153    -1.008618206118    -0.000002954421    12.000000000000
         C            3.233478812847    -0.525330206118     0.000000045579    12.000000000000
         H           -1.225804187153     1.965887793882     0.000009045579     1.007825032230
         H            1.357806812847    -1.588846206118     0.000007045579     1.007825032230
         H           -3.585388187153     0.885478793882    -0.000000954421     1.007825032230
         H           -3.052208187153    -1.836754206118    -0.000006954421     1.007825032230
         H            3.449308812847     0.543005793882    -0.000006954421     1.007825032230
         H            3.673071812847    -0.982506206118    -0.891024954421     1.007825032230
         H            3.673067812847    -0.982493206118     0.891033045579     1.007825032230

  Basis Set: AUG-CC-PVTZ
    Blend: AUG-CC-PVTZ
  Basis Set: (AUG-CC-PVTZ AUX)
    Blend: AUG-CC-PVTZ-JKFIT
	 Reference Energy          =    -431.7877230026984989 [Eh]
	 Singles Energy            =      -0.0000000000000000 [Eh]
	 Same-Spin Energy          =      -0.4536404675663069 [Eh]
	 Opposite-Spin Energy      =      -1.3766649448451957 [Eh]
	 Correlation Energy        =      -1.8303054124115028 [Eh]
	 Total Energy              =    -433.6180284151100182 [Eh]

	 ================> DF-SCS-MP2 Energies <==================
	-----------------------------------------------------------
	 SCS Same-Spin Scale       =       0.3333333333333333 [-]
	 SCS Opposite-Spin Scale   =       1.2000000000000000 [-]
	 SCS Same-Spin Energy      =      -0.1512134891887690 [Eh]
	 SCS Opposite-Spin Energy  =      -1.6519979338142348 [Eh]
	 SCS Correlation Energy    =      -1.8032114230030039 [Eh]
	 SCS Total Energy          =    -433.5909344257015050 [Eh]
	-----------------------------------------------------------

  Dipole Moment: [D]
     X:    -0.7301      Y:    -0.5454      Z:     0.0000     Total:     0.9113

*** Psi4 exiting successfully. Buy a developer a beer!
