                               Psi4 1.3.2 release

  ==> Input File <==

--------------------------------------------------------------------------
#psi4
#
memory 32 gb

molecule  {
0 1
  O        1.2542850     1.5918540    -0.0000040
  N       -1.4703060     0.9792780     0.0000030
  N        1.7380338    -0.6798614     0.0000001
  N       -1.0359320    -1.2074830     0.0000000
  C       -0.5082200     0.0183690     0.0000050
  C        0.9183560     0.3972400     0.0000000
  C       -2.6868100     0.3502900    -0.0000010
  C       -2.3919160    -1.0020460    -0.0000030
  C        3.1975750    -0.5187580     0.0000000
  H       -1.2617080     1.9724600     0.0000090
  H        1.3219030    -1.5822740     0.0000070
  H       -3.6212920     0.8920510    -0.0000010
  H       -3.0881120    -1.8301820    -0.0000070
  H        3.4134050     0.5495780    -0.0000070
  H        3.6371680    -0.9759340    -0.8910250
  H        3.6371640    -0.9759210     0.8910330
units angstrom
no_reorient  #important for SAPT in psi4, default
symmetry c1  #important for SAPT in psi4, default
}

set PROPERTIES_ORIGIN ["COM"]
properties('MP2/aug-cc-pvtz', properties = ['dipole'])
--------------------------------------------------------------------------

    Molecular point group: c1
  Charge       = 0
  Multiplicity = 1
  Basis Set: AUG-CC-PVTZ
    Blend: AUG-CC-PVTZ
  Basis Set: (AUG-CC-PVTZ AUX)
    Blend: AUG-CC-PVTZ-JKFIT

    Orbital Energies [Eh]
    ---------------------

    Doubly Occupied:

       1A    -20.528748     2A    -15.634890     3A    -15.591812
       4A    -15.570142     5A    -11.366792     6A    -11.309275
       7A    -11.279000     8A    -11.264834     9A    -11.260121
      10A     -1.386752    11A     -1.347323    12A     -1.239656
      13A     -1.179460    14A     -1.037321    15A     -0.960615
      16A     -0.859785    17A     -0.824460    18A     -0.799165
      19A     -0.775211    20A     -0.667718    21A     -0.649535
      22A     -0.637709    23A     -0.613362    24A     -0.606872
      25A     -0.594451    26A     -0.585114    27A     -0.553902
      28A     -0.537434    29A     -0.463871    30A     -0.442551
      31A     -0.417946    32A     -0.396881    33A     -0.328090

  @DF-RHF Final Energy:  -431.79645541592953

   => Energetics <=

    Nuclear Repulsion Energy =            432.5451562704743083
    One-Electron Energy =               -1445.2616337423573896
    Two-Electron Energy =                 580.9200220559534955
    Total Energy =                       -431.7964554159295858
  Basis Set: (AUG-CC-PVTZ AUX)
    Blend: AUG-CC-PVTZ-RI
    Molecular point group: c1

    Geometry (in Angstrom), charge = 0, multiplicity = 1:

       Center              X                  Y                   Z               Mass
    ------------   -----------------  -----------------  -----------------  -----------------
         O            1.288485594777     1.578088445502    -0.000004004000    15.994914619570
         N           -1.436105405223     0.965512445502     0.000002996000    14.003074004430
         N            1.772234394777    -0.693626954498     0.000000096000    14.003074004430
         N           -1.001731405223    -1.221248554498    -0.000000004000    14.003074004430
         C           -0.474019405223     0.004603445502     0.000004996000    12.000000000000
         C            0.952556594777     0.383474445502    -0.000000004000    12.000000000000
         C           -2.652609405223     0.336524445502    -0.000001004000    12.000000000000
         C           -2.357715405223    -1.015811554498    -0.000003004000    12.000000000000
         C            3.231775594777    -0.532523554498    -0.000000004000    12.000000000000
         H           -1.227507405223     1.958694445502     0.000008996000     1.007825032230
         H            1.356103594777    -1.596039554498     0.000006996000     1.007825032230
         H           -3.587091405223     0.878285445502    -0.000001004000     1.007825032230
         H           -3.053911405223    -1.843947554498    -0.000007004000     1.007825032230
         H            3.447605594777     0.535812445502    -0.000007004000     1.007825032230
         H            3.671368594777    -0.989699554498    -0.891025004000     1.007825032230
         H            3.671364594777    -0.989686554498     0.891032996000     1.007825032230

  Basis Set: AUG-CC-PVTZ
    Blend: AUG-CC-PVTZ
  Basis Set: (AUG-CC-PVTZ AUX)
    Blend: AUG-CC-PVTZ-JKFIT
	 Reference Energy          =    -431.7964554159295290 [Eh]
	 Singles Energy            =      -0.0000000000000000 [Eh]
	 Same-Spin Energy          =      -0.4555178763737093 [Eh]
	 Opposite-Spin Energy      =      -1.3794602491615504 [Eh]
	 Correlation Energy        =      -1.8349781255352597 [Eh]
	 Total Energy              =    -433.6314335414647871 [Eh]

	 ================> DF-SCS-MP2 Energies <==================
	-----------------------------------------------------------
	 SCS Same-Spin Scale       =       0.3333333333333333 [-]
	 SCS Opposite-Spin Scale   =       1.2000000000000000 [-]
	 SCS Same-Spin Energy      =      -0.1518392921245698 [Eh]
	 SCS Opposite-Spin Energy  =      -1.6553522989938605 [Eh]
	 SCS Correlation Energy    =      -1.8071915911184302 [Eh]
	 SCS Total Energy          =    -433.6036470070479822 [Eh]
	-----------------------------------------------------------

  Dipole Moment: [D]
     X:    -0.9088      Y:    -0.3791      Z:     0.0000     Total:     0.9847

*** Psi4 exiting successfully. Buy a developer a beer!
