                               Psi4 1.3.2 release

  ==> Input File <==

--------------------------------------------------------------------------
#psi4
#
memory 32 gb

molecule  {
0 1
  O        1.2542850     1.5918540    -0.0000040
  N       -1.4703060     0.9792780     0.0000030
  N        1.7567070    -0.6653920     0.0000000
  N       -1.0359320    -1.2074830     0.0000000
  C       -0.6392473     0.0668146     0.0000048
  C        0.9183560     0.3972400     0.0000000
  C       -2.6868100     0.3502900    -0.0000010
  C       -2.3919160    -1.0020460    -0.0000030
  C        3.1975750    -0.5187580     0.0000000
  H       -1.2617080     1.9724600     0.0000090
  H        1.3219030    -1.5822740     0.0000070
  H       -3.6212920     0.8920510    -0.0000010
  H       -3.0881120    -1.8301820    -0.0000070
  H        3.4134050     0.5495780    -0.0000070
  H        3.6371680    -0.9759340    -0.8910250
  H        3.6371640    -0.9759210     0.8910330
units angstrom
no_reorient  #important for SAPT in psi4, default
symmetry c1  #important for SAPT in psi4, default
}

set PROPERTIES_ORIGIN ["COM"]
properties('MP2/aug-cc-pvtz', properties = ['dipole'])
--------------------------------------------------------------------------

    Molecular point group: c1
  Charge       = 0
  Multiplicity = 1
  Basis Set: AUG-CC-PVTZ
    Blend: AUG-CC-PVTZ
  Basis Set: (AUG-CC-PVTZ AUX)
    Blend: AUG-CC-PVTZ-JKFIT

    Orbital Energies [Eh]
    ---------------------

    Doubly Occupied:

       1A    -20.527654     2A    -15.639009     3A    -15.593609
       4A    -15.559547     5A    -11.369310     6A    -11.309062
       7A    -11.268126     8A    -11.263651     9A    -11.261774
      10A     -1.402580    11A     -1.369365    12A     -1.237926
      13A     -1.195657    14A     -1.029813    15A     -0.959490
      16A     -0.854913    17A     -0.828590    18A     -0.812526
      19A     -0.770919    20A     -0.660186    21A     -0.649758
      22A     -0.647681    23A     -0.626302    24A     -0.619602
      25A     -0.595350    26A     -0.566397    27A     -0.550539
      28A     -0.536242    29A     -0.470479    30A     -0.431268
      31A     -0.421643    32A     -0.395580    33A     -0.329473

  @DF-RHF Final Energy:  -431.77448628504675

   => Energetics <=

    Nuclear Repulsion Energy =            433.2646027201766969
    One-Electron Energy =               -1446.5701367846288576
    Two-Electron Energy =                 581.5310477794054123
    Total Energy =                       -431.7744862850466916
  Basis Set: (AUG-CC-PVTZ AUX)
    Blend: AUG-CC-PVTZ-RI
    Molecular point group: c1

    Geometry (in Angstrom), charge = 0, multiplicity = 1:

       Center              X                  Y                   Z               Mass
    ------------   -----------------  -----------------  -----------------  -----------------
         O            1.298967417936     1.571819693700    -0.000003973612    15.994914619570
         N           -1.425623582064     0.959243693700     0.000003026388    14.003074004430
         N            1.801389417936    -0.685426306300     0.000000026388    14.003074004430
         N           -0.991249582064    -1.227517306300     0.000000026388    14.003074004430
         C           -0.594564882064     0.046780293700     0.000004826388    12.000000000000
         C            0.963038417936     0.377205693700     0.000000026388    12.000000000000
         C           -2.642127582064     0.330255693700    -0.000000973612    12.000000000000
         C           -2.347233582064    -1.022080306300    -0.000002973612    12.000000000000
         C            3.242257417936    -0.538792306300     0.000000026388    12.000000000000
         H           -1.217025582064     1.952425693700     0.000009026388     1.007825032230
         H            1.366585417936    -1.602308306300     0.000007026388     1.007825032230
         H           -3.576609582064     0.872016693700    -0.000000973612     1.007825032230
         H           -3.043429582064    -1.850216306300    -0.000006973612     1.007825032230
         H            3.458087417936     0.529543693700    -0.000006973612     1.007825032230
         H            3.681850417936    -0.995968306300    -0.891024973612     1.007825032230
         H            3.681846417936    -0.995955306300     0.891033026388     1.007825032230

  Basis Set: AUG-CC-PVTZ
    Blend: AUG-CC-PVTZ
  Basis Set: (AUG-CC-PVTZ AUX)
    Blend: AUG-CC-PVTZ-JKFIT
	 Reference Energy          =    -431.7744862850467484 [Eh]
	 Singles Energy            =      -0.0000000000000000 [Eh]
	 Same-Spin Energy          =      -0.4538760148719496 [Eh]
	 Opposite-Spin Energy      =      -1.3764386973705156 [Eh]
	 Correlation Energy        =      -1.8303147122424652 [Eh]
	 Total Energy              =    -433.6048009972892032 [Eh]

	 ================> DF-SCS-MP2 Energies <==================
	-----------------------------------------------------------
	 SCS Same-Spin Scale       =       0.3333333333333333 [-]
	 SCS Opposite-Spin Scale   =       1.2000000000000000 [-]
	 SCS Same-Spin Energy      =      -0.1512920049573165 [Eh]
	 SCS Opposite-Spin Energy  =      -1.6517264368446187 [Eh]
	 SCS Correlation Energy    =      -1.8030184418019353 [Eh]
	 SCS Total Energy          =    -433.5775047268487015 [Eh]
	-----------------------------------------------------------

  Dipole Moment: [D]
     X:    -0.7880      Y:    -0.2019      Z:     0.0000     Total:     0.8135

*** Psi4 exiting successfully. Buy a developer a beer!
