                               Psi4 1.3.2 release

  ==> Input File <==

--------------------------------------------------------------------------
#psi4
#
memory 32 gb

molecule  {
0 1
  O        1.2542850     1.5918540    -0.0000040
  N       -1.4703060     0.9792780     0.0000030
  N        1.7567070    -0.6653920     0.0000000
  N       -1.0359320    -1.2074830     0.0000000
  C       -0.5082200     0.0183690     0.0000050
  C        0.9183560     0.3972400     0.0000000
  C       -2.6631636     0.3552306    -0.0000009
  C       -2.3919160    -1.0020460    -0.0000030
  C        3.1975750    -0.5187580     0.0000000
  H       -1.2617080     1.9724600     0.0000090
  H        1.3219030    -1.5822740     0.0000070
  H       -3.6212920     0.8920510    -0.0000010
  H       -3.0881120    -1.8301820    -0.0000070
  H        3.4134050     0.5495780    -0.0000070
  H        3.6371680    -0.9759340    -0.8910250
  H        3.6371640    -0.9759210     0.8910330
units angstrom
no_reorient  #important for SAPT in psi4, default
symmetry c1  #important for SAPT in psi4, default
}

set PROPERTIES_ORIGIN ["COM"]
properties('MP2/aug-cc-pvtz', properties = ['dipole'])
--------------------------------------------------------------------------

    Molecular point group: c1
  Charge       = 0
  Multiplicity = 1
  Basis Set: AUG-CC-PVTZ
    Blend: AUG-CC-PVTZ
  Basis Set: (AUG-CC-PVTZ AUX)
    Blend: AUG-CC-PVTZ-JKFIT

    Orbital Energies [Eh]
    ---------------------

    Doubly Occupied:

       1A    -20.527001     2A    -15.636825     3A    -15.591789
       4A    -15.571530     5A    -11.365795     6A    -11.308496
       7A    -11.279942     8A    -11.262537     9A    -11.259097
      10A     -1.387397    11A     -1.352363    12A     -1.239465
      13A     -1.183368    14A     -1.038302    15A     -0.961166
      16A     -0.858350    17A     -0.827070    18A     -0.798448
      19A     -0.771956    20A     -0.670923    21A     -0.649493
      22A     -0.639770    23A     -0.613025    24A     -0.610030
      25A     -0.595738    26A     -0.585820    27A     -0.550051
      28A     -0.536908    29A     -0.463955    30A     -0.441881
      31A     -0.419800    32A     -0.395146    33A     -0.327168

  @DF-RHF Final Energy:  -431.79654730276451

   => Energetics <=

    Nuclear Repulsion Energy =            433.0928274197820542
    One-Electron Energy =               -1446.3375336443557444
    Two-Electron Energy =                 581.4481589218092950
    Total Energy =                       -431.7965473027644521
  Basis Set: (AUG-CC-PVTZ AUX)
    Blend: AUG-CC-PVTZ-RI
    Molecular point group: c1

    Geometry (in Angstrom), charge = 0, multiplicity = 1:

       Center              X                  Y                   Z               Mass
    ------------   -----------------  -----------------  -----------------  -----------------
         O            1.284125737544     1.575994206274    -0.000004002399    15.994914619570
         N           -1.440465262456     0.963418206274     0.000002997601    14.003074004430
         N            1.786547737544    -0.681251793726    -0.000000002399    14.003074004430
         N           -1.006091262456    -1.223342793726    -0.000000002399    14.003074004430
         C           -0.478379262456     0.002509206274     0.000004997601    12.000000000000
         C            0.948196737544     0.381380206274    -0.000000002399    12.000000000000
         C           -2.633322862456     0.339370806274    -0.000000902399    12.000000000000
         C           -2.362075262456    -1.017905793726    -0.000003002399    12.000000000000
         C            3.227415737544    -0.534617793726    -0.000000002399    12.000000000000
         H           -1.231867262456     1.956600206274     0.000008997601     1.007825032230
         H            1.351743737544    -1.598133793726     0.000006997601     1.007825032230
         H           -3.591451262456     0.876191206274    -0.000001002399     1.007825032230
         H           -3.058271262456    -1.846041793726    -0.000007002399     1.007825032230
         H            3.443245737544     0.533718206274    -0.000007002399     1.007825032230
         H            3.667008737544    -0.991793793726    -0.891025002399     1.007825032230
         H            3.667004737544    -0.991780793726     0.891032997601     1.007825032230

  Basis Set: AUG-CC-PVTZ
    Blend: AUG-CC-PVTZ
  Basis Set: (AUG-CC-PVTZ AUX)
    Blend: AUG-CC-PVTZ-JKFIT
	 Reference Energy          =    -431.7965473027645089 [Eh]
	 Singles Energy            =      -0.0000000000000000 [Eh]
	 Same-Spin Energy          =      -0.4558302195187800 [Eh]
	 Opposite-Spin Energy      =      -1.3793285062775629 [Eh]
	 Correlation Energy        =      -1.8351587257963429 [Eh]
	 Total Energy              =    -433.6317060285608704 [Eh]

	 ================> DF-SCS-MP2 Energies <==================
	-----------------------------------------------------------
	 SCS Same-Spin Scale       =       0.3333333333333333 [-]
	 SCS Opposite-Spin Scale   =       1.2000000000000000 [-]
	 SCS Same-Spin Energy      =      -0.1519434065062600 [Eh]
	 SCS Opposite-Spin Energy  =      -1.6551942075330754 [Eh]
	 SCS Correlation Energy    =      -1.8071376140393354 [Eh]
	 SCS Total Energy          =    -433.6036849168038430 [Eh]
	-----------------------------------------------------------

  Dipole Moment: [D]
     X:    -0.9935      Y:    -0.3786      Z:     0.0000     Total:     1.0632

*** Psi4 exiting successfully. Buy a developer a beer!
