                               Psi4 1.3.2 release

  ==> Input File <==

--------------------------------------------------------------------------
#psi4
#
memory 32 gb

molecule  {
0 1
  O        1.2542850     1.5918540    -0.0000040
  N       -1.4703060     0.9792780     0.0000030
  N        1.7567070    -0.6653920     0.0000000
  N       -1.0359320    -1.2074830     0.0000000
  C       -0.5082200     0.0183690     0.0000050
  C        0.9183560     0.3972400     0.0000000
  C       -2.6868100     0.3502900    -0.0000010
  C       -2.3919160    -1.0020460    -0.0000030
  C        3.1975750    -0.5187580     0.0000000
  H       -1.2617080     1.9724600     0.0000090
  H        1.3219030    -1.5822740     0.0000070
  H       -3.6212920     0.8920510    -0.0000010
  H       -2.9594127    -1.6770922    -0.0000063
  H        3.4134050     0.5495780    -0.0000070
  H        3.6371680    -0.9759340    -0.8910250
  H        3.6371640    -0.9759210     0.8910330
units angstrom
no_reorient  #important for SAPT in psi4, default
symmetry c1  #important for SAPT in psi4, default
}

set PROPERTIES_ORIGIN ["COM"]
properties('MP2/aug-cc-pvtz', properties = ['dipole'])
--------------------------------------------------------------------------

    Molecular point group: c1
  Charge       = 0
  Multiplicity = 1
  Basis Set: AUG-CC-PVTZ
    Blend: AUG-CC-PVTZ
  Basis Set: (AUG-CC-PVTZ AUX)
    Blend: AUG-CC-PVTZ-JKFIT

    Orbital Energies [Eh]
    ---------------------

    Doubly Occupied:

       1A    -20.527322     2A    -15.635032     3A    -15.592207
       4A    -15.569825     5A    -11.366009     6A    -11.309470
       7A    -11.279105     8A    -11.262756     9A    -11.237703
      10A     -1.386409    11A     -1.347179    12A     -1.239568
      13A     -1.180678    14A     -1.043649    15A     -0.963677
      16A     -0.861972    17A     -0.854351    18A     -0.796882
      19A     -0.773182    20A     -0.669998    21A     -0.654460
      22A     -0.638413    23A     -0.634002    24A     -0.607606
      25A     -0.606605    26A     -0.588208    27A     -0.550354
      28A     -0.536310    29A     -0.465412    30A     -0.441995
      31A     -0.417461    32A     -0.395003    33A     -0.328595

  @DF-RHF Final Energy:  -431.76077779182469

   => Energetics <=

    Nuclear Repulsion Energy =            433.7752232028597064
    One-Electron Energy =               -1447.5492097399660452
    Two-Electron Energy =                 582.0132087452816450
    Total Energy =                       -431.7607777918246938
  Basis Set: (AUG-CC-PVTZ AUX)
    Blend: AUG-CC-PVTZ-RI
    Molecular point group: c1

    Geometry (in Angstrom), charge = 0, multiplicity = 1:

       Center              X                  Y                   Z               Mass
    ------------   -----------------  -----------------  -----------------  -----------------
         O            1.285357560382     1.575234560030    -0.000003998444    15.994914619570
         N           -1.439233439618     0.962658560030     0.000003001556    14.003074004430
         N            1.787779560382    -0.682011439970     0.000000001556    14.003074004430
         N           -1.004859439618    -1.224102439970     0.000000001556    14.003074004430
         C           -0.477147439618     0.001749560030     0.000005001556    12.000000000000
         C            0.949428560382     0.380620560030     0.000000001556    12.000000000000
         C           -2.655737439618     0.333670560030    -0.000000998444    12.000000000000
         C           -2.360843439618    -1.018665439970    -0.000002998444    12.000000000000
         C            3.228647560382    -0.535377439970     0.000000001556    12.000000000000
         H           -1.230635439618     1.955840560030     0.000009001556     1.007825032230
         H            1.352975560382    -1.598893439970     0.000007001556     1.007825032230
         H           -3.590219439618     0.875431560030    -0.000000998444     1.007825032230
         H           -2.928340139618    -1.693711639970    -0.000006298444     1.007825032230
         H            3.444477560382     0.532958560030    -0.000006998444     1.007825032230
         H            3.668240560382    -0.992553439970    -0.891024998444     1.007825032230
         H            3.668236560382    -0.992540439970     0.891033001556     1.007825032230

  Basis Set: AUG-CC-PVTZ
    Blend: AUG-CC-PVTZ
  Basis Set: (AUG-CC-PVTZ AUX)
    Blend: AUG-CC-PVTZ-JKFIT
	 Reference Energy          =    -431.7607777918246938 [Eh]
	 Singles Energy            =      -0.0000000000000000 [Eh]
	 Same-Spin Energy          =      -0.4555217263153303 [Eh]
	 Opposite-Spin Energy      =      -1.3791874140934799 [Eh]
	 Correlation Energy        =      -1.8347091404088101 [Eh]
	 Total Energy              =    -433.5954869322334844 [Eh]

	 ================> DF-SCS-MP2 Energies <==================
	-----------------------------------------------------------
	 SCS Same-Spin Scale       =       0.3333333333333333 [-]
	 SCS Opposite-Spin Scale   =       1.2000000000000000 [-]
	 SCS Same-Spin Energy      =      -0.1518405754384434 [Eh]
	 SCS Opposite-Spin Energy  =      -1.6550248969121759 [Eh]
	 SCS Correlation Energy    =      -1.8068654723506192 [Eh]
	 SCS Total Energy          =    -433.5676432641753308 [Eh]
	-----------------------------------------------------------

  Dipole Moment: [D]
     X:    -0.9976      Y:    -0.3768      Z:     0.0000     Total:     1.0664

*** Psi4 exiting successfully. Buy a developer a beer!
