                               Psi4 1.3.2 release

  ==> Input File <==

--------------------------------------------------------------------------
#psi4
#
memory 32 gb

molecule  {
0 1
  O        1.2542850     1.5918540    -0.0000040
  N       -1.4703060     0.9792780     0.0000030
  N        1.7191110    -0.6940027     0.0000002
  N       -1.0359320    -1.2074830     0.0000000
  C       -0.5082200     0.0183690     0.0000050
  C        0.9183560     0.3972400     0.0000000
  C       -2.6868100     0.3502900    -0.0000010
  C       -2.3919160    -1.0020460    -0.0000030
  C        3.1975750    -0.5187580     0.0000000
  H       -1.2617080     1.9724600     0.0000090
  H        1.3219030    -1.5822740     0.0000070
  H       -3.6212920     0.8920510    -0.0000010
  H       -3.0881120    -1.8301820    -0.0000070
  H        3.4134050     0.5495780    -0.0000070
  H        3.6371680    -0.9759340    -0.8910250
  H        3.6371640    -0.9759210     0.8910330
units angstrom
no_reorient  #important for SAPT in psi4, default
symmetry c1  #important for SAPT in psi4, default
}

set PROPERTIES_ORIGIN ["COM"]
properties('MP2/aug-cc-pvtz', properties = ['dipole'])
--------------------------------------------------------------------------

    Molecular point group: c1
  Charge       = 0
  Multiplicity = 1
  Basis Set: AUG-CC-PVTZ
    Blend: AUG-CC-PVTZ
  Basis Set: (AUG-CC-PVTZ AUX)
    Blend: AUG-CC-PVTZ-JKFIT

    Orbital Energies [Eh]
    ---------------------

    Doubly Occupied:

       1A    -20.529827     2A    -15.634150     3A    -15.591046
       4A    -15.569318     5A    -11.367200     6A    -11.308143
       7A    -11.278308     8A    -11.266705     9A    -11.259560
      10A     -1.386699    11A     -1.346748    12A     -1.239713
      13A     -1.178668    14A     -1.036156    15A     -0.959220
      16A     -0.861409    17A     -0.824082    18A     -0.801521
      19A     -0.776941    20A     -0.666869    21A     -0.648063
      22A     -0.636634    23A     -0.612892    24A     -0.605645
      25A     -0.592904    26A     -0.583394    27A     -0.556639
      28A     -0.538233    29A     -0.463270    30A     -0.442614
      31A     -0.417920    32A     -0.398285    33A     -0.327428

  @DF-RHF Final Energy:  -431.79433377110900

   => Energetics <=

    Nuclear Repulsion Energy =            432.5117164477360348
    One-Electron Energy =               -1445.1996911332562377
    Two-Electron Energy =                 580.8936409144112076
    Total Energy =                       -431.7943337711089953
  Basis Set: (AUG-CC-PVTZ AUX)
    Blend: AUG-CC-PVTZ-RI
    Molecular point group: c1

    Geometry (in Angstrom), charge = 0, multiplicity = 1:

       Center              X                  Y                   Z               Mass
    ------------   -----------------  -----------------  -----------------  -----------------
         O            1.290604415138     1.579671872604    -0.000004015198    15.994914619570
         N           -1.433986584862     0.967095872604     0.000002984802    14.003074004430
         N            1.755430415138    -0.706184827396     0.000000184802    14.003074004430
         N           -0.999612584862    -1.219665127396    -0.000000015198    14.003074004430
         C           -0.471900584862     0.006186872604     0.000004984802    12.000000000000
         C            0.954675415138     0.385057872604    -0.000000015198    12.000000000000
         C           -2.650490584862     0.338107872604    -0.000001015198    12.000000000000
         C           -2.355596584862    -1.014228127396    -0.000003015198    12.000000000000
         C            3.233894415138    -0.530940127396    -0.000000015198    12.000000000000
         H           -1.225388584862     1.960277872604     0.000008984802     1.007825032230
         H            1.358222415138    -1.594456127396     0.000006984802     1.007825032230
         H           -3.584972584862     0.879868872604    -0.000001015198     1.007825032230
         H           -3.051792584862    -1.842364127396    -0.000007015198     1.007825032230
         H            3.449724415138     0.537395872604    -0.000007015198     1.007825032230
         H            3.673487415138    -0.988116127396    -0.891025015198     1.007825032230
         H            3.673483415138    -0.988103127396     0.891032984802     1.007825032230

  Basis Set: AUG-CC-PVTZ
    Blend: AUG-CC-PVTZ
  Basis Set: (AUG-CC-PVTZ AUX)
    Blend: AUG-CC-PVTZ-JKFIT
	 Reference Energy          =    -431.7943337711089953 [Eh]
	 Singles Energy            =      -0.0000000000000000 [Eh]
	 Same-Spin Energy          =      -0.4553619428308351 [Eh]
	 Opposite-Spin Energy      =      -1.3794023803082038 [Eh]
	 Correlation Energy        =      -1.8347643231390389 [Eh]
	 Total Energy              =    -433.6290980942480360 [Eh]

	 ================> DF-SCS-MP2 Energies <==================
	-----------------------------------------------------------
	 SCS Same-Spin Scale       =       0.3333333333333333 [-]
	 SCS Opposite-Spin Scale   =       1.2000000000000000 [-]
	 SCS Same-Spin Energy      =      -0.1517873142769450 [Eh]
	 SCS Opposite-Spin Energy  =      -1.6552828563698445 [Eh]
	 SCS Correlation Energy    =      -1.8070701706467895 [Eh]
	 SCS Total Energy          =    -433.6014039417557910 [Eh]
	-----------------------------------------------------------

  Dipole Moment: [D]
     X:    -0.8418      Y:    -0.3576      Z:     0.0000     Total:     0.9146

*** Psi4 exiting successfully. Buy a developer a beer!
