                               Psi4 1.3.2 release

  ==> Input File <==

--------------------------------------------------------------------------
#psi4
#
memory 32 gb

molecule  {
0 1
  O        1.2542850     1.5918540    -0.0000040
  N       -1.4703060     0.9792780     0.0000030
  N        1.7567070    -0.6653920     0.0000000
  N       -1.0359320    -1.2074830     0.0000000
  C       -0.6139327    -0.0769324     0.0000038
  C        0.9183560     0.3972400     0.0000000
  C       -2.6868100     0.3502900    -0.0000010
  C       -2.3919160    -1.0020460    -0.0000030
  C        3.1975750    -0.5187580     0.0000000
  H       -1.2617080     1.9724600     0.0000090
  H        1.3219030    -1.5822740     0.0000070
  H       -3.6212920     0.8920510    -0.0000010
  H       -3.0881120    -1.8301820    -0.0000070
  H        3.4134050     0.5495780    -0.0000070
  H        3.6371680    -0.9759340    -0.8910250
  H        3.6371640    -0.9759210     0.8910330
units angstrom
no_reorient  #important for SAPT in psi4, default
symmetry c1  #important for SAPT in psi4, default
}

set PROPERTIES_ORIGIN ["COM"]
properties('MP2/aug-cc-pvtz', properties = ['dipole'])
--------------------------------------------------------------------------

    Molecular point group: c1
  Charge       = 0
  Multiplicity = 1
  Basis Set: AUG-CC-PVTZ
    Blend: AUG-CC-PVTZ
  Basis Set: (AUG-CC-PVTZ AUX)
    Blend: AUG-CC-PVTZ-JKFIT

    Orbital Energies [Eh]
    ---------------------

    Doubly Occupied:

       1A    -20.529641     2A    -15.622662     3A    -15.592211
       4A    -15.561084     5A    -11.367972     6A    -11.308248
       7A    -11.277493     8A    -11.262354     9A    -11.257503
      10A     -1.390604    11A     -1.365666    12A     -1.239036
      13A     -1.210417    14A     -1.025849    15A     -0.959320
      16A     -0.843097    17A     -0.830664    18A     -0.798574
      19A     -0.769125    20A     -0.664818    21A     -0.647745
      22A     -0.641568    23A     -0.622120    24A     -0.615523
      25A     -0.597190    26A     -0.566637    27A     -0.550206
      28A     -0.535234    29A     -0.484946    30A     -0.434997
      31A     -0.425941    32A     -0.395716    33A     -0.331707

  @DF-RHF Final Energy:  -431.77501561586962

   => Energetics <=

    Nuclear Repulsion Energy =            433.2348113884964391
    One-Electron Energy =               -1446.5679207755470088
    Two-Electron Energy =                 581.5580937711810066
    Total Energy =                       -431.7750156158696200
  Basis Set: (AUG-CC-PVTZ AUX)
    Blend: AUG-CC-PVTZ-RI
    Molecular point group: c1

    Geometry (in Angstrom), charge = 0, multiplicity = 1:

       Center              X                  Y                   Z               Mass
    ------------   -----------------  -----------------  -----------------  -----------------
         O            1.296538361138     1.585612905031    -0.000003877658    15.994914619570
         N           -1.428052638862     0.973036905031     0.000003122342    14.003074004430
         N            1.798960361138    -0.671633094969     0.000000122342    14.003074004430
         N           -0.993678638862    -1.213724094969     0.000000122342    14.003074004430
         C           -0.571679338862    -0.083173494969     0.000003922342    12.000000000000
         C            0.960609361138     0.390998905031     0.000000122342    12.000000000000
         C           -2.644556638862     0.344048905031    -0.000000877658    12.000000000000
         C           -2.349662638862    -1.008287094969    -0.000002877658    12.000000000000
         C            3.239828361138    -0.524999094969     0.000000122342    12.000000000000
         H           -1.219454638862     1.966218905031     0.000009122342     1.007825032230
         H            1.364156361138    -1.588515094969     0.000007122342     1.007825032230
         H           -3.579038638862     0.885809905031    -0.000000877658     1.007825032230
         H           -3.045858638862    -1.836423094969    -0.000006877658     1.007825032230
         H            3.455658361138     0.543336905031    -0.000006877658     1.007825032230
         H            3.679421361138    -0.982175094969    -0.891024877658     1.007825032230
         H            3.679417361138    -0.982162094969     0.891033122342     1.007825032230

  Basis Set: AUG-CC-PVTZ
    Blend: AUG-CC-PVTZ
  Basis Set: (AUG-CC-PVTZ AUX)
    Blend: AUG-CC-PVTZ-JKFIT
	 Reference Energy          =    -431.7750156158696200 [Eh]
	 Singles Energy            =      -0.0000000000000000 [Eh]
	 Same-Spin Energy          =      -0.4526191578244357 [Eh]
	 Opposite-Spin Energy      =      -1.3751201338729968 [Eh]
	 Correlation Energy        =      -1.8277392916974327 [Eh]
	 Total Energy              =    -433.6027549075670322 [Eh]

	 ================> DF-SCS-MP2 Energies <==================
	-----------------------------------------------------------
	 SCS Same-Spin Scale       =       0.3333333333333333 [-]
	 SCS Opposite-Spin Scale   =       1.2000000000000000 [-]
	 SCS Same-Spin Energy      =      -0.1508730526081452 [Eh]
	 SCS Opposite-Spin Energy  =      -1.6501441606475962 [Eh]
	 SCS Correlation Energy    =      -1.8010172132557414 [Eh]
	 SCS Total Energy          =    -433.5760328291253813 [Eh]
	-----------------------------------------------------------

  Dipole Moment: [D]
     X:    -0.6961      Y:    -0.5183      Z:     0.0000     Total:     0.8679

*** Psi4 exiting successfully. Buy a developer a beer!
