                               Psi4 1.3.2 release

  ==> Input File <==

--------------------------------------------------------------------------
#psi4
#
memory 32 gb

molecule  {
0 1
  O        1.2542850     1.5918540    -0.0000040
  N       -1.4703060     0.9792780     0.0000030
  N        1.7567070    -0.6653920     0.0000000
  N       -1.0359320    -1.2074830     0.0000000
  C       -0.4435340     0.0878215     0.0000058
  C        0.9183560     0.3972400     0.0000000
  C       -2.6868100     0.3502900    -0.0000010
  C       -2.3919160    -1.0020460    -0.0000030
  C        3.1975750    -0.5187580     0.0000000
  H       -1.2617080     1.9724600     0.0000090
  H        1.3219030    -1.5822740     0.0000070
  H       -3.6212920     0.8920510    -0.0000010
  H       -3.0881120    -1.8301820    -0.0000070
  H        3.4134050     0.5495780    -0.0000070
  H        3.6371680    -0.9759340    -0.8910250
  H        3.6371640    -0.9759210     0.8910330
units angstrom
no_reorient  #important for SAPT in psi4, default
symmetry c1  #important for SAPT in psi4, default
}

set PROPERTIES_ORIGIN ["COM"]
properties('MP2/aug-cc-pvtz', properties = ['dipole'])
--------------------------------------------------------------------------

    Molecular point group: c1
  Charge       = 0
  Multiplicity = 1
  Basis Set: AUG-CC-PVTZ
    Blend: AUG-CC-PVTZ
  Basis Set: (AUG-CC-PVTZ AUX)
    Blend: AUG-CC-PVTZ-JKFIT

    Orbital Energies [Eh]
    ---------------------

    Doubly Occupied:

       1A    -20.523599     2A    -15.645863     3A    -15.590690
       4A    -15.577455     5A    -11.360052     6A    -11.310745
       7A    -11.283915     8A    -11.265262     9A    -11.262055
      10A     -1.387866    11A     -1.339179    12A     -1.238775
      13A     -1.164445    14A     -1.048514    15A     -0.963339
      16A     -0.872741    17A     -0.821709    18A     -0.796287
      19A     -0.772476    20A     -0.673847    21A     -0.651842
      22A     -0.639442    23A     -0.611784    24A     -0.604653
      25A     -0.599429    26A     -0.585704    27A     -0.549393
      28A     -0.536419    29A     -0.452882    30A     -0.444874
      31A     -0.411559    32A     -0.393852    33A     -0.325445

  @DF-RHF Final Energy:  -431.77691826680746

   => Energetics <=

    Nuclear Repulsion Energy =            432.4074688263073085
    One-Electron Energy =               -1444.9565885485208128
    Two-Electron Energy =                 580.7722014554060479
    Total Energy =                       -431.7769182668074563
  Basis Set: (AUG-CC-PVTZ AUX)
    Blend: AUG-CC-PVTZ-RI
    Molecular point group: c1

    Geometry (in Angstrom), charge = 0, multiplicity = 1:

       Center              X                  Y                   Z               Mass
    ------------   -----------------  -----------------  -----------------  -----------------
         O            1.280187791877     1.569803981295    -0.000004069567    15.994914619570
         N           -1.444403208123     0.957227981295     0.000002930433    14.003074004430
         N            1.782609791877    -0.687442018705    -0.000000069567    14.003074004430
         N           -1.010029208123    -1.229533018705    -0.000000069567    14.003074004430
         C           -0.417631208123     0.065771481295     0.000005730433    12.000000000000
         C            0.944258791877     0.375189981295    -0.000000069567    12.000000000000
         C           -2.660907208123     0.328239981295    -0.000001069567    12.000000000000
         C           -2.366013208123    -1.024096018705    -0.000003069567    12.000000000000
         C            3.223477791877    -0.540808018705    -0.000000069567    12.000000000000
         H           -1.235805208123     1.950409981295     0.000008930433     1.007825032230
         H            1.347805791877    -1.604324018705     0.000006930433     1.007825032230
         H           -3.595389208123     0.870000981295    -0.000001069567     1.007825032230
         H           -3.062209208123    -1.852232018705    -0.000007069567     1.007825032230
         H            3.439307791877     0.527527981295    -0.000007069567     1.007825032230
         H            3.663070791877    -0.997984018705    -0.891025069567     1.007825032230
         H            3.663066791877    -0.997971018705     0.891032930433     1.007825032230

  Basis Set: AUG-CC-PVTZ
    Blend: AUG-CC-PVTZ
  Basis Set: (AUG-CC-PVTZ AUX)
    Blend: AUG-CC-PVTZ-JKFIT
	 Reference Energy          =    -431.7769182668074563 [Eh]
	 Singles Energy            =      -0.0000000000000000 [Eh]
	 Same-Spin Energy          =      -0.4588160928642732 [Eh]
	 Opposite-Spin Energy      =      -1.3849245204022129 [Eh]
	 Correlation Energy        =      -1.8437406132664862 [Eh]
	 Total Energy              =    -433.6206588800739610 [Eh]

	 ================> DF-SCS-MP2 Energies <==================
	-----------------------------------------------------------
	 SCS Same-Spin Scale       =       0.3333333333333333 [-]
	 SCS Opposite-Spin Scale   =       1.2000000000000000 [-]
	 SCS Same-Spin Energy      =      -0.1529386976214244 [Eh]
	 SCS Opposite-Spin Energy  =      -1.6619094244826556 [Eh]
	 SCS Correlation Energy    =      -1.8148481221040800 [Eh]
	 SCS Total Energy          =    -433.5917663889115374 [Eh]
	-----------------------------------------------------------

  Dipole Moment: [D]
     X:    -1.2651      Y:    -0.3713      Z:     0.0000     Total:     1.3185

*** Psi4 exiting successfully. Buy a developer a beer!
