                               Psi4 1.3.2 release

  ==> Input File <==

--------------------------------------------------------------------------
#psi4
#
memory 32 gb

molecule  {
0 1
  O        1.2542850     1.5918540    -0.0000040
  N       -1.4703060     0.9792780     0.0000030
  N        1.7567070    -0.6653920     0.0000000
  N       -1.0325532    -1.1837865     0.0000001
  C       -0.5082200     0.0183690     0.0000050
  C        0.9183560     0.3972400     0.0000000
  C       -2.6868100     0.3502900    -0.0000010
  C       -2.3919160    -1.0020460    -0.0000030
  C        3.1975750    -0.5187580     0.0000000
  H       -1.2617080     1.9724600     0.0000090
  H        1.3219030    -1.5822740     0.0000070
  H       -3.6212920     0.8920510    -0.0000010
  H       -3.0881120    -1.8301820    -0.0000070
  H        3.4134050     0.5495780    -0.0000070
  H        3.6371680    -0.9759340    -0.8910250
  H        3.6371640    -0.9759210     0.8910330
units angstrom
no_reorient  #important for SAPT in psi4, default
symmetry c1  #important for SAPT in psi4, default
}

set PROPERTIES_ORIGIN ["COM"]
properties('MP2/aug-cc-pvtz', properties = ['dipole'])
--------------------------------------------------------------------------

    Molecular point group: c1
  Charge       = 0
  Multiplicity = 1
  Basis Set: AUG-CC-PVTZ
    Blend: AUG-CC-PVTZ
  Basis Set: (AUG-CC-PVTZ AUX)
    Blend: AUG-CC-PVTZ-JKFIT

    Orbital Energies [Eh]
    ---------------------

    Doubly Occupied:

       1A    -20.527643     2A    -15.632577     3A    -15.592480
       4A    -15.567452     5A    -11.366163     6A    -11.307337
       7A    -11.279894     8A    -11.262944     9A    -11.260001
      10A     -1.387370    11A     -1.350275    12A     -1.239914
      13A     -1.181653    14A     -1.039600    15A     -0.962296
      16A     -0.857014    17A     -0.826667    18A     -0.796637
      19A     -0.773049    20A     -0.670038    21A     -0.650930
      22A     -0.639544    23A     -0.612843    24A     -0.608869
      25A     -0.598599    26A     -0.587366    27A     -0.550501
      28A     -0.536533    29A     -0.463277    30A     -0.440989
      31A     -0.418662    32A     -0.395154    33A     -0.330128

  @DF-RHF Final Energy:  -431.79845238742888

   => Energetics <=

    Nuclear Repulsion Energy =            433.2100402388208522
    One-Electron Energy =               -1446.5881841086279564
    Two-Electron Energy =                 581.5796914823782799
    Total Energy =                       -431.7984523874288243
  Basis Set: (AUG-CC-PVTZ AUX)
    Blend: AUG-CC-PVTZ-RI
    Molecular point group: c1

    Geometry (in Angstrom), charge = 0, multiplicity = 1:

       Center              X                  Y                   Z               Mass
    ------------   -----------------  -----------------  -----------------  -----------------
         O            1.286016392196     1.573814940206    -0.000004004000    15.994914619570
         N           -1.438574607804     0.961238940206     0.000002996000    14.003074004430
         N            1.788438392196    -0.683431059794    -0.000000004000    14.003074004430
         N           -1.000821807804    -1.201825559794     0.000000096000    14.003074004430
         C           -0.476488607804     0.000329940206     0.000004996000    12.000000000000
         C            0.950087392196     0.379200940206    -0.000000004000    12.000000000000
         C           -2.655078607804     0.332250940206    -0.000001004000    12.000000000000
         C           -2.360184607804    -1.020085059794    -0.000003004000    12.000000000000
         C            3.229306392196    -0.536797059794    -0.000000004000    12.000000000000
         H           -1.229976607804     1.954420940206     0.000008996000     1.007825032230
         H            1.353634392196    -1.600313059794     0.000006996000     1.007825032230
         H           -3.589560607804     0.874011940206    -0.000001004000     1.007825032230
         H           -3.056380607804    -1.848221059794    -0.000007004000     1.007825032230
         H            3.445136392196     0.531538940206    -0.000007004000     1.007825032230
         H            3.668899392196    -0.993973059794    -0.891025004000     1.007825032230
         H            3.668895392196    -0.993960059794     0.891032996000     1.007825032230

  Basis Set: AUG-CC-PVTZ
    Blend: AUG-CC-PVTZ
  Basis Set: (AUG-CC-PVTZ AUX)
    Blend: AUG-CC-PVTZ-JKFIT
	 Reference Energy          =    -431.7984523874288811 [Eh]
	 Singles Energy            =      -0.0000000000000000 [Eh]
	 Same-Spin Energy          =      -0.4552034341088689 [Eh]
	 Opposite-Spin Energy      =      -1.3785159568451153 [Eh]
	 Correlation Energy        =      -1.8337193909539842 [Eh]
	 Total Energy              =    -433.6321717783828831 [Eh]

	 ================> DF-SCS-MP2 Energies <==================
	-----------------------------------------------------------
	 SCS Same-Spin Scale       =       0.3333333333333333 [-]
	 SCS Opposite-Spin Scale   =       1.2000000000000000 [-]
	 SCS Same-Spin Energy      =      -0.1517344780362896 [Eh]
	 SCS Opposite-Spin Energy  =      -1.6542191482141384 [Eh]
	 SCS Correlation Energy    =      -1.8059536262504281 [Eh]
	 SCS Total Energy          =    -433.6044060136792950 [Eh]
	-----------------------------------------------------------

  Dipole Moment: [D]
     X:    -0.9580      Y:    -0.4538      Z:     0.0000     Total:     1.0601

*** Psi4 exiting successfully. Buy a developer a beer!
