                               Psi4 1.3.2 release

  ==> Input File <==

--------------------------------------------------------------------------
#psi4
#
memory 32 gb

molecule  {
0 1
  O        1.2542850     1.5918540    -0.0000040
  N       -1.4703060     0.9792780     0.0000030
  N        1.7567070    -0.6653920     0.0000000
  N       -1.0359320    -1.2074830     0.0000000
  C       -0.5082200     0.0183690     0.0000050
  C        0.9956400     0.4607001     0.0000000
  C       -2.6868100     0.3502900    -0.0000010
  C       -2.3919160    -1.0020460    -0.0000030
  C        3.1975750    -0.5187580     0.0000000
  H       -1.2617080     1.9724600     0.0000090
  H        1.3219030    -1.5822740     0.0000070
  H       -3.6212920     0.8920510    -0.0000010
  H       -3.0881120    -1.8301820    -0.0000070
  H        3.4134050     0.5495780    -0.0000070
  H        3.6371680    -0.9759340    -0.8910250
  H        3.6371640    -0.9759210     0.8910330
units angstrom
no_reorient  #important for SAPT in psi4, default
symmetry c1  #important for SAPT in psi4, default
}

set PROPERTIES_ORIGIN ["COM"]
properties('MP2/aug-cc-pvtz', properties = ['dipole'])
--------------------------------------------------------------------------

    Molecular point group: c1
  Charge       = 0
  Multiplicity = 1
  Basis Set: AUG-CC-PVTZ
    Blend: AUG-CC-PVTZ
  Basis Set: (AUG-CC-PVTZ AUX)
    Blend: AUG-CC-PVTZ-JKFIT

    Orbital Energies [Eh]
    ---------------------

    Doubly Occupied:

       1A    -20.544484     2A    -15.628109     3A    -15.589182
       4A    -15.561393     5A    -11.368741     6A    -11.305353
       7A    -11.270878     8A    -11.262001     9A    -11.254050
      10A     -1.440199    11A     -1.345700    12A     -1.245159
      13A     -1.173196    14A     -1.022952    15A     -0.956394
      16A     -0.842457    17A     -0.817615    18A     -0.794512
      19A     -0.772664    20A     -0.680200    21A     -0.657253
      22A     -0.643339    23A     -0.610758    24A     -0.603771
      25A     -0.596819    26A     -0.587766    27A     -0.561218
      28A     -0.554339    29A     -0.460978    30A     -0.438278
      31A     -0.415677    32A     -0.399586    33A     -0.321763

  @DF-RHF Final Energy:  -431.78944337015940

   => Energetics <=

    Nuclear Repulsion Energy =            432.5258299306365757
    One-Electron Energy =               -1445.1769793419343841
    Two-Electron Energy =                 580.8617060411384045
    Total Energy =                       -431.7894433701594608
  Basis Set: (AUG-CC-PVTZ AUX)
    Blend: AUG-CC-PVTZ-RI
    Molecular point group: c1

    Geometry (in Angstrom), charge = 0, multiplicity = 1:

       Center              X                  Y                   Z               Mass
    ------------   -----------------  -----------------  -----------------  -----------------
         O            1.278978953596     1.570378980701    -0.000003992803    15.994914619570
         N           -1.445612046404     0.957802980701     0.000003007197    14.003074004430
         N            1.781400953596    -0.686867019299     0.000000007197    14.003074004430
         N           -1.011238046404    -1.228958019299     0.000000007197    14.003074004430
         C           -0.483526046404    -0.003106019299     0.000005007197    12.000000000000
         C            1.020333953596     0.439225080701     0.000000007197    12.000000000000
         C           -2.662116046404     0.328814980701    -0.000000992803    12.000000000000
         C           -2.367222046404    -1.023521019299    -0.000002992803    12.000000000000
         C            3.222268953596    -0.540233019299     0.000000007197    12.000000000000
         H           -1.237014046404     1.950984980701     0.000009007197     1.007825032230
         H            1.346596953596    -1.603749019299     0.000007007197     1.007825032230
         H           -3.596598046404     0.870575980701    -0.000000992803     1.007825032230
         H           -3.063418046404    -1.851657019299    -0.000006992803     1.007825032230
         H            3.438098953596     0.528102980701    -0.000006992803     1.007825032230
         H            3.661861953596    -0.997409019299    -0.891024992803     1.007825032230
         H            3.661857953596    -0.997396019299     0.891033007197     1.007825032230

  Basis Set: AUG-CC-PVTZ
    Blend: AUG-CC-PVTZ
  Basis Set: (AUG-CC-PVTZ AUX)
    Blend: AUG-CC-PVTZ-JKFIT
	 Reference Energy          =    -431.7894433701594039 [Eh]
	 Singles Energy            =      -0.0000000000000000 [Eh]
	 Same-Spin Energy          =      -0.4535563890276874 [Eh]
	 Opposite-Spin Energy      =      -1.3756989609999535 [Eh]
	 Correlation Energy        =      -1.8292553500276409 [Eh]
	 Total Energy              =    -433.6186987201870693 [Eh]

	 ================> DF-SCS-MP2 Energies <==================
	-----------------------------------------------------------
	 SCS Same-Spin Scale       =       0.3333333333333333 [-]
	 SCS Opposite-Spin Scale   =       1.2000000000000000 [-]
	 SCS Same-Spin Energy      =      -0.1511854630092291 [Eh]
	 SCS Opposite-Spin Energy  =      -1.6508387531999442 [Eh]
	 SCS Correlation Energy    =      -1.8020242162091733 [Eh]
	 SCS Total Energy          =    -433.5914675863685943 [Eh]
	-----------------------------------------------------------

  Dipole Moment: [D]
     X:    -0.4169      Y:     0.0919      Z:     0.0000     Total:     0.4269

*** Psi4 exiting successfully. Buy a developer a beer!
