                               Psi4 1.3.2 release

  ==> Input File <==

--------------------------------------------------------------------------
#psi4
#
memory 32 gb

molecule  {
0 1
  O        1.2542850     1.5918540    -0.0000040
  N       -1.4703060     0.9792780     0.0000030
  N        1.7567070    -0.6653920     0.0000000
  N       -1.0359320    -1.2074830     0.0000000
  C       -0.5082200     0.0183690     0.0000050
  C        0.9183560     0.3972400     0.0000000
  C       -2.7756389     0.3043614    -0.0000013
  C       -2.3919160    -1.0020460    -0.0000030
  C        3.1975750    -0.5187580     0.0000000
  H       -1.2617080     1.9724600     0.0000090
  H        1.3219030    -1.5822740     0.0000070
  H       -3.6212920     0.8920510    -0.0000010
  H       -3.0881120    -1.8301820    -0.0000070
  H        3.4134050     0.5495780    -0.0000070
  H        3.6371680    -0.9759340    -0.8910250
  H        3.6371640    -0.9759210     0.8910330
units angstrom
no_reorient  #important for SAPT in psi4, default
symmetry c1  #important for SAPT in psi4, default
}

set PROPERTIES_ORIGIN ["COM"]
properties('MP2/aug-cc-pvtz', properties = ['dipole'])
--------------------------------------------------------------------------

    Molecular point group: c1
  Charge       = 0
  Multiplicity = 1
  Basis Set: AUG-CC-PVTZ
    Blend: AUG-CC-PVTZ
  Basis Set: (AUG-CC-PVTZ AUX)
    Blend: AUG-CC-PVTZ-JKFIT

    Orbital Energies [Eh]
    ---------------------

    Doubly Occupied:

       1A    -20.530575     2A    -15.628001     3A    -15.595489
       4A    -15.567794     5A    -11.369174     6A    -11.318060
       7A    -11.278814     8A    -11.264873     9A    -11.264643
      10A     -1.387027    11A     -1.332362    12A     -1.241717
      13A     -1.167192    14A     -1.041669    15A     -0.966523
      16A     -0.861644    17A     -0.819543    18A     -0.792133
      19A     -0.774103    20A     -0.661944    21A     -0.657045
      22A     -0.637480    23A     -0.627433    24A     -0.601004
      25A     -0.588325    26A     -0.578345    27A     -0.552365
      28A     -0.535880    29A     -0.465836    30A     -0.444558
      31A     -0.411589    32A     -0.395548    33A     -0.338661

  @DF-RHF Final Energy:  -431.78559390258118

   => Energetics <=

    Nuclear Repulsion Energy =            430.9531832466082051
    One-Electron Energy =               -1442.0828560856441527
    Two-Electron Energy =                 579.3440789364547072
    Total Energy =                       -431.7855939025812404
  Basis Set: (AUG-CC-PVTZ AUX)
    Blend: AUG-CC-PVTZ-RI
    Molecular point group: c1

    Geometry (in Angstrom), charge = 0, multiplicity = 1:

       Center              X                  Y                   Z               Mass
    ------------   -----------------  -----------------  -----------------  -----------------
         O            1.294918279874     1.580875349016    -0.000003964017    15.994914619570
         N           -1.429672720126     0.968299349016     0.000003035983    14.003074004430
         N            1.797340279874    -0.676370650984     0.000000035983    14.003074004430
         N           -0.995298720126    -1.218461650984     0.000000035983    14.003074004430
         C           -0.467586720126     0.007390349016     0.000005035983    12.000000000000
         C            0.958989279874     0.386261349016     0.000000035983    12.000000000000
         C           -2.735005620126     0.293382749016    -0.000001264017    12.000000000000
         C           -2.351282720126    -1.013024650984    -0.000002964017    12.000000000000
         C            3.238208279874    -0.529736650984     0.000000035983    12.000000000000
         H           -1.221074720126     1.961481349016     0.000009035983     1.007825032230
         H            1.362536279874    -1.593252650984     0.000007035983     1.007825032230
         H           -3.580658720126     0.881072349016    -0.000000964017     1.007825032230
         H           -3.047478720126    -1.841160650984    -0.000006964017     1.007825032230
         H            3.454038279874     0.538599349016    -0.000006964017     1.007825032230
         H            3.677801279874    -0.986912650984    -0.891024964017     1.007825032230
         H            3.677797279874    -0.986899650984     0.891033035983     1.007825032230

  Basis Set: AUG-CC-PVTZ
    Blend: AUG-CC-PVTZ
  Basis Set: (AUG-CC-PVTZ AUX)
    Blend: AUG-CC-PVTZ-JKFIT
	 Reference Energy          =    -431.7855939025811836 [Eh]
	 Singles Energy            =      -0.0000000000000000 [Eh]
	 Same-Spin Energy          =      -0.4550112212140756 [Eh]
	 Opposite-Spin Energy      =      -1.3806450059237283 [Eh]
	 Correlation Energy        =      -1.8356562271378039 [Eh]
	 Total Energy              =    -433.6212501297189874 [Eh]

	 ================> DF-SCS-MP2 Energies <==================
	-----------------------------------------------------------
	 SCS Same-Spin Scale       =       0.3333333333333333 [-]
	 SCS Opposite-Spin Scale   =       1.2000000000000000 [-]
	 SCS Same-Spin Energy      =      -0.1516704070713585 [Eh]
	 SCS Opposite-Spin Energy  =      -1.6567740071084740 [Eh]
	 SCS Correlation Energy    =      -1.8084444141798326 [Eh]
	 SCS Total Energy          =    -433.5940383167610435 [Eh]
	-----------------------------------------------------------

  Dipole Moment: [D]
     X:    -0.9102      Y:    -0.4893      Z:     0.0000     Total:     1.0334

*** Psi4 exiting successfully. Buy a developer a beer!
