                               Psi4 1.4a3.dev225

  ==> Input File <==

--------------------------------------------------------------------------
#psi4
#
memory 32 gb

molecule  {
0 1
  O        1.2542850     1.5918540    -0.0000040
  N       -1.4703060     0.9792780     0.0000030
  N        1.7567070    -0.6653920     0.0000000
  N       -1.0359320    -1.2074830     0.0000000
  C       -0.5082200     0.0183690     0.0000050
  C        0.9183560     0.3972400     0.0000000
  C       -2.6690442     0.3594757    -0.0000009
  C       -2.3919160    -1.0020460    -0.0000030
  C        3.1975750    -0.5187580     0.0000000
  H       -1.2617080     1.9724600     0.0000090
  H        1.3219030    -1.5822740     0.0000070
  H       -3.6212920     0.8920510    -0.0000010
  H       -3.0881120    -1.8301820    -0.0000070
  H        3.4134050     0.5495780    -0.0000070
  H        3.6371680    -0.9759340    -0.8910250
  H        3.6371640    -0.9759210     0.8910330
units angstrom
no_reorient  #important for SAPT in psi4, default
symmetry c1  #important for SAPT in psi4, default
}

set PROPERTIES_ORIGIN ["COM"]
properties('MP2/aug-cc-pvtz', properties = ['dipole'])
--------------------------------------------------------------------------

    Molecular point group: c1
  Charge       = 0
  Multiplicity = 1
  Basis Set: AUG-CC-PVTZ
    Blend: AUG-CC-PVTZ
  Basis Set: (AUG-CC-PVTZ AUX)
    Blend: AUG-CC-PVTZ-JKFIT

    Orbital Energies [Eh]
    ---------------------

    Doubly Occupied:

       1A    -20.527021     2A    -15.637043     3A    -15.591877
       4A    -15.571684     5A    -11.365880     6A    -11.308708
       7A    -11.280218     8A    -11.262587     9A    -11.260035
      10A     -1.387205    11A     -1.351480    12A     -1.239516
      13A     -1.183077    14A     -1.037885    15A     -0.961176
      16A     -0.858149    17A     -0.826713    18A     -0.798653
      19A     -0.772271    20A     -0.670984    21A     -0.649841
      22A     -0.639548    23A     -0.612022    24A     -0.609631
      25A     -0.597165    26A     -0.585839    27A     -0.550107
      28A     -0.536793    29A     -0.464099    30A     -0.441934
      31A     -0.419697    32A     -0.395167    33A     -0.326632

  @DF-RHF Final Energy:  -431.79657733352212

   => Energetics <=

    Nuclear Repulsion Energy =            432.9313232458762286
    One-Electron Energy =               -1446.0145261491056772
    Two-Electron Energy =                 581.2866255697073257
    Total Energy =                       -431.7965773335221229
  Basis Set: (AUG-CC-PVTZ AUX)
    Blend: AUG-CC-PVTZ-RI
    Molecular point group: c1

    Geometry (in Angstrom), charge = 0, multiplicity = 1:

       Center              X                  Y                   Z               Mass
    ------------   -----------------  -----------------  -----------------  -----------------
         O            1.284690009205     1.575586868650    -0.000004002399    15.994914619570
         N           -1.439900990795     0.963010868650     0.000002997601    14.003074004430
         N            1.787112009205    -0.681659131350    -0.000000002399    14.003074004430
         N           -1.005526990795    -1.223750131350    -0.000000002399    14.003074004430
         C           -0.477814990795     0.002101868650     0.000004997601    12.000000000000
         C            0.948761009205     0.380972868650    -0.000000002399    12.000000000000
         C           -2.638639190795     0.343208568650    -0.000000902399    12.000000000000
         C           -2.361510990795    -1.018313131350    -0.000003002399    12.000000000000
         C            3.227980009205    -0.535025131350    -0.000000002399    12.000000000000
         H           -1.231302990795     1.956192868650     0.000008997601     1.007825032230
         H            1.352308009205    -1.598541131350     0.000006997601     1.007825032230
         H           -3.590886990795     0.875783868650    -0.000001002399     1.007825032230
         H           -3.057706990795    -1.846449131350    -0.000007002399     1.007825032230
         H            3.443810009205     0.533310868650    -0.000007002399     1.007825032230
         H            3.667573009205    -0.992201131350    -0.891025002399     1.007825032230
         H            3.667569009205    -0.992188131350     0.891032997601     1.007825032230

  Basis Set: AUG-CC-PVTZ
    Blend: AUG-CC-PVTZ
  Basis Set: (AUG-CC-PVTZ AUX)
    Blend: AUG-CC-PVTZ-JKFIT
	 Reference Energy          =    -431.7965773335221229 [Eh]
	 Singles Energy            =      -0.0000000000000000 [Eh]
	 Same-Spin Energy          =      -0.4558808562497952 [Eh]
	 Opposite-Spin Energy      =      -1.3794780908817772 [Eh]
	 Correlation Energy        =      -1.8353589471315725 [Eh]
	 Total Energy              =    -433.6319362806536901 [Eh]

	 ================> DF-SCS-MP2 Energies <==================
	-----------------------------------------------------------
	 SCS Same-Spin Scale       =       0.3333333333333333 [-]
	 SCS Opposite-Spin Scale   =       1.2000000000000000 [-]
	 SCS Same-Spin Energy      =      -0.1519602854165984 [Eh]
	 SCS Opposite-Spin Energy  =      -1.6553737090581326 [Eh]
	 SCS Correlation Energy    =      -1.8073339944747311 [Eh]
	 SCS Total Energy          =    -433.6039113279968547 [Eh]
	-----------------------------------------------------------

  Dipole Moment: [D]
     X:    -0.9930      Y:    -0.3795      Z:     0.0000     Total:     1.0630

*** Psi4 exiting successfully. Buy a developer a beer!
