                               Psi4 1.3.2 release

  ==> Input File <==

--------------------------------------------------------------------------
#psi4
#
memory 32 gb

molecule  {
0 1
  O        1.2542850     1.5918540    -0.0000040
  N       -1.4703060     0.9792780     0.0000030
  N        1.7567070    -0.6653920     0.0000000
  N       -1.0359320    -1.2074830     0.0000000
  C       -0.4686796     0.1102197     0.0000054
  C        0.9183560     0.3972400     0.0000000
  C       -2.6868100     0.3502900    -0.0000010
  C       -2.3919160    -1.0020460    -0.0000030
  C        3.1975750    -0.5187580     0.0000000
  H       -1.2617080     1.9724600     0.0000090
  H        1.3219030    -1.5822740     0.0000070
  H       -3.6212920     0.8920510    -0.0000010
  H       -3.0881120    -1.8301820    -0.0000070
  H        3.4134050     0.5495780    -0.0000070
  H        3.6371680    -0.9759340    -0.8910250
  H        3.6371640    -0.9759210     0.8910330
units angstrom
no_reorient  #important for SAPT in psi4, default
symmetry c1  #important for SAPT in psi4, default
}

set PROPERTIES_ORIGIN ["COM"]
properties('MP2/aug-cc-pvtz', properties = ['dipole'])
--------------------------------------------------------------------------

    Molecular point group: c1
  Charge       = 0
  Multiplicity = 1
  Basis Set: AUG-CC-PVTZ
    Blend: AUG-CC-PVTZ
  Basis Set: (AUG-CC-PVTZ AUX)
    Blend: AUG-CC-PVTZ-JKFIT

    Orbital Energies [Eh]
    ---------------------

    Doubly Occupied:

       1A    -20.524312     2A    -15.647587     3A    -15.591819
       4A    -15.573989     5A    -11.362285     6A    -11.310633
       7A    -11.280023     8A    -11.265052     9A    -11.262782
      10A     -1.389397    11A     -1.346280    12A     -1.238765
      13A     -1.164917    14A     -1.046171    15A     -0.963172
      16A     -0.869190    17A     -0.822445    18A     -0.802749
      19A     -0.773519    20A     -0.671842    21A     -0.651555
      22A     -0.640746    23A     -0.613578    24A     -0.607959
      25A     -0.600565    26A     -0.581683    27A     -0.549950
      28A     -0.536989    29A     -0.452769    30A     -0.443916
      31A     -0.411670    32A     -0.394378    33A     -0.324667

  @DF-RHF Final Energy:  -431.77849113548530

   => Energetics <=

    Nuclear Repulsion Energy =            432.4806197306278364
    One-Electron Energy =               -1445.0835152128265690
    Two-Electron Energy =                 580.8244043467134361
    Total Energy =                       -431.7784911354852966
  Basis Set: (AUG-CC-PVTZ AUX)
    Blend: AUG-CC-PVTZ-RI
    Molecular point group: c1

    Geometry (in Angstrom), charge = 0, multiplicity = 1:

       Center              X                  Y                   Z               Mass
    ------------   -----------------  -----------------  -----------------  -----------------
         O            1.282600632318     1.567654767009    -0.000004031185    15.994914619570
         N           -1.441990367682     0.955078767009     0.000002968815    14.003074004430
         N            1.785022632318    -0.689591232991    -0.000000031185    14.003074004430
         N           -1.007616367682    -1.231682232991    -0.000000031185    14.003074004430
         C           -0.440363967682     0.086020467009     0.000005368815    12.000000000000
         C            0.946671632318     0.373040767009    -0.000000031185    12.000000000000
         C           -2.658494367682     0.326090767009    -0.000001031185    12.000000000000
         C           -2.363600367682    -1.026245232991    -0.000003031185    12.000000000000
         C            3.225890632318    -0.542957232991    -0.000000031185    12.000000000000
         H           -1.233392367682     1.948260767009     0.000008968815     1.007825032230
         H            1.350218632318    -1.606473232991     0.000006968815     1.007825032230
         H           -3.592976367682     0.867851767009    -0.000001031185     1.007825032230
         H           -3.059796367682    -1.854381232991    -0.000007031185     1.007825032230
         H            3.441720632318     0.525378767009    -0.000007031185     1.007825032230
         H            3.665483632318    -1.000133232991    -0.891025031185     1.007825032230
         H            3.665479632318    -1.000120232991     0.891032968815     1.007825032230

  Basis Set: AUG-CC-PVTZ
    Blend: AUG-CC-PVTZ
  Basis Set: (AUG-CC-PVTZ AUX)
    Blend: AUG-CC-PVTZ-JKFIT
	 Reference Energy          =    -431.7784911354852966 [Eh]
	 Singles Energy            =      -0.0000000000000000 [Eh]
	 Same-Spin Energy          =      -0.4583259655485868 [Eh]
	 Opposite-Spin Energy      =      -1.3840177482922509 [Eh]
	 Correlation Energy        =      -1.8423437138408376 [Eh]
	 Total Energy              =    -433.6208348493261155 [Eh]

	 ================> DF-SCS-MP2 Energies <==================
	-----------------------------------------------------------
	 SCS Same-Spin Scale       =       0.3333333333333333 [-]
	 SCS Opposite-Spin Scale   =       1.2000000000000000 [-]
	 SCS Same-Spin Energy      =      -0.1527753218495289 [Eh]
	 SCS Opposite-Spin Energy  =      -1.6608212979507011 [Eh]
	 SCS Correlation Energy    =      -1.8135966198002300 [Eh]
	 SCS Total Energy          =    -433.5920877552855472 [Eh]
	-----------------------------------------------------------

  Dipole Moment: [D]
     X:    -1.2168      Y:    -0.3224      Z:     0.0000     Total:     1.2588

*** Psi4 exiting successfully. Buy a developer a beer!
