                               Psi4 1.3.2 release

  ==> Input File <==

--------------------------------------------------------------------------
#psi4
#
memory 32 gb

molecule  {
0 1
  O        1.3367988     1.5655108    -0.0000042
  N       -1.4703060     0.9792780     0.0000030
  N        1.7567070    -0.6653920     0.0000000
  N       -1.0359320    -1.2074830     0.0000000
  C       -0.5082200     0.0183690     0.0000050
  C        0.9183560     0.3972400     0.0000000
  C       -2.6868100     0.3502900    -0.0000010
  C       -2.3919160    -1.0020460    -0.0000030
  C        3.1975750    -0.5187580     0.0000000
  H       -1.2617080     1.9724600     0.0000090
  H        1.3219030    -1.5822740     0.0000070
  H       -3.6212920     0.8920510    -0.0000010
  H       -3.0881120    -1.8301820    -0.0000070
  H        3.4134050     0.5495780    -0.0000070
  H        3.6371680    -0.9759340    -0.8910250
  H        3.6371640    -0.9759210     0.8910330
units angstrom
no_reorient  #important for SAPT in psi4, default
symmetry c1  #important for SAPT in psi4, default
}

set PROPERTIES_ORIGIN ["COM"]
properties('MP2/aug-cc-pvtz', properties = ['dipole'])
--------------------------------------------------------------------------

    Molecular point group: c1
  Charge       = 0
  Multiplicity = 1
  Basis Set: AUG-CC-PVTZ
    Blend: AUG-CC-PVTZ
  Basis Set: (AUG-CC-PVTZ AUX)
    Blend: AUG-CC-PVTZ-JKFIT

    Orbital Energies [Eh]
    ---------------------

    Doubly Occupied:

       1A    -20.525594     2A    -15.638923     3A    -15.587990
       4A    -15.573886     5A    -11.365484     6A    -11.314296
       7A    -11.282236     8A    -11.263208     9A    -11.259269
      10A     -1.386489    11A     -1.351100    12A     -1.234276
      13A     -1.182845    14A     -1.041234    15A     -0.960262
      16A     -0.859969    17A     -0.827696    18A     -0.798589
      19A     -0.770566    20A     -0.669600    21A     -0.649366
      22A     -0.638478    23A     -0.616475    24A     -0.608034
      25A     -0.597693    26A     -0.586441    27A     -0.545821
      28A     -0.535265    29A     -0.466634    30A     -0.441730
      31A     -0.419845    32A     -0.392151    33A     -0.331292

  @DF-RHF Final Energy:  -431.79532075290587

   => Energetics <=

    Nuclear Repulsion Energy =            432.3942065641691670
    One-Electron Energy =               -1444.9335818969768752
    Two-Electron Energy =                 580.7440545799018992
    Total Energy =                       -431.7953207529058091
  Basis Set: (AUG-CC-PVTZ AUX)
    Blend: AUG-CC-PVTZ-RI
    Molecular point group: c1

    Geometry (in Angstrom), charge = 0, multiplicity = 1:

       Center              X                  Y                   Z               Mass
    ------------   -----------------  -----------------  -----------------  -----------------
         O            1.358355086875     1.553494350404    -0.000004167223    15.994914619570
         N           -1.448749713125     0.967261550404     0.000003032777    14.003074004430
         N            1.778263286875    -0.677408449596     0.000000032777    14.003074004430
         N           -1.014375713125    -1.219499449596     0.000000032777    14.003074004430
         C           -0.486663713125     0.006352550404     0.000005032777    12.000000000000
         C            0.939912286875     0.385223550404     0.000000032777    12.000000000000
         C           -2.665253713125     0.338273550404    -0.000000967223    12.000000000000
         C           -2.370359713125    -1.014062449596    -0.000002967223    12.000000000000
         C            3.219131286875    -0.530774449596     0.000000032777    12.000000000000
         H           -1.240151713125     1.960443550404     0.000009032777     1.007825032230
         H            1.343459286875    -1.594290449596     0.000007032777     1.007825032230
         H           -3.599735713125     0.880034550404    -0.000000967223     1.007825032230
         H           -3.066555713125    -1.842198449596    -0.000006967223     1.007825032230
         H            3.434961286875     0.537561550404    -0.000006967223     1.007825032230
         H            3.658724286875    -0.987950449596    -0.891024967223     1.007825032230
         H            3.658720286875    -0.987937449596     0.891033032777     1.007825032230

  Basis Set: AUG-CC-PVTZ
    Blend: AUG-CC-PVTZ
  Basis Set: (AUG-CC-PVTZ AUX)
    Blend: AUG-CC-PVTZ-JKFIT
	 Reference Energy          =    -431.7953207529058659 [Eh]
	 Singles Energy            =      -0.0000000000000000 [Eh]
	 Same-Spin Energy          =      -0.4559232635462641 [Eh]
	 Opposite-Spin Energy      =      -1.3798688750922308 [Eh]
	 Correlation Energy        =      -1.8357921386384950 [Eh]
	 Total Energy              =    -433.6311128915443760 [Eh]

	 ================> DF-SCS-MP2 Energies <==================
	-----------------------------------------------------------
	 SCS Same-Spin Scale       =       0.3333333333333333 [-]
	 SCS Opposite-Spin Scale   =       1.2000000000000000 [-]
	 SCS Same-Spin Energy      =      -0.1519744211820880 [Eh]
	 SCS Opposite-Spin Energy  =      -1.6558426501106769 [Eh]
	 SCS Correlation Energy    =      -1.8078170712927650 [Eh]
	 SCS Total Energy          =    -433.6031378241986545 [Eh]
	-----------------------------------------------------------

  Dipole Moment: [D]
     X:    -1.2943      Y:    -0.3454      Z:     0.0000     Total:     1.3396

*** Psi4 exiting successfully. Buy a developer a beer!
