                               Psi4 1.3.2 release

  ==> Input File <==

--------------------------------------------------------------------------
#psi4
#
memory 32 gb

molecule  {
0 1
  O        1.2542850     1.5918540    -0.0000040
  N       -1.4703060     0.9792780     0.0000030
  N        1.7567070    -0.6653920     0.0000000
  N       -1.0359320    -1.2074830     0.0000000
  C       -0.5082200     0.0183690     0.0000050
  C        0.7250568     0.3459035     0.0000007
  C       -2.6868100     0.3502900    -0.0000010
  C       -2.3919160    -1.0020460    -0.0000030
  C        3.1975750    -0.5187580     0.0000000
  H       -1.2617080     1.9724600     0.0000090
  H        1.3219030    -1.5822740     0.0000070
  H       -3.6212920     0.8920510    -0.0000010
  H       -3.0881120    -1.8301820    -0.0000070
  H        3.4134050     0.5495780    -0.0000070
  H        3.6371680    -0.9759340    -0.8910250
  H        3.6371640    -0.9759210     0.8910330
units angstrom
no_reorient  #important for SAPT in psi4, default
symmetry c1  #important for SAPT in psi4, default
}

set PROPERTIES_ORIGIN ["COM"]
properties('MP2/aug-cc-pvtz', properties = ['dipole'])
--------------------------------------------------------------------------

    Molecular point group: c1
  Charge       = 0
  Multiplicity = 1
  Basis Set: AUG-CC-PVTZ
    Blend: AUG-CC-PVTZ
  Basis Set: (AUG-CC-PVTZ AUX)
    Blend: AUG-CC-PVTZ-JKFIT

    Orbital Energies [Eh]
    ---------------------

    Doubly Occupied:

       1A    -20.510073     2A    -15.654377     3A    -15.596010
       4A    -15.579328     5A    -11.360494     6A    -11.305588
       7A    -11.304755     8A    -11.279788     9A    -11.253365
      10A     -1.384097    11A     -1.303972    12A     -1.210332
      13A     -1.182184    14A     -1.084947    15A     -0.959629
      16A     -0.895976    17A     -0.845268    18A     -0.815700
      19A     -0.734486    20A     -0.674924    21A     -0.649369
      22A     -0.648382    23A     -0.622879    24A     -0.606547
      25A     -0.599051    26A     -0.571265    27A     -0.522909
      28A     -0.504892    29A     -0.480438    30A     -0.430383
      31A     -0.423826    32A     -0.370730    33A     -0.342564

  @DF-RHF Final Energy:  -431.71989271860826

   => Energetics <=

    Nuclear Repulsion Energy =            433.2973376331476629
    One-Electron Energy =               -1446.6174101885246728
    Two-Electron Energy =                 581.6001798367688025
    Total Energy =                       -431.7198927186082074
  Basis Set: (AUG-CC-PVTZ AUX)
    Blend: AUG-CC-PVTZ-RI
    Molecular point group: c1

    Geometry (in Angstrom), charge = 0, multiplicity = 1:

       Center              X                  Y                   Z               Mass
    ------------   -----------------  -----------------  -----------------  -----------------
         O            1.304942704214     1.581394262855    -0.000004059972    15.994914619570
         N           -1.419648295786     0.968818262855     0.000002940028    14.003074004430
         N            1.807364704214    -0.675851737145    -0.000000059972    14.003074004430
         N           -0.985274295786    -1.217942737145    -0.000000059972    14.003074004430
         C           -0.457562295786     0.007909262855     0.000004940028    12.000000000000
         C            0.775714504214     0.335443762855     0.000000640028    12.000000000000
         C           -2.636152295786     0.339830262855    -0.000001059972    12.000000000000
         C           -2.341258295786    -1.012505737145    -0.000003059972    12.000000000000
         C            3.248232704214    -0.529217737145    -0.000000059972    12.000000000000
         H           -1.211050295786     1.962000262855     0.000008940028     1.007825032230
         H            1.372560704214    -1.592733737145     0.000006940028     1.007825032230
         H           -3.570634295786     0.881591262855    -0.000001059972     1.007825032230
         H           -3.037454295786    -1.840641737145    -0.000007059972     1.007825032230
         H            3.464062704214     0.539118262855    -0.000007059972     1.007825032230
         H            3.687825704214    -0.986393737145    -0.891025059972     1.007825032230
         H            3.687821704214    -0.986380737145     0.891032940028     1.007825032230

  Basis Set: AUG-CC-PVTZ
    Blend: AUG-CC-PVTZ
  Basis Set: (AUG-CC-PVTZ AUX)
    Blend: AUG-CC-PVTZ-JKFIT
	 Reference Energy          =    -431.7198927186082642 [Eh]
	 Singles Energy            =      -0.0000000000000000 [Eh]
	 Same-Spin Energy          =      -0.4626827597470496 [Eh]
	 Opposite-Spin Energy      =      -1.3923327794977447 [Eh]
	 Correlation Energy        =      -1.8550155392447945 [Eh]
	 Total Energy              =    -433.5749082578530533 [Eh]

	 ================> DF-SCS-MP2 Energies <==================
	-----------------------------------------------------------
	 SCS Same-Spin Scale       =       0.3333333333333333 [-]
	 SCS Opposite-Spin Scale   =       1.2000000000000000 [-]
	 SCS Same-Spin Energy      =      -0.1542275865823499 [Eh]
	 SCS Opposite-Spin Energy  =      -1.6707993353972936 [Eh]
	 SCS Correlation Energy    =      -1.8250269219796436 [Eh]
	 SCS Total Energy          =    -433.5449196405879206 [Eh]
	-----------------------------------------------------------

  Dipole Moment: [D]
     X:    -2.5463      Y:    -0.6374      Z:     0.0000     Total:     2.6249

*** Psi4 exiting successfully. Buy a developer a beer!
