                               Psi4 1.3.2 release

  ==> Input File <==

--------------------------------------------------------------------------
#psi4
#
memory 32 gb

molecule  {
0 1
  O        1.2542850     1.5918540    -0.0000040
  N       -1.4814686     1.0004131     0.0000030
  N        1.7567070    -0.6653920     0.0000000
  N       -1.0359320    -1.2074830     0.0000000
  C       -0.5082200     0.0183690     0.0000050
  C        0.9183560     0.3972400     0.0000000
  C       -2.6868100     0.3502900    -0.0000010
  C       -2.3919160    -1.0020460    -0.0000030
  C        3.1975750    -0.5187580     0.0000000
  H       -1.2617080     1.9724600     0.0000090
  H        1.3219030    -1.5822740     0.0000070
  H       -3.6212920     0.8920510    -0.0000010
  H       -3.0881120    -1.8301820    -0.0000070
  H        3.4134050     0.5495780    -0.0000070
  H        3.6371680    -0.9759340    -0.8910250
  H        3.6371640    -0.9759210     0.8910330
units angstrom
no_reorient  #important for SAPT in psi4, default
symmetry c1  #important for SAPT in psi4, default
}

set PROPERTIES_ORIGIN ["COM"]
properties('MP2/aug-cc-pvtz', properties = ['dipole'])
--------------------------------------------------------------------------

    Molecular point group: c1
  Charge       = 0
  Multiplicity = 1
  Basis Set: AUG-CC-PVTZ
    Blend: AUG-CC-PVTZ
  Basis Set: (AUG-CC-PVTZ AUX)
    Blend: AUG-CC-PVTZ-JKFIT

    Orbital Energies [Eh]
    ---------------------

    Doubly Occupied:

       1A    -20.527426     2A    -15.634322     3A    -15.592431
       4A    -15.574014     5A    -11.366385     6A    -11.312641
       7A    -11.281614     8A    -11.262920     9A    -11.260935
      10A     -1.385688    11A     -1.344102    12A     -1.239865
      13A     -1.182659    14A     -1.036840    15A     -0.961768
      16A     -0.861292    17A     -0.826516    18A     -0.794935
      19A     -0.772216    20A     -0.669254    21A     -0.650950
      22A     -0.637589    23A     -0.616195    24A     -0.606253
      25A     -0.595363    26A     -0.585652    27A     -0.550478
      28A     -0.536439    29A     -0.466195    30A     -0.442437
      31A     -0.419715    32A     -0.395443    33A     -0.327829

  @DF-RHF Final Energy:  -431.79563295205600

   => Energetics <=

    Nuclear Repulsion Energy =            432.0556469142412084
    One-Electron Energy =               -1444.2658415169510135
    Two-Electron Energy =                 580.4145616506539227
    Total Energy =                       -431.7956329520559393
  Basis Set: (AUG-CC-PVTZ AUX)
    Blend: AUG-CC-PVTZ-RI
    Molecular point group: c1

    Geometry (in Angstrom), charge = 0, multiplicity = 1:

       Center              X                  Y                   Z               Mass
    ------------   -----------------  -----------------  -----------------  -----------------
         O            1.287644619224     1.574101744826    -0.000003992803    15.994914619570
         N           -1.448108980776     0.982660844826     0.000003007197    14.003074004430
         N            1.790066619224    -0.683144255174     0.000000007197    14.003074004430
         N           -1.002572380776    -1.225235255174     0.000000007197    14.003074004430
         C           -0.474860380776     0.000616744826     0.000005007197    12.000000000000
         C            0.951715619224     0.379487744826     0.000000007197    12.000000000000
         C           -2.653450380776     0.332537744826    -0.000000992803    12.000000000000
         C           -2.358556380776    -1.019798255174    -0.000002992803    12.000000000000
         C            3.230934619224    -0.536510255174     0.000000007197    12.000000000000
         H           -1.228348380776     1.954707744826     0.000009007197     1.007825032230
         H            1.355262619224    -1.600026255174     0.000007007197     1.007825032230
         H           -3.587932380776     0.874298744826    -0.000000992803     1.007825032230
         H           -3.054752380776    -1.847934255174    -0.000006992803     1.007825032230
         H            3.446764619224     0.531825744826    -0.000006992803     1.007825032230
         H            3.670527619224    -0.993686255174    -0.891024992803     1.007825032230
         H            3.670523619224    -0.993673255174     0.891033007197     1.007825032230

  Basis Set: AUG-CC-PVTZ
    Blend: AUG-CC-PVTZ
  Basis Set: (AUG-CC-PVTZ AUX)
    Blend: AUG-CC-PVTZ-JKFIT
	 Reference Energy          =    -431.7956329520559962 [Eh]
	 Singles Energy            =      -0.0000000000000000 [Eh]
	 Same-Spin Energy          =      -0.4556652888852176 [Eh]
	 Opposite-Spin Energy      =      -1.3798655319747120 [Eh]
	 Correlation Energy        =      -1.8355308208599297 [Eh]
	 Total Energy              =    -433.6311637729158974 [Eh]

	 ================> DF-SCS-MP2 Energies <==================
	-----------------------------------------------------------
	 SCS Same-Spin Scale       =       0.3333333333333333 [-]
	 SCS Opposite-Spin Scale   =       1.2000000000000000 [-]
	 SCS Same-Spin Energy      =      -0.1518884296284059 [Eh]
	 SCS Opposite-Spin Energy  =      -1.6558386383696544 [Eh]
	 SCS Correlation Energy    =      -1.8077270679980604 [Eh]
	 SCS Total Energy          =    -433.6033600200540832 [Eh]
	-----------------------------------------------------------

  Dipole Moment: [D]
     X:    -0.9756      Y:    -0.4568      Z:     0.0000     Total:     1.0772

*** Psi4 exiting successfully. Buy a developer a beer!
