                               Psi4 1.3.2 release

  ==> Input File <==

--------------------------------------------------------------------------
#psi4
#
memory 32 gb

molecule  {
0 1
  O        1.2542850     1.5918540    -0.0000040
  N       -1.4703060     0.9792780     0.0000030
  N        1.7567070    -0.6653920     0.0000000
  N       -1.0359320    -1.2074830     0.0000000
  C       -0.5082200     0.0183690     0.0000050
  C        0.9183560     0.3972400     0.0000000
  C       -2.7080203     0.3931285    -0.0000007
  C       -2.3919160    -1.0020460    -0.0000030
  C        3.1975750    -0.5187580     0.0000000
  H       -1.2617080     1.9724600     0.0000090
  H        1.3219030    -1.5822740     0.0000070
  H       -3.6212920     0.8920510    -0.0000010
  H       -3.0881120    -1.8301820    -0.0000070
  H        3.4134050     0.5495780    -0.0000070
  H        3.6371680    -0.9759340    -0.8910250
  H        3.6371640    -0.9759210     0.8910330
units angstrom
no_reorient  #important for SAPT in psi4, default
symmetry c1  #important for SAPT in psi4, default
}

set PROPERTIES_ORIGIN ["COM"]
properties('MP2/aug-cc-pvtz', properties = ['dipole'])
--------------------------------------------------------------------------

    Molecular point group: c1
  Charge       = 0
  Multiplicity = 1
  Basis Set: AUG-CC-PVTZ
    Blend: AUG-CC-PVTZ
  Basis Set: (AUG-CC-PVTZ AUX)
    Blend: AUG-CC-PVTZ-JKFIT

    Orbital Energies [Eh]
    ---------------------

    Doubly Occupied:

       1A    -20.527103     2A    -15.639112     3A    -15.592463
       4A    -15.573161     5A    -11.366457     6A    -11.310100
       7A    -11.282433     8A    -11.266933     9A    -11.262928
      10A     -1.386275    11A     -1.345941    12A     -1.239885
      13A     -1.181841    14A     -1.034918    15A     -0.961229
      16A     -0.857284    17A     -0.825402    18A     -0.800279
      19A     -0.774335    20A     -0.674634    21A     -0.651568
      22A     -0.638447    23A     -0.610945    24A     -0.607110
      25A     -0.598514    26A     -0.585655    27A     -0.550446
      28A     -0.536025    29A     -0.464863    30A     -0.442284
      31A     -0.419472    32A     -0.395375    33A     -0.322349

  @DF-RHF Final Energy:  -431.79159945044353

   => Energetics <=

    Nuclear Repulsion Energy =            431.8436806356317561
    One-Electron Energy =               -1443.8190311577548073
    Two-Electron Energy =                 580.1837510716795805
    Total Energy =                       -431.7915994504435275
  Basis Set: (AUG-CC-PVTZ AUX)
    Blend: AUG-CC-PVTZ-RI
    Molecular point group: c1

    Geometry (in Angstrom), charge = 0, multiplicity = 1:

       Center              X                  Y                   Z               Mass
    ------------   -----------------  -----------------  -----------------  -----------------
         O            1.288429952189     1.572357721730    -0.000004021590    15.994914619570
         N           -1.436161047811     0.959781721730     0.000002978410    14.003074004430
         N            1.790851952189    -0.684888278270    -0.000000021590    14.003074004430
         N           -1.001787047811    -1.226979278270    -0.000000021590    14.003074004430
         C           -0.474075047811    -0.001127278270     0.000004978410    12.000000000000
         C            0.952500952189     0.377743721730    -0.000000021590    12.000000000000
         C           -2.673875347811     0.373632221730    -0.000000721590    12.000000000000
         C           -2.357771047811    -1.021542278270    -0.000003021590    12.000000000000
         C            3.231719952189    -0.538254278270    -0.000000021590    12.000000000000
         H           -1.227563047811     1.952963721730     0.000008978410     1.007825032230
         H            1.356047952189    -1.601770278270     0.000006978410     1.007825032230
         H           -3.587147047811     0.872554721730    -0.000001021590     1.007825032230
         H           -3.053967047811    -1.849678278270    -0.000007021590     1.007825032230
         H            3.447549952189     0.530081721730    -0.000007021590     1.007825032230
         H            3.671312952189    -0.995430278270    -0.891025021590     1.007825032230
         H            3.671308952189    -0.995417278270     0.891032978410     1.007825032230

  Basis Set: AUG-CC-PVTZ
    Blend: AUG-CC-PVTZ
  Basis Set: (AUG-CC-PVTZ AUX)
    Blend: AUG-CC-PVTZ-JKFIT
	 Reference Energy          =    -431.7915994504435275 [Eh]
	 Singles Energy            =      -0.0000000000000000 [Eh]
	 Same-Spin Energy          =      -0.4563948753969822 [Eh]
	 Opposite-Spin Energy      =      -1.3808468376644680 [Eh]
	 Correlation Energy        =      -1.8372417130614502 [Eh]
	 Total Energy              =    -433.6288411635050011 [Eh]

	 ================> DF-SCS-MP2 Energies <==================
	-----------------------------------------------------------
	 SCS Same-Spin Scale       =       0.3333333333333333 [-]
	 SCS Opposite-Spin Scale   =       1.2000000000000000 [-]
	 SCS Same-Spin Energy      =      -0.1521316251323274 [Eh]
	 SCS Opposite-Spin Energy  =      -1.6570162051973616 [Eh]
	 SCS Correlation Energy    =      -1.8091478303296891 [Eh]
	 SCS Total Energy          =    -433.6007472807731915 [Eh]
	-----------------------------------------------------------

  Dipole Moment: [D]
     X:    -0.9792      Y:    -0.3889      Z:     0.0000     Total:     1.0536

*** Psi4 exiting successfully. Buy a developer a beer!
