                               Psi4 1.3.2 release

  ==> Input File <==

--------------------------------------------------------------------------
#psi4
#
memory 32 gb

molecule  {
0 1
  O        1.2542850     1.5918540    -0.0000040
  N       -1.4703060     0.9792780     0.0000030
  N        1.7567070    -0.6653920     0.0000000
  N       -1.0359320    -1.2074830     0.0000000
  C       -0.4752708     0.0525307     0.0000054
  C        0.9183560     0.3972400     0.0000000
  C       -2.6868100     0.3502900    -0.0000010
  C       -2.3919160    -1.0020460    -0.0000030
  C        3.1975750    -0.5187580     0.0000000
  H       -1.2617080     1.9724600     0.0000090
  H        1.3219030    -1.5822740     0.0000070
  H       -3.6212920     0.8920510    -0.0000010
  H       -3.0881120    -1.8301820    -0.0000070
  H        3.4134050     0.5495780    -0.0000070
  H        3.6371680    -0.9759340    -0.8910250
  H        3.6371640    -0.9759210     0.8910330
units angstrom
no_reorient  #important for SAPT in psi4, default
symmetry c1  #important for SAPT in psi4, default
}

set PROPERTIES_ORIGIN ["COM"]
properties('MP2/aug-cc-pvtz', properties = ['dipole'])
--------------------------------------------------------------------------

    Molecular point group: c1
  Charge       = 0
  Multiplicity = 1
  Basis Set: AUG-CC-PVTZ
    Blend: AUG-CC-PVTZ
  Basis Set: (AUG-CC-PVTZ AUX)
    Blend: AUG-CC-PVTZ-JKFIT

    Orbital Energies [Eh]
    ---------------------

    Doubly Occupied:

       1A    -20.525871     2A    -15.640661     3A    -15.591799
       4A    -15.574298     5A    -11.363712     6A    -11.310754
       7A    -11.281556     8A    -11.262809     9A    -11.262628
      10A     -1.387294    11A     -1.343070    12A     -1.239535
      13A     -1.171753    14A     -1.043445    15A     -0.962708
      16A     -0.865550    17A     -0.823262    18A     -0.796708
      19A     -0.772848    20A     -0.671034    21A     -0.651538
      22A     -0.639060    23A     -0.612164    24A     -0.606202
      25A     -0.597304    26A     -0.588215    27A     -0.550084
      28A     -0.536595    29A     -0.458151    30A     -0.444716
      31A     -0.414375    32A     -0.394636    33A     -0.327277

  @DF-RHF Final Energy:  -431.78996567745560

   => Energetics <=

    Nuclear Repulsion Energy =            432.4754749316923608
    One-Electron Energy =               -1445.1076594018088599
    Two-Electron Energy =                 580.8422187926609013
    Total Energy =                       -431.7899656774555979
  Basis Set: (AUG-CC-PVTZ AUX)
    Blend: AUG-CC-PVTZ-RI
    Molecular point group: c1

    Geometry (in Angstrom), charge = 0, multiplicity = 1:

       Center              X                  Y                   Z               Mass
    ------------   -----------------  -----------------  -----------------  -----------------
         O            1.283233089444     1.573190302140    -0.000004031185    15.994914619570
         N           -1.441357910556     0.960614302140     0.000002968815    14.003074004430
         N            1.785655089444    -0.684055697860    -0.000000031185    14.003074004430
         N           -1.006983910556    -1.226146697860    -0.000000031185    14.003074004430
         C           -0.446322710556     0.033867002140     0.000005368815    12.000000000000
         C            0.947304089444     0.378576302140    -0.000000031185    12.000000000000
         C           -2.657861910556     0.331626302140    -0.000001031185    12.000000000000
         C           -2.362967910556    -1.020709697860    -0.000003031185    12.000000000000
         C            3.226523089444    -0.537421697860    -0.000000031185    12.000000000000
         H           -1.232759910556     1.953796302140     0.000008968815     1.007825032230
         H            1.350851089444    -1.600937697860     0.000006968815     1.007825032230
         H           -3.592343910556     0.873387302140    -0.000001031185     1.007825032230
         H           -3.059163910556    -1.848845697860    -0.000007031185     1.007825032230
         H            3.442353089444     0.530914302140    -0.000007031185     1.007825032230
         H            3.666116089444    -0.994597697860    -0.891025031185     1.007825032230
         H            3.666112089444    -0.994584697860     0.891032968815     1.007825032230

  Basis Set: AUG-CC-PVTZ
    Blend: AUG-CC-PVTZ
  Basis Set: (AUG-CC-PVTZ AUX)
    Blend: AUG-CC-PVTZ-JKFIT
	 Reference Energy          =    -431.7899656774555979 [Eh]
	 Singles Energy            =      -0.0000000000000000 [Eh]
	 Same-Spin Energy          =      -0.4571720514968330 [Eh]
	 Opposite-Spin Energy      =      -1.3820515856312081 [Eh]
	 Correlation Energy        =      -1.8392236371280410 [Eh]
	 Total Energy              =    -433.6291893145836411 [Eh]

	 ================> DF-SCS-MP2 Energies <==================
	-----------------------------------------------------------
	 SCS Same-Spin Scale       =       0.3333333333333333 [-]
	 SCS Opposite-Spin Scale   =       1.2000000000000000 [-]
	 SCS Same-Spin Energy      =      -0.1523906838322777 [Eh]
	 SCS Opposite-Spin Energy  =      -1.6584619027574496 [Eh]
	 SCS Correlation Energy    =      -1.8108525865897274 [Eh]
	 SCS Total Energy          =    -433.6008182640453015 [Eh]
	-----------------------------------------------------------

  Dipole Moment: [D]
     X:    -1.1180      Y:    -0.3818      Z:     0.0000     Total:     1.1814

*** Psi4 exiting successfully. Buy a developer a beer!
