                               Psi4 1.3.2 release

  ==> Input File <==

--------------------------------------------------------------------------
#psi4
#
memory 32 gb

molecule  {
0 1
  O        1.2542850     1.5918540    -0.0000040
  N       -1.4703060     0.9792780     0.0000030
  N        1.7567070    -0.6653920     0.0000000
  N       -1.0359320    -1.2074830     0.0000000
  C       -0.5082200     0.0183690     0.0000050
  C        0.9183560     0.3972400     0.0000000
  C       -2.8644677     0.2584329    -0.0000016
  C       -2.3919160    -1.0020460    -0.0000030
  C        3.1975750    -0.5187580     0.0000000
  H       -1.2617080     1.9724600     0.0000090
  H        1.3219030    -1.5822740     0.0000070
  H       -3.6212920     0.8920510    -0.0000010
  H       -3.0881120    -1.8301820    -0.0000070
  H        3.4134050     0.5495780    -0.0000070
  H        3.6371680    -0.9759340    -0.8910250
  H        3.6371640    -0.9759210     0.8910330
units angstrom
no_reorient  #important for SAPT in psi4, default
symmetry c1  #important for SAPT in psi4, default
}

set PROPERTIES_ORIGIN ["COM"]
properties('MP2/aug-cc-pvtz', properties = ['dipole'])
--------------------------------------------------------------------------

    Molecular point group: c1
  Charge       = 0
  Multiplicity = 1
  Basis Set: AUG-CC-PVTZ
    Blend: AUG-CC-PVTZ
  Basis Set: (AUG-CC-PVTZ AUX)
    Blend: AUG-CC-PVTZ-JKFIT

    Orbital Energies [Eh]
    ---------------------

    Doubly Occupied:

       1A    -20.532508     2A    -15.619148     3A    -15.597702
       4A    -15.565217     5A    -11.371019     6A    -11.324046
       7A    -11.281112     8A    -11.270919     9A    -11.265846
      10A     -1.387731    11A     -1.320865    12A     -1.243031
      13A     -1.156085    14A     -1.044910    15A     -0.970688
      16A     -0.864864    17A     -0.821012    18A     -0.788639
      19A     -0.773122    20A     -0.671591    21A     -0.653023
      22A     -0.637283    23A     -0.635492    24A     -0.595189
      25A     -0.589552    26A     -0.553717    27A     -0.550888
      28A     -0.534782    29A     -0.466593    30A     -0.445997
      31A     -0.407624    32A     -0.394753    33A     -0.346972

  @DF-RHF Final Energy:  -431.75852271728519

   => Energetics <=

    Nuclear Repulsion Energy =            429.4059207421781252
    One-Electron Energy =               -1438.9650427530359593
    Two-Electron Energy =                 577.8005992935726454
    Total Energy =                       -431.7585227172852456
  Basis Set: (AUG-CC-PVTZ AUX)
    Blend: AUG-CC-PVTZ-RI
    Molecular point group: c1

    Geometry (in Angstrom), charge = 0, multiplicity = 1:

       Center              X                  Y                   Z               Mass
    ------------   -----------------  -----------------  -----------------  -----------------
         O            1.303441827569     1.585282407992    -0.000003935230    15.994914619570
         N           -1.421149172431     0.972706407992     0.000003064770    14.003074004430
         N            1.805863827569    -0.671963592008     0.000000064770    14.003074004430
         N           -0.986775172431    -1.214054592008     0.000000064770    14.003074004430
         C           -0.459063172431     0.011797407992     0.000005064770    12.000000000000
         C            0.967512827569     0.390668407992     0.000000064770    12.000000000000
         C           -2.815310872431     0.251861307992    -0.000001535230    12.000000000000
         C           -2.342759172431    -1.008617592008    -0.000002935230    12.000000000000
         C            3.246731827569    -0.525329592008     0.000000064770    12.000000000000
         H           -1.212551172431     1.965888407992     0.000009064770     1.007825032230
         H            1.371059827569    -1.588845592008     0.000007064770     1.007825032230
         H           -3.572135172431     0.885479407992    -0.000000935230     1.007825032230
         H           -3.038955172431    -1.836753592008    -0.000006935230     1.007825032230
         H            3.462561827569     0.543006407992    -0.000006935230     1.007825032230
         H            3.686324827569    -0.982505592008    -0.891024935230     1.007825032230
         H            3.686320827569    -0.982492592008     0.891033064770     1.007825032230

  Basis Set: AUG-CC-PVTZ
    Blend: AUG-CC-PVTZ
  Basis Set: (AUG-CC-PVTZ AUX)
    Blend: AUG-CC-PVTZ-JKFIT
	 Reference Energy          =    -431.7585227172851887 [Eh]
	 Singles Energy            =      -0.0000000000000000 [Eh]
	 Same-Spin Energy          =      -0.4546181666693571 [Eh]
	 Opposite-Spin Energy      =      -1.3821930002823863 [Eh]
	 Correlation Energy        =      -1.8368111669517435 [Eh]
	 Total Energy              =    -433.5953338842369362 [Eh]

	 ================> DF-SCS-MP2 Energies <==================
	-----------------------------------------------------------
	 SCS Same-Spin Scale       =       0.3333333333333333 [-]
	 SCS Opposite-Spin Scale   =       1.2000000000000000 [-]
	 SCS Same-Spin Energy      =      -0.1515393888897857 [Eh]
	 SCS Opposite-Spin Energy  =      -1.6586316003388635 [Eh]
	 SCS Correlation Energy    =      -1.8101709892286491 [Eh]
	 SCS Total Energy          =    -433.5686937065138409 [Eh]
	-----------------------------------------------------------

  Dipole Moment: [D]
     X:    -0.8688      Y:    -0.5712      Z:     0.0000     Total:     1.0398

*** Psi4 exiting successfully. Buy a developer a beer!
