                               Psi4 1.3.2 release

  ==> Input File <==

--------------------------------------------------------------------------
#psi4
#
memory 32 gb

molecule  {
0 1
  O        0.3445260    -1.4915130    -0.1284710
  O        1.3620620     2.0495660    -0.4184890
  O       -1.2647860     2.3345150     0.4675600
  O       -2.9390480     0.0425350    -0.1674130
  O        2.8793210    -0.7013140     0.9576500
  O       -1.7069560    -2.3717120     0.0066660
  C        0.6456770     0.9144350     0.0711800
  C       -0.8241260     1.1660500    -0.2009330
  C        1.0869890    -0.3499130    -0.6435990
  C       -1.6382468     0.0146351     0.1831285
  C        2.5464540    -0.6897970    -0.4256590
  C       -1.0085030    -1.3756800     0.0131050
  H        0.7972300     0.7916990     1.1507440
  H       -0.9848220     1.2466540    -1.2883090
  H        0.8858480    -0.2577880    -1.7199730
  H       -1.6065420     0.0748220     1.4324700
  H        3.1677010     0.0783010    -0.8925020
  H        2.7689760    -1.6509780    -0.9066980
  H        2.1781240     2.1240460     0.1069910
  H       -0.6426700     3.0335460     0.1906150
  H       -3.3011060    -0.8556610    -0.0346520
  H        2.3748870    -1.4344510     1.3537630
units angstrom
no_reorient  #important for SAPT in psi4, default
symmetry c1  #important for SAPT in psi4, default
}

set PROPERTIES_ORIGIN ["COM"]
properties('MP2/aug-cc-pvtz', properties = ['dipole'])
--------------------------------------------------------------------------

    Molecular point group: c1
  Charge       = 0
  Multiplicity = 1
  Basis Set: AUG-CC-PVTZ
    Blend: AUG-CC-PVTZ
  Basis Set: (AUG-CC-PVTZ AUX)
    Blend: AUG-CC-PVTZ-JKFIT

    Orbital Energies [Eh]
    ---------------------

    Doubly Occupied:

       1A    -20.629473     2A    -20.601523     3A    -20.587157
       4A    -20.582570     5A    -20.576403     6A    -20.567068
       7A    -11.408724     8A    -11.330908     9A    -11.326330
      10A    -11.316594    11A    -11.307443    12A    -11.307191
      13A     -1.477888    14A     -1.417321    15A     -1.409878
      16A     -1.387942    17A     -1.375434    18A     -1.369776
      19A     -1.102717    20A     -1.060800    21A     -0.954375
      22A     -0.881254    23A     -0.869533    24A     -0.798097
      25A     -0.769289    26A     -0.752750    27A     -0.724103
      28A     -0.703944    29A     -0.695133    30A     -0.686481
      31A     -0.657701    32A     -0.646119    33A     -0.631046
      34A     -0.628236    35A     -0.612879    36A     -0.599615
      37A     -0.581121    38A     -0.562439    39A     -0.541585
      40A     -0.535954    41A     -0.522494    42A     -0.506823
      43A     -0.485370    44A     -0.477263    45A     -0.470399
      46A     -0.453236    47A     -0.431010

  @DF-RHF Final Energy:  -682.43626018378359

   => Energetics <=

    Nuclear Repulsion Energy =            802.4336665895675651
    One-Electron Energy =               -2531.0970739158856304
    Two-Electron Energy =                1046.2271471425344771
    Total Energy =                       -682.4362601837835882
  Basis Set: (AUG-CC-PVTZ AUX)
    Blend: AUG-CC-PVTZ-RI
    Molecular point group: c1

    Geometry (in Angstrom), charge = 0, multiplicity = 1:

       Center              X                  Y                   Z               Mass
    ------------   -----------------  -----------------  -----------------  -----------------
         O            0.377161559064    -1.475368649600    -0.121904020297    15.994914619570
         O            1.394697559064     2.065710350400    -0.411922020297    15.994914619570
         O           -1.232150440936     2.350659350400     0.474126979703    15.994914619570
         O           -2.906412440936     0.058679350400    -0.160846020297    15.994914619570
         O            2.911956559064    -0.685169649600     0.964216979703    15.994914619570
         O           -1.674320440936    -2.355567649600     0.013232979703    15.994914619570
         C            0.678312559064     0.930579350400     0.077746979703    12.000000000000
         C           -0.791490440936     1.182194350400    -0.194366020297    12.000000000000
         C            1.119624559064    -0.333768649600    -0.637032020297    12.000000000000
         C           -1.605611240936     0.030779450400     0.189695479703    12.000000000000
         C            2.579089559064    -0.673652649600    -0.419092020297    12.000000000000
         C           -0.975867440936    -1.359535649600     0.019671979703    12.000000000000
         H            0.829865559064     0.807843350400     1.157310979703     1.007825032230
         H           -0.952186440936     1.262798350400    -1.281742020297     1.007825032230
         H            0.918483559064    -0.241643649600    -1.713406020297     1.007825032230
         H           -1.573906440936     0.090966350400     1.439036979703     1.007825032230
         H            3.200336559064     0.094445350400    -0.885935020297     1.007825032230
         H            2.801611559064    -1.634833649600    -0.900131020297     1.007825032230
         H            2.210759559064     2.140190350400     0.113557979703     1.007825032230
         H           -0.610034440936     3.049690350400     0.197181979703     1.007825032230
         H           -3.268470440936    -0.839516649600    -0.028085020297     1.007825032230
         H            2.407522559064    -1.418306649600     1.360329979703     1.007825032230

  Basis Set: AUG-CC-PVTZ
    Blend: AUG-CC-PVTZ
  Basis Set: (AUG-CC-PVTZ AUX)
    Blend: AUG-CC-PVTZ-JKFIT
	 Reference Energy          =    -682.4362601837835882 [Eh]
	 Singles Energy            =      -0.0000000000000000 [Eh]
	 Same-Spin Energy          =      -0.6635769185562969 [Eh]
	 Opposite-Spin Energy      =      -2.0113322892602077 [Eh]
	 Correlation Energy        =      -2.6749092078165044 [Eh]
	 Total Energy              =    -685.1111693916001286 [Eh]

	 ================> DF-SCS-MP2 Energies <==================
	-----------------------------------------------------------
	 SCS Same-Spin Scale       =       0.3333333333333333 [-]
	 SCS Opposite-Spin Scale   =       1.2000000000000000 [-]
	 SCS Same-Spin Energy      =      -0.2211923061854323 [Eh]
	 SCS Opposite-Spin Energy  =      -2.4135987471122493 [Eh]
	 SCS Correlation Energy    =      -2.6347910532976817 [Eh]
	 SCS Total Energy          =    -685.0710512370812921 [Eh]
	-----------------------------------------------------------

  Dipole Moment: [D]
     X:     3.2074      Y:     0.6481      Z:    -0.5403     Total:     3.3165

*** Psi4 exiting successfully. Buy a developer a beer!
