                               Psi4 1.3.2 release

  ==> Input File <==

--------------------------------------------------------------------------
#psi4
#
memory 32 gb

molecule  {
0 1
  O        0.3445260    -1.4915130    -0.1284710
  O        1.3620620     2.0495660    -0.4184890
  O       -1.2647860     2.3345150     0.4675600
  O       -2.9390480     0.0425350    -0.1674130
  O        2.8793210    -0.7013140     0.9576500
  O       -1.7069560    -2.3717120     0.0066660
  C        0.6456770     0.9144350     0.0711800
  C       -0.8241260     1.1660500    -0.2009330
  C        1.0869890    -0.3499130    -0.6435990
  C       -1.6506860     0.0285438     0.0848849
  C        2.5464540    -0.6897970    -0.4256590
  C       -1.0085030    -1.3756800     0.0131050
  H        0.7972300     0.7916990     1.1507440
  H       -0.9848220     1.2466540    -1.2883090
  H        0.8858480    -0.2577880    -1.7199730
  H       -1.6065420     0.0748220     1.4324700
  H        3.1677010     0.0783010    -0.8925020
  H        2.7689760    -1.6509780    -0.9066980
  H        2.1781240     2.1240460     0.1069910
  H       -0.6426700     3.0335460     0.1906150
  H       -3.3011060    -0.8556610    -0.0346520
  H        2.3748870    -1.4344510     1.3537630
units angstrom
no_reorient  #important for SAPT in psi4, default
symmetry c1  #important for SAPT in psi4, default
}

set PROPERTIES_ORIGIN ["COM"]
properties('MP2/aug-cc-pvtz', properties = ['dipole'])
--------------------------------------------------------------------------

    Molecular point group: c1
  Charge       = 0
  Multiplicity = 1
  Basis Set: AUG-CC-PVTZ
    Blend: AUG-CC-PVTZ
  Basis Set: (AUG-CC-PVTZ AUX)
    Blend: AUG-CC-PVTZ-JKFIT

    Orbital Energies [Eh]
    ---------------------

    Doubly Occupied:

       1A    -20.629297     2A    -20.602127     3A    -20.589439
       4A    -20.586792     5A    -20.577758     6A    -20.565145
       7A    -11.411434     8A    -11.340508     9A    -11.326448
      10A    -11.318116    11A    -11.308960    12A    -11.307402
      13A     -1.478413    14A     -1.434004    15A     -1.410653
      16A     -1.388638    17A     -1.375634    18A     -1.371597
      19A     -1.106562    20A     -1.062595    21A     -0.954331
      22A     -0.884398    23A     -0.869892    24A     -0.798789
      25A     -0.777209    26A     -0.759163    27A     -0.724874
      28A     -0.703303    29A     -0.694814    30A     -0.686950
      31A     -0.657147    32A     -0.647441    33A     -0.640526
      34A     -0.628513    35A     -0.612949    36A     -0.603625
      37A     -0.582006    38A     -0.564318    39A     -0.541707
      40A     -0.536967    41A     -0.523693    42A     -0.508138
      43A     -0.485567    44A     -0.476962    45A     -0.469932
      46A     -0.451569    47A     -0.406737

  @DF-RHF Final Energy:  -682.40698574540056

   => Energetics <=

    Nuclear Repulsion Energy =            802.8958973045190533
    One-Electron Energy =               -2531.8396860293137252
    Two-Electron Energy =                1046.5368029793939968
    Total Energy =                       -682.4069857454005614
  Basis Set: (AUG-CC-PVTZ AUX)
    Blend: AUG-CC-PVTZ-RI
    Molecular point group: c1

    Geometry (in Angstrom), charge = 0, multiplicity = 1:

       Center              X                  Y                   Z               Mass
    ------------   -----------------  -----------------  -----------------  -----------------
         O            0.377999931972    -1.476306063363    -0.115282632050    15.994914619570
         O            1.395535931972     2.064772936637    -0.405300632050    15.994914619570
         O           -1.231312068028     2.349721936637     0.480748367950    15.994914619570
         O           -2.905574068028     0.057741936637    -0.154224632050    15.994914619570
         O            2.912794931972    -0.686107063363     0.970838367950    15.994914619570
         O           -1.673482068028    -2.356505063363     0.019854367950    15.994914619570
         C            0.679150931972     0.929641936637     0.084368367950    12.000000000000
         C           -0.790652068028     1.181256936637    -0.187744632050    12.000000000000
         C            1.120462931972    -0.334706063363    -0.630410632050    12.000000000000
         C           -1.617212068028     0.043750736637     0.098073267950    12.000000000000
         C            2.579927931972    -0.674590063363    -0.412470632050    12.000000000000
         C           -0.975029068028    -1.360473063363     0.026293367950    12.000000000000
         H            0.830703931972     0.806905936637     1.163932367950     1.007825032230
         H           -0.951348068028     1.261860936637    -1.275120632050     1.007825032230
         H            0.919321931972    -0.242581063363    -1.706784632050     1.007825032230
         H           -1.573068068028     0.090028936637     1.445658367950     1.007825032230
         H            3.201174931972     0.093507936637    -0.879313632050     1.007825032230
         H            2.802449931972    -1.635771063363    -0.893509632050     1.007825032230
         H            2.211597931972     2.139252936637     0.120179367950     1.007825032230
         H           -0.609196068028     3.048752936637     0.203803367950     1.007825032230
         H           -3.267632068028    -0.840454063363    -0.021463632050     1.007825032230
         H            2.408360931972    -1.419244063363     1.366951367950     1.007825032230

  Basis Set: AUG-CC-PVTZ
    Blend: AUG-CC-PVTZ
  Basis Set: (AUG-CC-PVTZ AUX)
    Blend: AUG-CC-PVTZ-JKFIT
	 Reference Energy          =    -682.4069857454005614 [Eh]
	 Singles Energy            =      -0.0000000000000000 [Eh]
	 Same-Spin Energy          =      -0.6648830470958869 [Eh]
	 Opposite-Spin Energy      =      -2.0130266633304230 [Eh]
	 Correlation Energy        =      -2.6779097104263099 [Eh]
	 Total Energy              =    -685.0848954558268815 [Eh]

	 ================> DF-SCS-MP2 Energies <==================
	-----------------------------------------------------------
	 SCS Same-Spin Scale       =       0.3333333333333333 [-]
	 SCS Opposite-Spin Scale   =       1.2000000000000000 [-]
	 SCS Same-Spin Energy      =      -0.2216276823652956 [Eh]
	 SCS Opposite-Spin Energy  =      -2.4156319959965074 [Eh]
	 SCS Correlation Energy    =      -2.6372596783618030 [Eh]
	 SCS Total Energy          =    -685.0442454237623906 [Eh]
	-----------------------------------------------------------

  Dipole Moment: [D]
     X:     3.0474      Y:     0.7218      Z:    -0.7781     Total:     3.2269

*** Psi4 exiting successfully. Buy a developer a beer!
