                               Psi4 1.3.2 release

  ==> Input File <==

--------------------------------------------------------------------------
#psi4
#
memory 32 gb

molecule  {
0 1
  O        0.3445260    -1.4915130    -0.1284710
  O        1.3620620     2.0495660    -0.4184890
  O       -1.2647860     2.3345150     0.4675600
  O       -2.9390480     0.0425350    -0.1674130
  O        2.8793210    -0.7013140     0.9576500
  O       -1.7069560    -2.3717120     0.0066660
  C        0.6456770     0.9144350     0.0711800
  C       -0.8241260     1.1660500    -0.2009330
  C        1.0869890    -0.3499130    -0.6435990
  C       -1.6195880    -0.0062280     0.3304940
  C        2.5464540    -0.6897970    -0.4256590
  C       -1.0085030    -1.3756800     0.0131050
  H        0.7972300     0.7916990     1.1507440
  H       -0.9848220     1.2466540    -1.2883090
  H        0.8858480    -0.2577880    -1.7199730
  H       -1.6065420     0.0748220     1.4324700
  H        3.1677010     0.0783010    -0.8925020
  H        2.7689760    -1.6509780    -0.9066980
  H        2.1781240     2.1240460     0.1069910
  H       -0.6426700     3.0335460     0.1906150
  H       -3.3011060    -0.8556610    -0.0346520
  H        2.3748870    -1.4344510     1.3537630
units angstrom
no_reorient  #important for SAPT in psi4, default
symmetry c1  #important for SAPT in psi4, default
}

set PROPERTIES_ORIGIN ["COM"]
properties('MP2/aug-cc-pvtz', properties = ['dipole'])
--------------------------------------------------------------------------

    Molecular point group: c1
  Charge       = 0
  Multiplicity = 1
  Basis Set: AUG-CC-PVTZ
    Blend: AUG-CC-PVTZ
  Basis Set: (AUG-CC-PVTZ AUX)
    Blend: AUG-CC-PVTZ-JKFIT

    Orbital Energies [Eh]
    ---------------------

    Doubly Occupied:

       1A    -20.629791     2A    -20.600651     3A    -20.587632
       4A    -20.575552     5A    -20.574896     6A    -20.569287
       7A    -11.406972     8A    -11.326274     9A    -11.321168
      10A    -11.314612    11A    -11.307527    12A    -11.307328
      13A     -1.477709    14A     -1.409358    15A     -1.399181
      16A     -1.383965    17A     -1.374875    18A     -1.362863
      19A     -1.098256    20A     -1.058358    21A     -0.956468
      22A     -0.876410    23A     -0.868377    24A     -0.801456
      25A     -0.762271    26A     -0.741915    27A     -0.721052
      28A     -0.707954    29A     -0.694849    30A     -0.686241
      31A     -0.662328    32A     -0.643918    33A     -0.628758
      34A     -0.616990    35A     -0.614895    36A     -0.590176
      37A     -0.582990    38A     -0.560020    39A     -0.541193
      40A     -0.534218    41A     -0.519677    42A     -0.504338
      43A     -0.484162    44A     -0.478101    45A     -0.472586
      46A     -0.464881    47A     -0.445165

  @DF-RHF Final Energy:  -682.45483865621156

   => Energetics <=

    Nuclear Repulsion Energy =            801.3527493815586240
    One-Electron Energy =               -2529.1198887600980925
    Two-Electron Energy =                1045.3123007223280183
    Total Energy =                       -682.4548386562114501
  Basis Set: (AUG-CC-PVTZ AUX)
    Blend: AUG-CC-PVTZ-RI
    Molecular point group: c1

    Geometry (in Angstrom), charge = 0, multiplicity = 1:

       Center              X                  Y                   Z               Mass
    ------------   -----------------  -----------------  -----------------  -----------------
         O            0.375903999701    -1.473962525587    -0.131836109407    15.994914619570
         O            1.393439999701     2.067116474413    -0.421854109407    15.994914619570
         O           -1.233408000299     2.352065474413     0.464194890593    15.994914619570
         O           -2.907670000299     0.060085474413    -0.170778109407    15.994914619570
         O            2.910698999701    -0.683763525587     0.954284890593    15.994914619570
         O           -1.675578000299    -2.354161525587     0.003300890593    15.994914619570
         C            0.677054999701     0.931985474413     0.067814890593    12.000000000000
         C           -0.792748000299     1.183600474413    -0.204298109407    12.000000000000
         C            1.118366999701    -0.332362525587    -0.646964109407    12.000000000000
         C           -1.588210000299     0.011322474413     0.327128890593    12.000000000000
         C            2.577831999701    -0.672246525587    -0.429024109407    12.000000000000
         C           -0.977125000299    -1.358129525587     0.009739890593    12.000000000000
         H            0.828607999701     0.809249474413     1.147378890593     1.007825032230
         H           -0.953444000299     1.264204474413    -1.291674109407     1.007825032230
         H            0.917225999701    -0.240237525587    -1.723338109407     1.007825032230
         H           -1.575164000299     0.092372474413     1.429104890593     1.007825032230
         H            3.199078999701     0.095851474413    -0.895867109407     1.007825032230
         H            2.800353999701    -1.633427525587    -0.910063109407     1.007825032230
         H            2.209501999701     2.141596474413     0.103625890593     1.007825032230
         H           -0.611292000299     3.051096474413     0.187249890593     1.007825032230
         H           -3.269728000299    -0.838110525587    -0.038017109407     1.007825032230
         H            2.406264999701    -1.416900525587     1.350397890593     1.007825032230

  Basis Set: AUG-CC-PVTZ
    Blend: AUG-CC-PVTZ
  Basis Set: (AUG-CC-PVTZ AUX)
    Blend: AUG-CC-PVTZ-JKFIT
	 Reference Energy          =    -682.4548386562115638 [Eh]
	 Singles Energy            =      -0.0000000000000000 [Eh]
	 Same-Spin Energy          =      -0.6624503781954385 [Eh]
	 Opposite-Spin Energy      =      -2.0108114991168247 [Eh]
	 Correlation Energy        =      -2.6732618773122629 [Eh]
	 Total Energy              =    -685.1281005335238206 [Eh]

	 ================> DF-SCS-MP2 Energies <==================
	-----------------------------------------------------------
	 SCS Same-Spin Scale       =       0.3333333333333333 [-]
	 SCS Opposite-Spin Scale   =       1.2000000000000000 [-]
	 SCS Same-Spin Energy      =      -0.2208167927318128 [Eh]
	 SCS Opposite-Spin Energy  =      -2.4129737989401896 [Eh]
	 SCS Correlation Energy    =      -2.6337905916720024 [Eh]
	 SCS Total Energy          =    -685.0886292478835458 [Eh]
	-----------------------------------------------------------

  Dipole Moment: [D]
     X:     3.3965      Y:     0.5727      Z:    -0.2653     Total:     3.4546

*** Psi4 exiting successfully. Buy a developer a beer!
