                               Psi4 1.3.2 release

  ==> Input File <==

--------------------------------------------------------------------------
#psi4
#
memory 32 gb

molecule  {
0 1
  O        0.3445260    -1.4915130    -0.1284710
  O        1.3620620     2.0495660    -0.4184890
  O       -1.2647860     2.3345150     0.4675600
  O       -2.9390480     0.0425350    -0.1674130
  O        2.8793210    -0.7013140     0.9576500
  O       -1.7069560    -2.3717120     0.0066660
  C        0.6456770     0.9144350     0.0711800
  C       -0.8241260     1.1660500    -0.2009330
  C        1.0869890    -0.3499130    -0.6435990
  C       -1.6258076     0.0007264     0.2813722
  C        2.5464540    -0.6897970    -0.4256590
  C       -1.0085030    -1.3756800     0.0131050
  H        0.7972300     0.7916990     1.1507440
  H       -0.9848220     1.2466540    -1.2883090
  H        0.8858480    -0.2577880    -1.7199730
  H       -1.6065420     0.0748220     1.4324700
  H        3.1677010     0.0783010    -0.8925020
  H        2.7689760    -1.6509780    -0.9066980
  H        2.1781240     2.1240460     0.1069910
  H       -0.6426700     3.0335460     0.1906150
  H       -3.3011060    -0.8556610    -0.0346520
  H        2.3748870    -1.4344510     1.3537630
units angstrom
no_reorient  #important for SAPT in psi4, default
symmetry c1  #important for SAPT in psi4, default
}

set PROPERTIES_ORIGIN ["COM"]
properties('MP2/aug-cc-pvtz', properties = ['dipole'])
--------------------------------------------------------------------------

    Molecular point group: c1
  Charge       = 0
  Multiplicity = 1
  Basis Set: AUG-CC-PVTZ
    Blend: AUG-CC-PVTZ
  Basis Set: (AUG-CC-PVTZ AUX)
    Blend: AUG-CC-PVTZ-JKFIT

    Orbital Energies [Eh]
    ---------------------

    Doubly Occupied:

       1A    -20.629665     2A    -20.600937     3A    -20.587480
       4A    -20.577511     5A    -20.575343     6A    -20.568627
       7A    -11.407217     8A    -11.326276     9A    -11.323826
      10A    -11.315227    11A    -11.307494    12A    -11.306924
      13A     -1.477731    14A     -1.409704    15A     -1.403359
      16A     -1.385794    17A     -1.375162    18A     -1.366103
      19A     -1.099577    20A     -1.059111    21A     -0.955483
      22A     -0.877770    23A     -0.868992    24A     -0.799903
      25A     -0.764102    26A     -0.744638    27A     -0.722575
      28A     -0.706426    29A     -0.695118    30A     -0.686245
      31A     -0.660358    32A     -0.644646    33A     -0.628691
      34A     -0.620870    35A     -0.614015    36A     -0.594072
      37A     -0.581859    38A     -0.560804    39A     -0.541383
      40A     -0.534776    41A     -0.520743    42A     -0.505206
      43A     -0.484711    44A     -0.477666    45A     -0.471228
      46A     -0.460613    47A     -0.443676

  @DF-RHF Final Energy:  -682.45284840559657

   => Energetics <=

    Nuclear Repulsion Energy =            801.7588066271561047
    One-Electron Energy =               -2529.8840377894439371
    Two-Electron Energy =                1045.6723827566913769
    Total Energy =                       -682.4528484055965691
  Basis Set: (AUG-CC-PVTZ AUX)
    Blend: AUG-CC-PVTZ-RI
    Molecular point group: c1

    Geometry (in Angstrom), charge = 0, multiplicity = 1:

       Center              X                  Y                   Z               Mass
    ------------   -----------------  -----------------  -----------------  -----------------
         O            0.376323186155    -1.474431235838    -0.128525415283    15.994914619570
         O            1.393859186155     2.066647764162    -0.418543415283    15.994914619570
         O           -1.232988813845     2.351596764162     0.467505584717    15.994914619570
         O           -2.907250813845     0.059616764162    -0.167467415283    15.994914619570
         O            2.911118186155    -0.684232235838     0.957595584717    15.994914619570
         O           -1.675158813845    -2.354630235838     0.006611584717    15.994914619570
         C            0.677474186155     0.931516764162     0.071125584717    12.000000000000
         C           -0.792328813845     1.183131764162    -0.200987415283    12.000000000000
         C            1.118786186155    -0.332831235838    -0.643653415283    12.000000000000
         C           -1.594010413845     0.017808164162     0.281317784717    12.000000000000
         C            2.578251186155    -0.672715235838    -0.425713415283    12.000000000000
         C           -0.976705813845    -1.358598235838     0.013050584717    12.000000000000
         H            0.829027186155     0.808780764162     1.150689584717     1.007825032230
         H           -0.953024813845     1.263735764162    -1.288363415283     1.007825032230
         H            0.917645186155    -0.240706235838    -1.720027415283     1.007825032230
         H           -1.574744813845     0.091903764162     1.432415584717     1.007825032230
         H            3.199498186155     0.095382764162    -0.892556415283     1.007825032230
         H            2.800773186155    -1.633896235838    -0.906752415283     1.007825032230
         H            2.209921186155     2.141127764162     0.106936584717     1.007825032230
         H           -0.610872813845     3.050627764162     0.190560584717     1.007825032230
         H           -3.269308813845    -0.838579235838    -0.034706415283     1.007825032230
         H            2.406684186155    -1.417369235838     1.353708584717     1.007825032230

  Basis Set: AUG-CC-PVTZ
    Blend: AUG-CC-PVTZ
  Basis Set: (AUG-CC-PVTZ AUX)
    Blend: AUG-CC-PVTZ-JKFIT
	 Reference Energy          =    -682.4528484055965691 [Eh]
	 Singles Energy            =      -0.0000000000000000 [Eh]
	 Same-Spin Energy          =      -0.6627085830198274 [Eh]
	 Opposite-Spin Energy      =      -2.0106809986066247 [Eh]
	 Correlation Energy        =      -2.6733895816264521 [Eh]
	 Total Energy              =    -685.1262379872230213 [Eh]

	 ================> DF-SCS-MP2 Energies <==================
	-----------------------------------------------------------
	 SCS Same-Spin Scale       =       0.3333333333333333 [-]
	 SCS Opposite-Spin Scale   =       1.2000000000000000 [-]
	 SCS Same-Spin Energy      =      -0.2209028610066091 [Eh]
	 SCS Opposite-Spin Energy  =      -2.4128171983279496 [Eh]
	 SCS Correlation Energy    =      -2.6337200593345589 [Eh]
	 SCS Total Energy          =    -685.0865684649311333 [Eh]
	-----------------------------------------------------------

  Dipole Moment: [D]
     X:     3.3399      Y:     0.5946      Z:    -0.3459     Total:     3.4100

*** Psi4 exiting successfully. Buy a developer a beer!
