                               Psi4 1.3.2 release

  ==> Input File <==

--------------------------------------------------------------------------
#psi4
#
memory 32 gb

molecule  {
0 1
  O        0.3445260    -1.4915130    -0.1284710
  O        1.3620620     2.0495660    -0.4184890
  O       -1.2647860     2.3345150     0.4675600
  O       -2.9390480     0.0425350    -0.1674130
  O        2.8793210    -0.7013140     0.9576500
  O       -1.7069560    -2.3717120     0.0066660
  C        0.6456770     0.9144350     0.0711800
  C       -0.8241260     1.1660500    -0.2009330
  C        1.0869890    -0.3499130    -0.6435990
  C       -1.6444664     0.0215894     0.1340067
  C        2.5464540    -0.6897970    -0.4256590
  C       -1.0085030    -1.3756800     0.0131050
  H        0.7972300     0.7916990     1.1507440
  H       -0.9848220     1.2466540    -1.2883090
  H        0.8858480    -0.2577880    -1.7199730
  H       -1.6065420     0.0748220     1.4324700
  H        3.1677010     0.0783010    -0.8925020
  H        2.7689760    -1.6509780    -0.9066980
  H        2.1781240     2.1240460     0.1069910
  H       -0.6426700     3.0335460     0.1906150
  H       -3.3011060    -0.8556610    -0.0346520
  H        2.3748870    -1.4344510     1.3537630
units angstrom
no_reorient  #important for SAPT in psi4, default
symmetry c1  #important for SAPT in psi4, default
}

set PROPERTIES_ORIGIN ["COM"]
properties('MP2/aug-cc-pvtz', properties = ['dipole'])
--------------------------------------------------------------------------

    Molecular point group: c1
  Charge       = 0
  Multiplicity = 1
  Basis Set: AUG-CC-PVTZ
    Blend: AUG-CC-PVTZ
  Basis Set: (AUG-CC-PVTZ AUX)
    Blend: AUG-CC-PVTZ-JKFIT

    Orbital Energies [Eh]
    ---------------------

    Doubly Occupied:

       1A    -20.629389     2A    -20.601822     3A    -20.586981
       4A    -20.585763     5A    -20.577038     6A    -20.566155
       7A    -11.409945     8A    -11.335392     9A    -11.326381
      10A    -11.317337    11A    -11.307886    12A    -11.307422
      13A     -1.478077    14A     -1.425473    15A     -1.410286
      16A     -1.388402    17A     -1.375515    18A     -1.370840
      19A     -1.104550    20A     -1.061693    21A     -0.954221
      22A     -0.882937    23A     -0.869707    24A     -0.798003
      25A     -0.773021    26A     -0.756368    27A     -0.724510
      28A     -0.703391    29A     -0.694978    30A     -0.686697
      31A     -0.657145    32A     -0.646810    33A     -0.635875
      34A     -0.628436    35A     -0.612799    36A     -0.601697
      37A     -0.581430    38A     -0.563346    39A     -0.541647
      40A     -0.536504    41A     -0.523159    42A     -0.507522
      43A     -0.485508    44A     -0.477116    45A     -0.470169
      46A     -0.452107    47A     -0.419618

  @DF-RHF Final Energy:  -682.42292516520092

   => Energetics <=

    Nuclear Repulsion Energy =            802.6934474673906834
    One-Electron Energy =               -2531.5306122615793356
    Two-Electron Energy =                1046.4142396289876160
    Total Energy =                       -682.4229251652009225
  Basis Set: (AUG-CC-PVTZ AUX)
    Blend: AUG-CC-PVTZ-RI
    Molecular point group: c1

    Geometry (in Angstrom), charge = 0, multiplicity = 1:

       Center              X                  Y                   Z               Mass
    ------------   -----------------  -----------------  -----------------  -----------------
         O            0.377580745518    -1.475837353112    -0.118593326174    15.994914619570
         O            1.395116745518     2.065241646888    -0.408611326174    15.994914619570
         O           -1.231731254482     2.350190646888     0.477437673826    15.994914619570
         O           -2.905993254482     0.058210646888    -0.157535326174    15.994914619570
         O            2.912375745518    -0.685638353112     0.967527673826    15.994914619570
         O           -1.673901254482    -2.356036353112     0.016543673826    15.994914619570
         C            0.678731745518     0.930110646888     0.081057673826    12.000000000000
         C           -0.791071254482     1.181725646888    -0.191055326174    12.000000000000
         C            1.120043745518    -0.334237353112    -0.633721326174    12.000000000000
         C           -1.611411654482     0.037265046888     0.143884373826    12.000000000000
         C            2.579508745518    -0.674121353112    -0.415781326174    12.000000000000
         C           -0.975448254482    -1.360004353112     0.022982673826    12.000000000000
         H            0.830284745518     0.807374646888     1.160621673826     1.007825032230
         H           -0.951767254482     1.262329646888    -1.278431326174     1.007825032230
         H            0.918902745518    -0.242112353112    -1.710095326174     1.007825032230
         H           -1.573487254482     0.090497646888     1.442347673826     1.007825032230
         H            3.200755745518     0.093976646888    -0.882624326174     1.007825032230
         H            2.802030745518    -1.635302353112    -0.896820326174     1.007825032230
         H            2.211178745518     2.139721646888     0.116868673826     1.007825032230
         H           -0.609615254482     3.049221646888     0.200492673826     1.007825032230
         H           -3.268051254482    -0.839985353112    -0.024774326174     1.007825032230
         H            2.407941745518    -1.418775353112     1.363640673826     1.007825032230

  Basis Set: AUG-CC-PVTZ
    Blend: AUG-CC-PVTZ
  Basis Set: (AUG-CC-PVTZ AUX)
    Blend: AUG-CC-PVTZ-JKFIT
	 Reference Energy          =    -682.4229251652009225 [Eh]
	 Singles Energy            =      -0.0000000000000000 [Eh]
	 Same-Spin Energy          =      -0.6641782993857444 [Eh]
	 Opposite-Spin Energy      =      -2.0120610659824107 [Eh]
	 Correlation Energy        =      -2.6762393653681551 [Eh]
	 Total Energy              =    -685.0991645305690554 [Eh]

	 ================> DF-SCS-MP2 Energies <==================
	-----------------------------------------------------------
	 SCS Same-Spin Scale       =       0.3333333333333333 [-]
	 SCS Opposite-Spin Scale   =       1.2000000000000000 [-]
	 SCS Same-Spin Energy      =      -0.2213927664619148 [Eh]
	 SCS Opposite-Spin Energy  =      -2.4144732791788930 [Eh]
	 SCS Correlation Energy    =      -2.6358660456408076 [Eh]
	 SCS Total Energy          =    -685.0587912108417186 [Eh]
	-----------------------------------------------------------

  Dipole Moment: [D]
     X:     3.1308      Y:     0.6818      Z:    -0.6541     Total:     3.2703

*** Psi4 exiting successfully. Buy a developer a beer!
