                               Psi4 1.3.2 release

  ==> Input File <==

--------------------------------------------------------------------------
#psi4
#
memory 32 gb

molecule  {
0 1
  O        0.3445260    -1.4915130    -0.1284710
  O        1.3620620     2.0495660    -0.4184890
  O       -1.2647860     2.3345150     0.4675600
  O       -2.9390480     0.0425350    -0.1674130
  O        2.8793210    -0.7013140     0.9576500
  O       -1.7069560    -2.3717120     0.0066660
  C        0.6456770     0.9144350     0.0711800
  C       -0.8241260     1.1660500    -0.2009330
  C        1.0869890    -0.3499130    -0.6435990
  C       -1.6320272     0.0076807     0.2322504
  C        2.5464540    -0.6897970    -0.4256590
  C       -1.0085030    -1.3756800     0.0131050
  H        0.7972300     0.7916990     1.1507440
  H       -0.9848220     1.2466540    -1.2883090
  H        0.8858480    -0.2577880    -1.7199730
  H       -1.6065420     0.0748220     1.4324700
  H        3.1677010     0.0783010    -0.8925020
  H        2.7689760    -1.6509780    -0.9066980
  H        2.1781240     2.1240460     0.1069910
  H       -0.6426700     3.0335460     0.1906150
  H       -3.3011060    -0.8556610    -0.0346520
  H        2.3748870    -1.4344510     1.3537630
units angstrom
no_reorient  #important for SAPT in psi4, default
symmetry c1  #important for SAPT in psi4, default
}

set PROPERTIES_ORIGIN ["COM"]
properties('MP2/aug-cc-pvtz', properties = ['dipole'])
--------------------------------------------------------------------------

    Molecular point group: c1
  Charge       = 0
  Multiplicity = 1
  Basis Set: AUG-CC-PVTZ
    Blend: AUG-CC-PVTZ
  Basis Set: (AUG-CC-PVTZ AUX)
    Blend: AUG-CC-PVTZ-JKFIT

    Orbital Energies [Eh]
    ---------------------

    Doubly Occupied:

       1A    -20.629562     2A    -20.601228     3A    -20.587323
       4A    -20.579833     5A    -20.575842     6A    -20.567889
       7A    -11.407806     8A    -11.327060     9A    -11.326295
      10A    -11.315889    11A    -11.307466    12A    -11.306873
      13A     -1.477784    14A     -1.410873    15A     -1.408569
      16A     -1.387127    17A     -1.375333    18A     -1.368283
      19A     -1.101062    20A     -1.059933    21A     -0.954793
      22A     -0.879472    23A     -0.869324    24A     -0.798773
      25A     -0.766360    26A     -0.748585    27A     -0.723527
      28A     -0.704984    29A     -0.695198    30A     -0.686326
      31A     -0.658789    32A     -0.645388    33A     -0.628777
      34A     -0.625469    35A     -0.613273    36A     -0.597157
      37A     -0.581232    38A     -0.561598    39A     -0.541505
      40A     -0.535364    41A     -0.521688    42A     -0.506045
      43A     -0.485115    44A     -0.477430    45A     -0.470685
      46A     -0.455908    47A     -0.439423

  @DF-RHF Final Energy:  -682.44643458338874

   => Energetics <=

    Nuclear Repulsion Energy =            802.1206568401199775
    One-Electron Energy =               -2530.5457439850297305
    Two-Electron Energy =                1045.9786525615211303
    Total Energy =                       -682.4464345833887364
  Basis Set: (AUG-CC-PVTZ AUX)
    Blend: AUG-CC-PVTZ-RI
    Molecular point group: c1

    Geometry (in Angstrom), charge = 0, multiplicity = 1:

       Center              X                  Y                   Z               Mass
    ------------   -----------------  -----------------  -----------------  -----------------
         O            0.376742372609    -1.474899939349    -0.125214721160    15.994914619570
         O            1.394278372609     2.066179060651    -0.415232721160    15.994914619570
         O           -1.232569627391     2.351128060651     0.470816278840    15.994914619570
         O           -2.906831627391     0.059148060651    -0.164156721160    15.994914619570
         O            2.911537372609    -0.684700939349     0.960906278840    15.994914619570
         O           -1.674739627391    -2.355098939349     0.009922278840    15.994914619570
         C            0.677893372609     0.931048060651     0.074436278840    12.000000000000
         C           -0.791909627391     1.182663060651    -0.197676721160    12.000000000000
         C            1.119205372609    -0.333299939349    -0.640342721160    12.000000000000
         C           -1.599810827391     0.024293760651     0.235506678840    12.000000000000
         C            2.578670372609    -0.673183939349    -0.422402721160    12.000000000000
         C           -0.976286627391    -1.359066939349     0.016361278840    12.000000000000
         H            0.829446372609     0.808312060651     1.154000278840     1.007825032230
         H           -0.952605627391     1.263267060651    -1.285052721160     1.007825032230
         H            0.918064372609    -0.241174939349    -1.716716721160     1.007825032230
         H           -1.574325627391     0.091435060651     1.435726278840     1.007825032230
         H            3.199917372609     0.094914060651    -0.889245721160     1.007825032230
         H            2.801192372609    -1.634364939349    -0.903441721160     1.007825032230
         H            2.210340372609     2.140659060651     0.110247278840     1.007825032230
         H           -0.610453627391     3.050159060651     0.193871278840     1.007825032230
         H           -3.268889627391    -0.839047939349    -0.031395721160     1.007825032230
         H            2.407103372609    -1.417837939349     1.357019278840     1.007825032230

  Basis Set: AUG-CC-PVTZ
    Blend: AUG-CC-PVTZ
  Basis Set: (AUG-CC-PVTZ AUX)
    Blend: AUG-CC-PVTZ-JKFIT
	 Reference Energy          =    -682.4464345833887364 [Eh]
	 Singles Energy            =      -0.0000000000000000 [Eh]
	 Same-Spin Energy          =      -0.6630854377772784 [Eh]
	 Opposite-Spin Energy      =      -2.0108634469062658 [Eh]
	 Correlation Energy        =      -2.6739488846835444 [Eh]
	 Total Energy              =    -685.1203834680723048 [Eh]

	 ================> DF-SCS-MP2 Energies <==================
	-----------------------------------------------------------
	 SCS Same-Spin Scale       =       0.3333333333333333 [-]
	 SCS Opposite-Spin Scale   =       1.2000000000000000 [-]
	 SCS Same-Spin Energy      =      -0.2210284792590928 [Eh]
	 SCS Opposite-Spin Energy  =      -2.4130361362875190 [Eh]
	 SCS Correlation Energy    =      -2.6340646155466119 [Eh]
	 SCS Total Energy          =    -685.0804991989353994 [Eh]
	-----------------------------------------------------------

  Dipole Moment: [D]
     X:     3.2770      Y:     0.6194      Z:    -0.4375     Total:     3.3636

*** Psi4 exiting successfully. Buy a developer a beer!
