                               Psi4 1.3.2 release

  ==> Input File <==

--------------------------------------------------------------------------
#psi4
#
memory 32 gb

molecule  {
0 1
  O        1.0823540    -0.5566580    -0.2632920
  O       -1.0823250    -0.5564370    -0.2635130
  O        0.0000579     1.0196633     1.0146616
  C        2.3645980    -0.0472600     0.2117580
  C       -2.3645710    -0.0472670     0.2117220
  C        3.3580870    -1.1527530    -0.0787140
  C        2.6794210     1.2541120    -0.5011060
  C       -2.6796530     1.2540600    -0.5011170
  C       -3.3579470    -1.1529030    -0.0785870
  C        0.0000190     0.0134100     0.2963400
  H        2.2751950     0.1248800     1.2880410
  H       -2.2750520     0.1249260     1.2879850
  H        4.3537060    -0.8600380     0.2666930
  H        3.0667940    -2.0744370     0.4299490
  H        3.4032550    -1.3462360    -1.1536500
  H        3.6582030     1.6290460    -0.1867860
  H        1.9279580     2.0093320    -0.2633690
  H        2.6983220     1.0899770    -1.5821290
  H       -3.6584150     1.6289180    -0.1866510
  H       -1.9282070     2.0093390    -0.2634970
  H       -2.6986940     1.0899190    -1.5821360
  H       -4.3535640    -0.8602980     0.2669170
  H       -3.0664820    -2.0745270     0.4300870
  H       -3.4032180    -1.3464490    -1.1535090
units angstrom
no_reorient  #important for SAPT in psi4, default
symmetry c1  #important for SAPT in psi4, default
}

set PROPERTIES_ORIGIN ["COM"]
properties('MP2/aug-cc-pvtz', properties = ['dipole'])
--------------------------------------------------------------------------

    Molecular point group: c1
  Charge       = 0
  Multiplicity = 1
  Basis Set: AUG-CC-PVTZ
    Blend: AUG-CC-PVTZ
  Basis Set: (AUG-CC-PVTZ AUX)
    Blend: AUG-CC-PVTZ-JKFIT

    Orbital Energies [Eh]
    ---------------------

    Doubly Occupied:

       1A    -20.602813     2A    -20.602788     3A    -20.541044
       4A    -11.431288     5A    -11.294677     6A    -11.294675
       7A    -11.222002     8A    -11.222001     9A    -11.216126
      10A    -11.216125    11A     -1.490687    12A     -1.390425
      13A     -1.346532    14A     -1.081962    15A     -1.054125
      16A     -0.945507    17A     -0.945358    18A     -0.877262
      19A     -0.801375    20A     -0.771619    21A     -0.744383
      22A     -0.694847    23A     -0.670850    24A     -0.633603
      25A     -0.623260    26A     -0.615589    27A     -0.582316
      28A     -0.572136    29A     -0.558930    30A     -0.547771
      31A     -0.547720    32A     -0.530440    33A     -0.526740
      34A     -0.516625    35A     -0.505219    36A     -0.492242
      37A     -0.486636    38A     -0.466075    39A     -0.453757
      40A     -0.451614

  @DF-RHF Final Energy:  -498.03337668868778

   => Energetics <=

    Nuclear Repulsion Energy =            577.3474274979440679
    One-Electron Energy =               -1825.6233186859326452
    Two-Electron Energy =                 750.2425144993009098
    Total Energy =                       -498.0333766886877811
  Basis Set: (AUG-CC-PVTZ AUX)
    Blend: AUG-CC-PVTZ-RI
    Molecular point group: c1

    Geometry (in Angstrom), charge = 0, multiplicity = 1:

       Center              X                  Y                   Z               Mass
    ------------   -----------------  -----------------  -----------------  -----------------
         O            1.082349637058    -0.564294592054    -0.264017048889    15.994914619570
         O           -1.082329362942    -0.564073592054    -0.264238048889    15.994914619570
         O            0.000053537058     1.012026707946     1.013936551111    15.994914619570
         C            2.364593637058    -0.054896592054     0.211032951111    12.000000000000
         C           -2.364575362942    -0.054903592054     0.210996951111    12.000000000000
         C            3.358082637058    -1.160389592054    -0.079439048889    12.000000000000
         C            2.679416637058     1.246475407946    -0.501831048889    12.000000000000
         C           -2.679657362942     1.246423407946    -0.501842048889    12.000000000000
         C           -3.357951362942    -1.160539592054    -0.079312048889    12.000000000000
         C            0.000014637058     0.005773407946     0.295614951111    12.000000000000
         H            2.275190637058     0.117243407946     1.287315951111     1.007825032230
         H           -2.275056362942     0.117289407946     1.287259951111     1.007825032230
         H            4.353701637058    -0.867674592054     0.265967951111     1.007825032230
         H            3.066789637058    -2.082073592054     0.429223951111     1.007825032230
         H            3.403250637058    -1.353872592054    -1.154375048889     1.007825032230
         H            3.658198637058     1.621409407946    -0.187511048889     1.007825032230
         H            1.927953637058     2.001695407946    -0.264094048889     1.007825032230
         H            2.698317637058     1.082340407946    -1.582854048889     1.007825032230
         H           -3.658419362942     1.621281407946    -0.187376048889     1.007825032230
         H           -1.928211362942     2.001702407946    -0.264222048889     1.007825032230
         H           -2.698698362942     1.082282407946    -1.582861048889     1.007825032230
         H           -4.353568362942    -0.867934592054     0.266191951111     1.007825032230
         H           -3.066486362942    -2.082163592054     0.429361951111     1.007825032230
         H           -3.403222362942    -1.354085592054    -1.154234048889     1.007825032230

  Basis Set: AUG-CC-PVTZ
    Blend: AUG-CC-PVTZ
  Basis Set: (AUG-CC-PVTZ AUX)
    Blend: AUG-CC-PVTZ-JKFIT
	 Reference Energy          =    -498.0333766886877811 [Eh]
	 Singles Energy            =      -0.0000000000000000 [Eh]
	 Same-Spin Energy          =      -0.4949276416966283 [Eh]
	 Opposite-Spin Energy      =      -1.6261733383760868 [Eh]
	 Correlation Energy        =      -2.1211009800727152 [Eh]
	 Total Energy              =    -500.1544776687604781 [Eh]

	 ================> DF-SCS-MP2 Energies <==================
	-----------------------------------------------------------
	 SCS Same-Spin Scale       =       0.3333333333333333 [-]
	 SCS Opposite-Spin Scale   =       1.2000000000000000 [-]
	 SCS Same-Spin Energy      =      -0.1649758805655428 [Eh]
	 SCS Opposite-Spin Energy  =      -1.9514080060513042 [Eh]
	 SCS Correlation Energy    =      -2.1163838866168470 [Eh]
	 SCS Total Energy          =    -500.1497605753046400 [Eh]
	-----------------------------------------------------------

  Dipole Moment: [D]
     X:    -0.0000      Y:    -0.3550      Z:    -0.0919     Total:     0.3667

*** Psi4 exiting successfully. Buy a developer a beer!
