                               Psi4 1.3.2 release

  ==> Input File <==

--------------------------------------------------------------------------
#psi4
#
memory 32 gb

molecule  {
0 1
  O        1.0823540    -0.5566580    -0.2632920
  O       -1.0823250    -0.5564370    -0.2635130
  O        0.0000651     1.0548286     0.9791173
  C        2.3645980    -0.0472600     0.2117580
  C       -2.3645710    -0.0472670     0.2117220
  C        3.3580870    -1.1527530    -0.0787140
  C        2.6794210     1.2541120    -0.5011060
  C       -2.6796530     1.2540600    -0.5011170
  C       -3.3579470    -1.1529030    -0.0785870
  C        0.0000190     0.0134100     0.2963400
  H        2.2751950     0.1248800     1.2880410
  H       -2.2750520     0.1249260     1.2879850
  H        4.3537060    -0.8600380     0.2666930
  H        3.0667940    -2.0744370     0.4299490
  H        3.4032550    -1.3462360    -1.1536500
  H        3.6582030     1.6290460    -0.1867860
  H        1.9279580     2.0093320    -0.2633690
  H        2.6983220     1.0899770    -1.5821290
  H       -3.6584150     1.6289180    -0.1866510
  H       -1.9282070     2.0093390    -0.2634970
  H       -2.6986940     1.0899190    -1.5821360
  H       -4.3535640    -0.8602980     0.2669170
  H       -3.0664820    -2.0745270     0.4300870
  H       -3.4032180    -1.3464490    -1.1535090
units angstrom
no_reorient  #important for SAPT in psi4, default
symmetry c1  #important for SAPT in psi4, default
}

set PROPERTIES_ORIGIN ["COM"]
properties('MP2/aug-cc-pvtz', properties = ['dipole'])
--------------------------------------------------------------------------

    Molecular point group: c1
  Charge       = 0
  Multiplicity = 1
  Basis Set: AUG-CC-PVTZ
    Blend: AUG-CC-PVTZ
  Basis Set: (AUG-CC-PVTZ AUX)
    Blend: AUG-CC-PVTZ-JKFIT

    Orbital Energies [Eh]
    ---------------------

    Doubly Occupied:

       1A    -20.603814     2A    -20.603789     3A    -20.540810
       4A    -11.433062     5A    -11.295019     6A    -11.295018
       7A    -11.222181     8A    -11.222180     9A    -11.215506
      10A    -11.215504    11A     -1.490056    12A     -1.391072
      13A     -1.341957    14A     -1.082156    15A     -1.054194
      16A     -0.945359    17A     -0.945122    18A     -0.877674
      19A     -0.801590    20A     -0.772481    21A     -0.743848
      22A     -0.694310    23A     -0.669609    24A     -0.633927
      25A     -0.622655    26A     -0.615728    27A     -0.582094
      28A     -0.571591    29A     -0.558962    30A     -0.547703
      31A     -0.547521    32A     -0.529318    33A     -0.527093
      34A     -0.516661    35A     -0.504636    36A     -0.492692
      37A     -0.486902    38A     -0.465139    39A     -0.452261
      40A     -0.451373

  @DF-RHF Final Energy:  -498.03003962447298

   => Energetics <=

    Nuclear Repulsion Energy =            577.2206021389191619
    One-Electron Energy =               -1825.3761493879815134
    Two-Electron Energy =                 750.1255076245893179
    Total Energy =                       -498.0300396244729200
  Basis Set: (AUG-CC-PVTZ AUX)
    Blend: AUG-CC-PVTZ-RI
    Molecular point group: c1

    Geometry (in Angstrom), charge = 0, multiplicity = 1:

       Center              X                  Y                   Z               Mass
    ------------   -----------------  -----------------  -----------------  -----------------
         O            1.082348848777    -0.568144612164    -0.260125534533    15.994914619570
         O           -1.082330151223    -0.567923612164    -0.260346534533    15.994914619570
         O            0.000059948777     1.043341987836     0.982283765467    15.994914619570
         C            2.364592848777    -0.058746612164     0.214924465467    12.000000000000
         C           -2.364576151223    -0.058753612164     0.214888465467    12.000000000000
         C            3.358081848777    -1.164239612164    -0.075547534533    12.000000000000
         C            2.679415848777     1.242625387836    -0.497939534533    12.000000000000
         C           -2.679658151223     1.242573387836    -0.497950534533    12.000000000000
         C           -3.357952151223    -1.164389612164    -0.075420534533    12.000000000000
         C            0.000013848777     0.001923387836     0.299506465467    12.000000000000
         H            2.275189848777     0.113393387836     1.291207465467     1.007825032230
         H           -2.275057151223     0.113439387836     1.291151465467     1.007825032230
         H            4.353700848777    -0.871524612164     0.269859465467     1.007825032230
         H            3.066788848777    -2.085923612164     0.433115465467     1.007825032230
         H            3.403249848777    -1.357722612164    -1.150483534533     1.007825032230
         H            3.658197848777     1.617559387836    -0.183619534533     1.007825032230
         H            1.927952848777     1.997845387836    -0.260202534533     1.007825032230
         H            2.698316848777     1.078490387836    -1.578962534533     1.007825032230
         H           -3.658420151223     1.617431387836    -0.183484534533     1.007825032230
         H           -1.928212151223     1.997852387836    -0.260330534533     1.007825032230
         H           -2.698699151223     1.078432387836    -1.578969534533     1.007825032230
         H           -4.353569151223    -0.871784612164     0.270083465467     1.007825032230
         H           -3.066487151223    -2.086013612164     0.433253465467     1.007825032230
         H           -3.403223151223    -1.357935612164    -1.150342534533     1.007825032230

  Basis Set: AUG-CC-PVTZ
    Blend: AUG-CC-PVTZ
  Basis Set: (AUG-CC-PVTZ AUX)
    Blend: AUG-CC-PVTZ-JKFIT
	 Reference Energy          =    -498.0300396244729768 [Eh]
	 Singles Energy            =      -0.0000000000000000 [Eh]
	 Same-Spin Energy          =      -0.4952423768110713 [Eh]
	 Opposite-Spin Energy      =      -1.6268804041379825 [Eh]
	 Correlation Energy        =      -2.1221227809490539 [Eh]
	 Total Energy              =    -500.1521624054220183 [Eh]

	 ================> DF-SCS-MP2 Energies <==================
	-----------------------------------------------------------
	 SCS Same-Spin Scale       =       0.3333333333333333 [-]
	 SCS Opposite-Spin Scale   =       1.2000000000000000 [-]
	 SCS Same-Spin Energy      =      -0.1650807922703571 [Eh]
	 SCS Opposite-Spin Energy  =      -1.9522564849655790 [Eh]
	 SCS Correlation Energy    =      -2.1173372772359360 [Eh]
	 SCS Total Energy          =    -500.1473769017089239 [Eh]
	-----------------------------------------------------------

  Dipole Moment: [D]
     X:    -0.0000      Y:    -0.4260      Z:    -0.0517     Total:     0.4291

*** Psi4 exiting successfully. Buy a developer a beer!
