                               Psi4 1.3.2 release

  ==> Input File <==

--------------------------------------------------------------------------
#psi4
#
memory 32 gb

molecule  {
0 1
  O        1.0823540    -0.5566580    -0.2632920
  O       -1.0823250    -0.5564370    -0.2635130
  O        0.0000723     1.0899939     0.9435729
  C        2.3645980    -0.0472600     0.2117580
  C       -2.3645710    -0.0472670     0.2117220
  C        3.3580870    -1.1527530    -0.0787140
  C        2.6794210     1.2541120    -0.5011060
  C       -2.6796530     1.2540600    -0.5011170
  C       -3.3579470    -1.1529030    -0.0785870
  C        0.0000190     0.0134100     0.2963400
  H        2.2751950     0.1248800     1.2880410
  H       -2.2750520     0.1249260     1.2879850
  H        4.3537060    -0.8600380     0.2666930
  H        3.0667940    -2.0744370     0.4299490
  H        3.4032550    -1.3462360    -1.1536500
  H        3.6582030     1.6290460    -0.1867860
  H        1.9279580     2.0093320    -0.2633690
  H        2.6983220     1.0899770    -1.5821290
  H       -3.6584150     1.6289180    -0.1866510
  H       -1.9282070     2.0093390    -0.2634970
  H       -2.6986940     1.0899190    -1.5821360
  H       -4.3535640    -0.8602980     0.2669170
  H       -3.0664820    -2.0745270     0.4300870
  H       -3.4032180    -1.3464490    -1.1535090
units angstrom
no_reorient  #important for SAPT in psi4, default
symmetry c1  #important for SAPT in psi4, default
}

set PROPERTIES_ORIGIN ["COM"]
properties('MP2/aug-cc-pvtz', properties = ['dipole'])
--------------------------------------------------------------------------

    Molecular point group: c1
  Charge       = 0
  Multiplicity = 1
  Basis Set: AUG-CC-PVTZ
    Blend: AUG-CC-PVTZ
  Basis Set: (AUG-CC-PVTZ AUX)
    Blend: AUG-CC-PVTZ-JKFIT

    Orbital Energies [Eh]
    ---------------------

    Doubly Occupied:

       1A    -20.605010     2A    -20.604986     3A    -20.540507
       4A    -11.435153     5A    -11.295401     6A    -11.295400
       7A    -11.222391     8A    -11.222390     9A    -11.214873
      10A    -11.214870    11A     -1.489411    12A     -1.391843
      13A     -1.336358    14A     -1.082401    15A     -1.054300
      16A     -0.945225    17A     -0.944898    18A     -0.878181
      19A     -0.801850    20A     -0.773435    21A     -0.743274
      22A     -0.693685    23A     -0.668285    24A     -0.634268
      25A     -0.621967    26A     -0.615905    27A     -0.581696
      28A     -0.571109    29A     -0.559011    30A     -0.547655
      31A     -0.547318    32A     -0.528129    33A     -0.527505
      34A     -0.516740    35A     -0.503909    36A     -0.493103
      37A     -0.487183    38A     -0.464188    39A     -0.450982
      40A     -0.450476

  @DF-RHF Final Energy:  -498.02582024771277

   => Energetics <=

    Nuclear Repulsion Energy =            577.0398140843257124
    One-Electron Energy =               -1825.0207233811750029
    Two-Electron Energy =                 749.9550890491366317
    Total Energy =                       -498.0258202477127725
  Basis Set: (AUG-CC-PVTZ AUX)
    Blend: AUG-CC-PVTZ-RI
    Molecular point group: c1

    Geometry (in Angstrom), charge = 0, multiplicity = 1:

       Center              X                  Y                   Z               Mass
    ------------   -----------------  -----------------  -----------------  -----------------
         O            1.082348060496    -0.571994632274    -0.256234009228    15.994914619570
         O           -1.082330939504    -0.571773632274    -0.256455009228    15.994914619570
         O            0.000066360496     1.074657267726     0.950630890772    15.994914619570
         C            2.364592060496    -0.062596632274     0.218815990772    12.000000000000
         C           -2.364576939504    -0.062603632274     0.218779990772    12.000000000000
         C            3.358081060496    -1.168089632274    -0.071656009228    12.000000000000
         C            2.679415060496     1.238775367726    -0.494048009228    12.000000000000
         C           -2.679658939504     1.238723367726    -0.494059009228    12.000000000000
         C           -3.357952939504    -1.168239632274    -0.071529009228    12.000000000000
         C            0.000013060496    -0.001926632274     0.303397990772    12.000000000000
         H            2.275189060496     0.109543367726     1.295098990772     1.007825032230
         H           -2.275057939504     0.109589367726     1.295042990772     1.007825032230
         H            4.353700060496    -0.875374632274     0.273750990772     1.007825032230
         H            3.066788060496    -2.089773632274     0.437006990772     1.007825032230
         H            3.403249060496    -1.361572632274    -1.146592009228     1.007825032230
         H            3.658197060496     1.613709367726    -0.179728009228     1.007825032230
         H            1.927952060496     1.993995367726    -0.256311009228     1.007825032230
         H            2.698316060496     1.074640367726    -1.575071009228     1.007825032230
         H           -3.658420939504     1.613581367726    -0.179593009228     1.007825032230
         H           -1.928212939504     1.994002367726    -0.256439009228     1.007825032230
         H           -2.698699939504     1.074582367726    -1.575078009228     1.007825032230
         H           -4.353569939504    -0.875634632274     0.273974990772     1.007825032230
         H           -3.066487939504    -2.089863632274     0.437144990772     1.007825032230
         H           -3.403223939504    -1.361785632274    -1.146451009228     1.007825032230

  Basis Set: AUG-CC-PVTZ
    Blend: AUG-CC-PVTZ
  Basis Set: (AUG-CC-PVTZ AUX)
    Blend: AUG-CC-PVTZ-JKFIT
	 Reference Energy          =    -498.0258202477127725 [Eh]
	 Singles Energy            =      -0.0000000000000000 [Eh]
	 Same-Spin Energy          =      -0.4956179462311040 [Eh]
	 Opposite-Spin Energy      =      -1.6277333714444522 [Eh]
	 Correlation Energy        =      -2.1233513176755561 [Eh]
	 Total Energy              =    -500.1491715653883148 [Eh]

	 ================> DF-SCS-MP2 Energies <==================
	-----------------------------------------------------------
	 SCS Same-Spin Scale       =       0.3333333333333333 [-]
	 SCS Opposite-Spin Scale   =       1.2000000000000000 [-]
	 SCS Same-Spin Energy      =      -0.1652059820770347 [Eh]
	 SCS Opposite-Spin Energy  =      -1.9532800457333426 [Eh]
	 SCS Correlation Energy    =      -2.1184860278103774 [Eh]
	 SCS Total Energy          =    -500.1443062755231495 [Eh]
	-----------------------------------------------------------

  Dipole Moment: [D]
     X:    -0.0000      Y:    -0.5010      Z:    -0.0146     Total:     0.5012

*** Psi4 exiting successfully. Buy a developer a beer!
