                               Psi4 1.3.2 release

  ==> Input File <==

--------------------------------------------------------------------------
#psi4
#
memory 32 gb

molecule  {
0 1
  O        1.0823540    -0.5566580    -0.2632920
  O       -1.0823250    -0.5564370    -0.2635130
  O        0.0000362     0.9141673     1.1212947
  C        2.3645980    -0.0472600     0.2117580
  C       -2.3645710    -0.0472670     0.2117220
  C        3.3580870    -1.1527530    -0.0787140
  C        2.6794210     1.2541120    -0.5011060
  C       -2.6796530     1.2540600    -0.5011170
  C       -3.3579470    -1.1529030    -0.0785870
  C        0.0000190     0.0134100     0.2963400
  H        2.2751950     0.1248800     1.2880410
  H       -2.2750520     0.1249260     1.2879850
  H        4.3537060    -0.8600380     0.2666930
  H        3.0667940    -2.0744370     0.4299490
  H        3.4032550    -1.3462360    -1.1536500
  H        3.6582030     1.6290460    -0.1867860
  H        1.9279580     2.0093320    -0.2633690
  H        2.6983220     1.0899770    -1.5821290
  H       -3.6584150     1.6289180    -0.1866510
  H       -1.9282070     2.0093390    -0.2634970
  H       -2.6986940     1.0899190    -1.5821360
  H       -4.3535640    -0.8602980     0.2669170
  H       -3.0664820    -2.0745270     0.4300870
  H       -3.4032180    -1.3464490    -1.1535090
units angstrom
no_reorient  #important for SAPT in psi4, default
symmetry c1  #important for SAPT in psi4, default
}

set PROPERTIES_ORIGIN ["COM"]
properties('MP2/aug-cc-pvtz', properties = ['dipole'])
--------------------------------------------------------------------------

    Molecular point group: c1
  Charge       = 0
  Multiplicity = 1
  Basis Set: AUG-CC-PVTZ
    Blend: AUG-CC-PVTZ
  Basis Set: (AUG-CC-PVTZ AUX)
    Blend: AUG-CC-PVTZ-JKFIT

    Orbital Energies [Eh]
    ---------------------

    Doubly Occupied:

       1A    -20.601085     2A    -20.601060     3A    -20.541314
       4A    -11.428153     5A    -11.293916     6A    -11.293914
       7A    -11.221667     8A    -11.221667     9A    -11.217922
      10A    -11.217921    11A     -1.491901    12A     -1.389278
      13A     -1.353936    14A     -1.081710    15A     -1.054153
      16A     -0.946155    17A     -0.946046    18A     -0.876636
      19A     -0.801024    20A     -0.769650    21A     -0.745515
      22A     -0.695591    23A     -0.673704    24A     -0.632760
      25A     -0.624653    26A     -0.615425    27A     -0.581934
      28A     -0.574004    29A     -0.558938    30A     -0.548341
      31A     -0.548104    32A     -0.533404    33A     -0.526074
      34A     -0.516807    35A     -0.505999    36A     -0.490683
      37A     -0.485970    38A     -0.468331    39A     -0.456502
      40A     -0.451936

  @DF-RHF Final Energy:  -498.03871669940986

   => Energetics <=

    Nuclear Repulsion Energy =            577.3841053061670436
    One-Electron Energy =               -1825.6780771871192428
    Two-Electron Energy =                 750.2552551815422248
    Total Energy =                       -498.0387166994098607
  Basis Set: (AUG-CC-PVTZ AUX)
    Blend: AUG-CC-PVTZ-RI
    Molecular point group: c1

    Geometry (in Angstrom), charge = 0, multiplicity = 1:

       Center              X                  Y                   Z               Mass
    ------------   -----------------  -----------------  -----------------  -----------------
         O            1.082352012850    -0.552744520775    -0.275691613855    15.994914619570
         O           -1.082326987150    -0.552523520775    -0.275912613855    15.994914619570
         O            0.000034212850     0.918080779225     1.108895086145    15.994914619570
         C            2.364596012850    -0.043346520775     0.199358386145    12.000000000000
         C           -2.364572987150    -0.043353520775     0.199322386145    12.000000000000
         C            3.358085012850    -1.148839520775    -0.091113613855    12.000000000000
         C            2.679419012850     1.258025479225    -0.513505613855    12.000000000000
         C           -2.679654987150     1.257973479225    -0.513516613855    12.000000000000
         C           -3.357948987150    -1.148989520775    -0.090986613855    12.000000000000
         C            0.000017012850     0.017323479225     0.283940386145    12.000000000000
         H            2.275193012850     0.128793479225     1.275641386145     1.007825032230
         H           -2.275053987150     0.128839479225     1.275585386145     1.007825032230
         H            4.353704012850    -0.856124520775     0.254293386145     1.007825032230
         H            3.066792012850    -2.070523520775     0.417549386145     1.007825032230
         H            3.403253012850    -1.342322520775    -1.166049613855     1.007825032230
         H            3.658201012850     1.632959479225    -0.199185613855     1.007825032230
         H            1.927956012850     2.013245479225    -0.275768613855     1.007825032230
         H            2.698320012850     1.093890479225    -1.594528613855     1.007825032230
         H           -3.658416987150     1.632831479225    -0.199050613855     1.007825032230
         H           -1.928208987150     2.013252479225    -0.275896613855     1.007825032230
         H           -2.698695987150     1.093832479225    -1.594535613855     1.007825032230
         H           -4.353565987150    -0.856384520775     0.254517386145     1.007825032230
         H           -3.066483987150    -2.070613520775     0.417687386145     1.007825032230
         H           -3.403219987150    -1.342535520775    -1.165908613855     1.007825032230

  Basis Set: AUG-CC-PVTZ
    Blend: AUG-CC-PVTZ
  Basis Set: (AUG-CC-PVTZ AUX)
    Blend: AUG-CC-PVTZ-JKFIT
	 Reference Energy          =    -498.0387166994098607 [Eh]
	 Singles Energy            =      -0.0000000000000000 [Eh]
	 Same-Spin Energy          =      -0.4943746302468031 [Eh]
	 Opposite-Spin Energy      =      -1.6249590066417794 [Eh]
	 Correlation Energy        =      -2.1193336368885825 [Eh]
	 Total Energy              =    -500.1580503362984587 [Eh]

	 ================> DF-SCS-MP2 Energies <==================
	-----------------------------------------------------------
	 SCS Same-Spin Scale       =       0.3333333333333333 [-]
	 SCS Opposite-Spin Scale   =       1.2000000000000000 [-]
	 SCS Same-Spin Energy      =      -0.1647915434156010 [Eh]
	 SCS Opposite-Spin Energy  =      -1.9499508079701351 [Eh]
	 SCS Correlation Energy    =      -2.1147423513857362 [Eh]
	 SCS Total Energy          =    -500.1534590507956182 [Eh]
	-----------------------------------------------------------

  Dipole Moment: [D]
     X:     0.0000      Y:    -0.1678      Z:    -0.2349     Total:     0.2887

*** Psi4 exiting successfully. Buy a developer a beer!
