                               Psi4 1.3.2 release

  ==> Input File <==

--------------------------------------------------------------------------
#psi4
#
memory 32 gb

molecule  {
0 1
  O        1.0823540    -0.5566580    -0.2632920
  O       -1.0823250    -0.5564370    -0.2635130
  O        0.0000434     0.9493326     1.0857503
  C        2.3645980    -0.0472600     0.2117580
  C       -2.3645710    -0.0472670     0.2117220
  C        3.3580870    -1.1527530    -0.0787140
  C        2.6794210     1.2541120    -0.5011060
  C       -2.6796530     1.2540600    -0.5011170
  C       -3.3579470    -1.1529030    -0.0785870
  C        0.0000190     0.0134100     0.2963400
  H        2.2751950     0.1248800     1.2880410
  H       -2.2750520     0.1249260     1.2879850
  H        4.3537060    -0.8600380     0.2666930
  H        3.0667940    -2.0744370     0.4299490
  H        3.4032550    -1.3462360    -1.1536500
  H        3.6582030     1.6290460    -0.1867860
  H        1.9279580     2.0093320    -0.2633690
  H        2.6983220     1.0899770    -1.5821290
  H       -3.6584150     1.6289180    -0.1866510
  H       -1.9282070     2.0093390    -0.2634970
  H       -2.6986940     1.0899190    -1.5821360
  H       -4.3535640    -0.8602980     0.2669170
  H       -3.0664820    -2.0745270     0.4300870
  H       -3.4032180    -1.3464490    -1.1535090
units angstrom
no_reorient  #important for SAPT in psi4, default
symmetry c1  #important for SAPT in psi4, default
}

set PROPERTIES_ORIGIN ["COM"]
properties('MP2/aug-cc-pvtz', properties = ['dipole'])
--------------------------------------------------------------------------

    Molecular point group: c1
  Charge       = 0
  Multiplicity = 1
  Basis Set: AUG-CC-PVTZ
    Blend: AUG-CC-PVTZ
  Basis Set: (AUG-CC-PVTZ AUX)
    Blend: AUG-CC-PVTZ-JKFIT

    Orbital Energies [Eh]
    ---------------------

    Doubly Occupied:

       1A    -20.601441     2A    -20.601417     3A    -20.541297
       4A    -11.428812     5A    -11.294124     6A    -11.294122
       7A    -11.221744     8A    -11.221744     9A    -11.217333
      10A    -11.217332    11A     -1.491662    12A     -1.389524
      13A     -1.352528    14A     -1.081738    15A     -1.054103
      16A     -0.945873    17A     -0.945850    18A     -0.876739
      19A     -0.801090    20A     -0.770197    21A     -0.745237
      22A     -0.695515    23A     -0.672927    24A     -0.633017
      25A     -0.624253    26A     -0.615436    27A     -0.582238
      28A     -0.573357    29A     -0.558917    30A     -0.548125
      31A     -0.547971    32A     -0.532484    33A     -0.526227
      34A     -0.516696    35A     -0.505906    36A     -0.491227
      37A     -0.486166    38A     -0.467704    39A     -0.455877
      40A     -0.451862

  @DF-RHF Final Energy:  -498.03765914835230

   => Energetics <=

    Nuclear Repulsion Energy =            577.4307172231278855
    One-Electron Energy =               -1825.7771246912620882
    Two-Electron Energy =                 750.3087483197818983
    Total Energy =                       -498.0376591483523043
  Basis Set: (AUG-CC-PVTZ AUX)
    Blend: AUG-CC-PVTZ-RI
    Molecular point group: c1

    Geometry (in Angstrom), charge = 0, multiplicity = 1:

       Center              X                  Y                   Z               Mass
    ------------   -----------------  -----------------  -----------------  -----------------
         O            1.082351224569    -0.556594540885    -0.271800088551    15.994914619570
         O           -1.082327775431    -0.556373540885    -0.272021088551    15.994914619570
         O            0.000040624569     0.949396059115     1.077242211449    15.994914619570
         C            2.364595224569    -0.047196540885     0.203249911449    12.000000000000
         C           -2.364573775431    -0.047203540885     0.203213911449    12.000000000000
         C            3.358084224569    -1.152689540885    -0.087222088551    12.000000000000
         C            2.679418224569     1.254175459115    -0.509614088551    12.000000000000
         C           -2.679655775431     1.254123459115    -0.509625088551    12.000000000000
         C           -3.357949775431    -1.152839540885    -0.087095088551    12.000000000000
         C            0.000016224569     0.013473459115     0.287831911449    12.000000000000
         H            2.275192224569     0.124943459115     1.279532911449     1.007825032230
         H           -2.275054775431     0.124989459115     1.279476911449     1.007825032230
         H            4.353703224569    -0.859974540885     0.258184911449     1.007825032230
         H            3.066791224569    -2.074373540885     0.421440911449     1.007825032230
         H            3.403252224569    -1.346172540885    -1.162158088551     1.007825032230
         H            3.658200224569     1.629109459115    -0.195294088551     1.007825032230
         H            1.927955224569     2.009395459115    -0.271877088551     1.007825032230
         H            2.698319224569     1.090040459115    -1.590637088551     1.007825032230
         H           -3.658417775431     1.628981459115    -0.195159088551     1.007825032230
         H           -1.928209775431     2.009402459115    -0.272005088551     1.007825032230
         H           -2.698696775431     1.089982459115    -1.590644088551     1.007825032230
         H           -4.353566775431    -0.860234540885     0.258408911449     1.007825032230
         H           -3.066484775431    -2.074463540885     0.421578911449     1.007825032230
         H           -3.403220775431    -1.346385540885    -1.162017088551     1.007825032230

  Basis Set: AUG-CC-PVTZ
    Blend: AUG-CC-PVTZ
  Basis Set: (AUG-CC-PVTZ AUX)
    Blend: AUG-CC-PVTZ-JKFIT
	 Reference Energy          =    -498.0376591483523043 [Eh]
	 Singles Energy            =      -0.0000000000000000 [Eh]
	 Same-Spin Energy          =      -0.4944921545975619 [Eh]
	 Opposite-Spin Energy      =      -1.6252110677423461 [Eh]
	 Correlation Energy        =      -2.1197032223399082 [Eh]
	 Total Energy              =    -500.1573623706922262 [Eh]

	 ================> DF-SCS-MP2 Energies <==================
	-----------------------------------------------------------
	 SCS Same-Spin Scale       =       0.3333333333333333 [-]
	 SCS Opposite-Spin Scale   =       1.2000000000000000 [-]
	 SCS Same-Spin Energy      =      -0.1648307181991873 [Eh]
	 SCS Opposite-Spin Energy  =      -1.9502532812908153 [Eh]
	 SCS Correlation Energy    =      -2.1150839994900026 [Eh]
	 SCS Total Energy          =    -500.1527431478423296 [Eh]
	-----------------------------------------------------------

  Dipole Moment: [D]
     X:     0.0000      Y:    -0.2258      Z:    -0.1833     Total:     0.2909

*** Psi4 exiting successfully. Buy a developer a beer!
