                               Psi4 1.3.2 release

  ==> Input File <==

--------------------------------------------------------------------------
#psi4
#
memory 32 gb

molecule  {
0 1
  O        1.0823540    -0.5566580    -0.2632920
  O       -1.0823250    -0.5564370    -0.2635130
  O        0.0000507     0.9844980     1.0502060
  C        2.3645980    -0.0472600     0.2117580
  C       -2.3645710    -0.0472670     0.2117220
  C        3.3580870    -1.1527530    -0.0787140
  C        2.6794210     1.2541120    -0.5011060
  C       -2.6796530     1.2540600    -0.5011170
  C       -3.3579470    -1.1529030    -0.0785870
  C        0.0000190     0.0134100     0.2963400
  H        2.2751950     0.1248800     1.2880410
  H       -2.2750520     0.1249260     1.2879850
  H        4.3537060    -0.8600380     0.2666930
  H        3.0667940    -2.0744370     0.4299490
  H        3.4032550    -1.3462360    -1.1536500
  H        3.6582030     1.6290460    -0.1867860
  H        1.9279580     2.0093320    -0.2633690
  H        2.6983220     1.0899770    -1.5821290
  H       -3.6584150     1.6289180    -0.1866510
  H       -1.9282070     2.0093390    -0.2634970
  H       -2.6986940     1.0899190    -1.5821360
  H       -4.3535640    -0.8602980     0.2669170
  H       -3.0664820    -2.0745270     0.4300870
  H       -3.4032180    -1.3464490    -1.1535090
units angstrom
no_reorient  #important for SAPT in psi4, default
symmetry c1  #important for SAPT in psi4, default
}

set PROPERTIES_ORIGIN ["COM"]
properties('MP2/aug-cc-pvtz', properties = ['dipole'])
--------------------------------------------------------------------------

    Molecular point group: c1
  Charge       = 0
  Multiplicity = 1
  Basis Set: AUG-CC-PVTZ
    Blend: AUG-CC-PVTZ
  Basis Set: (AUG-CC-PVTZ AUX)
    Blend: AUG-CC-PVTZ-JKFIT

    Orbital Energies [Eh]
    ---------------------

    Doubly Occupied:

       1A    -20.602019     2A    -20.601995     3A    -20.541207
       4A    -11.429863     5A    -11.294378     6A    -11.294376
       7A    -11.221856     8A    -11.221856     9A    -11.216734
      10A    -11.216734    11A     -1.491241    12A     -1.389907
      13A     -1.350059    14A     -1.081822    15A     -1.054094
      16A     -0.945670    17A     -0.945608    18A     -0.876949
      19A     -0.801208    20A     -0.770855    21A     -0.744854
      22A     -0.695259    23A     -0.671968    24A     -0.633299
      25A     -0.623790    26A     -0.615492    27A     -0.582364
      28A     -0.572730    29A     -0.558914    30A     -0.547920
      31A     -0.547860    32A     -0.531496    33A     -0.526450
      34A     -0.516636    35A     -0.505645    36A     -0.491751
      37A     -0.486389    38A     -0.466942    39A     -0.454962
      40A     -0.451764

  @DF-RHF Final Energy:  -498.03589604189017

   => Energetics <=

    Nuclear Repulsion Energy =            577.4180596606292966
    One-Electron Energy =               -1825.7580759872112139
    Two-Electron Energy =                 750.3041202846917486
    Total Energy =                       -498.0358960418901688
  Basis Set: (AUG-CC-PVTZ AUX)
    Blend: AUG-CC-PVTZ-RI
    Molecular point group: c1

    Geometry (in Angstrom), charge = 0, multiplicity = 1:

       Center              X                  Y                   Z               Mass
    ------------   -----------------  -----------------  -----------------  -----------------
         O            1.082350425339    -0.560444571944    -0.267908574194    15.994914619570
         O           -1.082328574661    -0.560223571944    -0.268129574194    15.994914619570
         O            0.000047125339     0.980711428056     1.045589425806    15.994914619570
         C            2.364594425339    -0.051046571944     0.207141425806    12.000000000000
         C           -2.364574574661    -0.051053571944     0.207105425806    12.000000000000
         C            3.358083425339    -1.156539571944    -0.083330574194    12.000000000000
         C            2.679417425339     1.250325428056    -0.505722574194    12.000000000000
         C           -2.679656574661     1.250273428056    -0.505733574194    12.000000000000
         C           -3.357950574661    -1.156689571944    -0.083203574194    12.000000000000
         C            0.000015425339     0.009623428056     0.291723425806    12.000000000000
         H            2.275191425339     0.121093428056     1.283424425806     1.007825032230
         H           -2.275055574661     0.121139428056     1.283368425806     1.007825032230
         H            4.353702425339    -0.863824571944     0.262076425806     1.007825032230
         H            3.066790425339    -2.078223571944     0.425332425806     1.007825032230
         H            3.403251425339    -1.350022571944    -1.158266574194     1.007825032230
         H            3.658199425339     1.625259428056    -0.191402574194     1.007825032230
         H            1.927954425339     2.005545428056    -0.267985574194     1.007825032230
         H            2.698318425339     1.086190428056    -1.586745574194     1.007825032230
         H           -3.658418574661     1.625131428056    -0.191267574194     1.007825032230
         H           -1.928210574661     2.005552428056    -0.268113574194     1.007825032230
         H           -2.698697574661     1.086132428056    -1.586752574194     1.007825032230
         H           -4.353567574661    -0.864084571944     0.262300425806     1.007825032230
         H           -3.066485574661    -2.078313571944     0.425470425806     1.007825032230
         H           -3.403221574661    -1.350235571944    -1.158125574194     1.007825032230

  Basis Set: AUG-CC-PVTZ
    Blend: AUG-CC-PVTZ
  Basis Set: (AUG-CC-PVTZ AUX)
    Blend: AUG-CC-PVTZ-JKFIT
	 Reference Energy          =    -498.0358960418901688 [Eh]
	 Singles Energy            =      -0.0000000000000000 [Eh]
	 Same-Spin Energy          =      -0.4946768824033126 [Eh]
	 Opposite-Spin Energy      =      -1.6256161580533957 [Eh]
	 Correlation Energy        =      -2.1202930404567084 [Eh]
	 Total Energy              =    -500.1561890823468843 [Eh]

	 ================> DF-SCS-MP2 Energies <==================
	-----------------------------------------------------------
	 SCS Same-Spin Scale       =       0.3333333333333333 [-]
	 SCS Opposite-Spin Scale   =       1.2000000000000000 [-]
	 SCS Same-Spin Energy      =      -0.1648922941344375 [Eh]
	 SCS Opposite-Spin Energy  =      -1.9507393896640748 [Eh]
	 SCS Correlation Energy    =      -2.1156316837985125 [Eh]
	 SCS Total Energy          =    -500.1515277256887089 [Eh]
	-----------------------------------------------------------

  Dipole Moment: [D]
     X:    -0.0000      Y:    -0.2883      Z:    -0.1357     Total:     0.3186

*** Psi4 exiting successfully. Buy a developer a beer!
