                               Psi4 1.3.2 release

  ==> Input File <==

--------------------------------------------------------------------------
#psi4
#
memory 32 gb

molecule  {
0 1
  O        1.7330970     0.1672710     0.0000140
  O       -1.7330910    -0.1672830     0.0000460
  C        0.6456620    -0.3952850     0.0000220
  C       -0.6316757     0.4177154    -0.0001257
  H        0.5273580    -1.4940480    -0.0000530
  H       -0.5273580     1.4940580     0.0002160
units angstrom
no_reorient  #important for SAPT in psi4, default
symmetry c1  #important for SAPT in psi4, default
}

set PROPERTIES_ORIGIN ["COM"]
properties('MP2/aug-cc-pvtz', properties = ['dipole'])
--------------------------------------------------------------------------

    Molecular point group: c1
  Charge       = 0
  Multiplicity = 1
  Basis Set: AUG-CC-PVTZ
    Blend: AUG-CC-PVTZ
  Basis Set: (AUG-CC-PVTZ AUX)
    Blend: AUG-CC-PVTZ-JKFIT

    Orbital Energies [Eh]
    ---------------------

    Doubly Occupied:

       1A    -20.611006     2A    -20.610612     3A    -11.373295
       4A    -11.372451     5A     -1.432033     6A     -1.408432
       7A     -0.975134     8A     -0.834105     9A     -0.707115
      10A     -0.704435    11A     -0.654295    12A     -0.587826
      13A     -0.525743    14A     -0.521906    15A     -0.451119

  @DF-RHF Final Energy:  -226.67111690871485

   => Energetics <=

    Nuclear Repulsion Energy =            100.9107966309048976
    One-Electron Energy =                -509.6248146857354868
    Two-Electron Energy =                 182.0429011461157529
    Total Energy =                       -226.6711169087148505
  Basis Set: (AUG-CC-PVTZ AUX)
    Blend: AUG-CC-PVTZ-RI
    Molecular point group: c1

    Geometry (in Angstrom), charge = 0, multiplicity = 1:

       Center              X                  Y                   Z               Mass
    ------------   -----------------  -----------------  -----------------  -----------------
         O            1.730201901614     0.162633801196     0.000016076177    15.994914619570
         O           -1.735986098386    -0.171920198804     0.000048076177    15.994914619570
         C            0.642766901614    -0.399922198804     0.000024076177    12.000000000000
         C           -0.634570798386     0.413078201196    -0.000123623823    12.000000000000
         H            0.524462901614    -1.498685198804    -0.000050923823     1.007825032230
         H           -0.530253098386     1.489420801196     0.000218076177     1.007825032230

  Basis Set: AUG-CC-PVTZ
    Blend: AUG-CC-PVTZ
  Basis Set: (AUG-CC-PVTZ AUX)
    Blend: AUG-CC-PVTZ-JKFIT
	 Reference Energy          =    -226.6711169087148505 [Eh]
	 Singles Energy            =      -0.0000000000000000 [Eh]
	 Same-Spin Energy          =      -0.2085979253188741 [Eh]
	 Opposite-Spin Energy      =      -0.6432769237771119 [Eh]
	 Correlation Energy        =      -0.8518748490959860 [Eh]
	 Total Energy              =    -227.5229917578108427 [Eh]

	 ================> DF-SCS-MP2 Energies <==================
	-----------------------------------------------------------
	 SCS Same-Spin Scale       =       0.3333333333333333 [-]
	 SCS Opposite-Spin Scale   =       1.2000000000000000 [-]
	 SCS Same-Spin Energy      =      -0.0695326417729580 [Eh]
	 SCS Opposite-Spin Energy  =      -0.7719323085325343 [Eh]
	 SCS Correlation Energy    =      -0.8414649503054923 [Eh]
	 SCS Total Energy          =    -227.5125818590203437 [Eh]
	-----------------------------------------------------------

  Dipole Moment: [D]
     X:     0.0447      Y:     0.0669      Z:    -0.0001     Total:     0.0804

*** Psi4 exiting successfully. Buy a developer a beer!
