                               Psi4 1.3.2 release

  ==> Input File <==

--------------------------------------------------------------------------
#psi4
#
memory 32 gb

molecule  {
0 1
  O        1.7330970     0.1672710     0.0000140
  O       -1.7330910    -0.1672830     0.0000460
  C        0.6456620    -0.3952850     0.0000220
  C       -0.6976727     0.3032944    -0.0001415
  H        0.5273580    -1.4940480    -0.0000530
  H       -0.5273580     1.4940580     0.0002160
units angstrom
no_reorient  #important for SAPT in psi4, default
symmetry c1  #important for SAPT in psi4, default
}

set PROPERTIES_ORIGIN ["COM"]
properties('MP2/aug-cc-pvtz', properties = ['dipole'])
--------------------------------------------------------------------------

    Molecular point group: c1
  Charge       = 0
  Multiplicity = 1
  Basis Set: AUG-CC-PVTZ
    Blend: AUG-CC-PVTZ
  Basis Set: (AUG-CC-PVTZ AUX)
    Blend: AUG-CC-PVTZ-JKFIT

    Orbital Energies [Eh]
    ---------------------

    Doubly Occupied:

       1A    -20.613726     2A    -20.613186     3A    -11.370643
       4A    -11.367770     5A     -1.491235     6A     -1.425910
       7A     -0.973628     8A     -0.811677     9A     -0.723768
      10A     -0.711801    11A     -0.663789    12A     -0.619130
      13A     -0.545027    14A     -0.525493    15A     -0.430773

  @DF-RHF Final Energy:  -226.66593767080056

   => Energetics <=

    Nuclear Repulsion Energy =            102.3717474563919723
    One-Electron Energy =                -512.3002591864316173
    Two-Electron Energy =                 183.2625740592390855
    Total Energy =                       -226.6659376708005595
  Basis Set: (AUG-CC-PVTZ AUX)
    Blend: AUG-CC-PVTZ-RI
    Molecular point group: c1

    Geometry (in Angstrom), charge = 0, multiplicity = 1:

       Center              X                  Y                   Z               Mass
    ------------   -----------------  -----------------  -----------------  -----------------
         O            1.743855163505     0.186304875316     0.000019344834    15.994914619570
         O           -1.722332836495    -0.148249124684     0.000051344834    15.994914619570
         C            0.656420163505    -0.376251124684     0.000027344834    12.000000000000
         C           -0.686914536495     0.322328275316    -0.000136155166    12.000000000000
         H            0.538116163505    -1.475014124684    -0.000047655166     1.007825032230
         H           -0.516599836495     1.513091875316     0.000221344834     1.007825032230

  Basis Set: AUG-CC-PVTZ
    Blend: AUG-CC-PVTZ
  Basis Set: (AUG-CC-PVTZ AUX)
    Blend: AUG-CC-PVTZ-JKFIT
	 Reference Energy          =    -226.6659376708005595 [Eh]
	 Singles Energy            =      -0.0000000000000000 [Eh]
	 Same-Spin Energy          =      -0.2064177726101267 [Eh]
	 Opposite-Spin Energy      =      -0.6372446281846027 [Eh]
	 Correlation Energy        =      -0.8436624007947293 [Eh]
	 Total Energy              =    -227.5096000715952869 [Eh]

	 ================> DF-SCS-MP2 Energies <==================
	-----------------------------------------------------------
	 SCS Same-Spin Scale       =       0.3333333333333333 [-]
	 SCS Opposite-Spin Scale   =       1.2000000000000000 [-]
	 SCS Same-Spin Energy      =      -0.0688059242033756 [Eh]
	 SCS Opposite-Spin Energy  =      -0.7646935538215233 [Eh]
	 SCS Correlation Energy    =      -0.8334994780248988 [Eh]
	 SCS Total Energy          =    -227.4994371488254501 [Eh]
	-----------------------------------------------------------

  Dipole Moment: [D]
     X:    -0.2192      Y:    -0.3934      Z:    -0.0002     Total:     0.4503

*** Psi4 exiting successfully. Buy a developer a beer!
