                               Psi4 1.3.2 release

  ==> Input File <==

--------------------------------------------------------------------------
#psi4
#
memory 32 gb

molecule  {
0 1
  O        1.7427493     0.1482070     0.0000166
  O       -1.7330910    -0.1672830     0.0000460
  C        0.6456620    -0.3952850     0.0000220
  C       -0.6456700     0.3952990    -0.0001290
  H        0.5273580    -1.4940480    -0.0000530
  H       -0.5273580     1.4940580     0.0002160
units angstrom
no_reorient  #important for SAPT in psi4, default
symmetry c1  #important for SAPT in psi4, default
}

set PROPERTIES_ORIGIN ["COM"]
properties('MP2/aug-cc-pvtz', properties = ['dipole'])
--------------------------------------------------------------------------

    Molecular point group: c1
  Charge       = 0
  Multiplicity = 1
  Basis Set: AUG-CC-PVTZ
    Blend: AUG-CC-PVTZ
  Basis Set: (AUG-CC-PVTZ AUX)
    Blend: AUG-CC-PVTZ-JKFIT

    Orbital Energies [Eh]
    ---------------------

    Doubly Occupied:

       1A    -20.611926     2A    -20.610918     3A    -11.372846
       4A    -11.371537     5A     -1.436075     6A     -1.418986
       7A     -0.974812     8A     -0.828762     9A     -0.707665
      10A     -0.706694    11A     -0.657195    12A     -0.591839
      13A     -0.528197    14A     -0.526404    15A     -0.448119

  @DF-RHF Final Energy:  -226.67471968985001

   => Energetics <=

    Nuclear Repulsion Energy =            101.1084741611245619
    One-Electron Energy =                -509.9824414860606225
    Two-Electron Energy =                 182.1992476350860670
    Total Energy =                       -226.6747196898500079
  Basis Set: (AUG-CC-PVTZ AUX)
    Blend: AUG-CC-PVTZ-RI
    Molecular point group: c1

    Geometry (in Angstrom), charge = 0, multiplicity = 1:

       Center              X                  Y                   Z               Mass
    ------------   -----------------  -----------------  -----------------  -----------------
         O            1.740087694825     0.153464105306     0.000018641925    15.994914619570
         O           -1.735752605175    -0.162025894694     0.000048041925    15.994914619570
         C            0.643000394825    -0.390027894694     0.000024041925    12.000000000000
         C           -0.648331605175     0.400556105306    -0.000126958075    12.000000000000
         H            0.524696394825    -1.488790894694    -0.000050958075     1.007825032230
         H           -0.530019605175     1.499315105306     0.000218041925     1.007825032230

  Basis Set: AUG-CC-PVTZ
    Blend: AUG-CC-PVTZ
  Basis Set: (AUG-CC-PVTZ AUX)
    Blend: AUG-CC-PVTZ-JKFIT
	 Reference Energy          =    -226.6747196898500079 [Eh]
	 Singles Energy            =      -0.0000000000000000 [Eh]
	 Same-Spin Energy          =      -0.2080617928464434 [Eh]
	 Opposite-Spin Energy      =      -0.6418257114112174 [Eh]
	 Correlation Energy        =      -0.8498875042576607 [Eh]
	 Total Energy              =    -227.5246071941076593 [Eh]

	 ================> DF-SCS-MP2 Energies <==================
	-----------------------------------------------------------
	 SCS Same-Spin Scale       =       0.3333333333333333 [-]
	 SCS Opposite-Spin Scale   =       1.2000000000000000 [-]
	 SCS Same-Spin Energy      =      -0.0693539309488145 [Eh]
	 SCS Opposite-Spin Energy  =      -0.7701908536934609 [Eh]
	 SCS Correlation Energy    =      -0.8395447846422753 [Eh]
	 SCS Total Energy          =    -227.5142644744922791 [Eh]
	-----------------------------------------------------------

  Dipole Moment: [D]
     X:    -0.0258      Y:     0.0386      Z:    -0.0001     Total:     0.0465

*** Psi4 exiting successfully. Buy a developer a beer!
