                               Psi4 1.4a3.dev225

  ==> Input File <==

--------------------------------------------------------------------------
#psi4
#
memory 32 gb

molecule  {
0 1
  O        1.7328920     0.1673070    -0.0000030
  O       -1.7328920    -0.1673080    -0.0000030
  C        0.6456230    -0.3954040     0.0000020
  C       -0.6456240     0.3954050     0.0000040
  H        0.5325465    -1.4444480     0.0000068
  H       -0.5271910     1.4941610     0.0000050
units angstrom
no_reorient  #important for SAPT in psi4, default
symmetry c1  #important for SAPT in psi4, default
}

set PROPERTIES_ORIGIN ["COM"]
properties('MP2/aug-cc-pvtz', properties = ['dipole'])
--------------------------------------------------------------------------

    Molecular point group: c1
  Charge       = 0
  Multiplicity = 1
  Basis Set: AUG-CC-PVTZ
    Blend: AUG-CC-PVTZ
  Basis Set: (AUG-CC-PVTZ AUX)
    Blend: AUG-CC-PVTZ-JKFIT

    Orbital Energies [Eh]
    ---------------------

    Doubly Occupied:

       1A    -20.610625     2A    -20.610362     3A    -11.371008
       4A    -11.366534     5A     -1.435804     6A     -1.418324
       7A     -0.976802     8A     -0.837272     9A     -0.710300
      10A     -0.706753    11A     -0.659124    12A     -0.591451
      13A     -0.527671    14A     -0.527444    15A     -0.448577

  @DF-RHF Final Energy:  -226.67440681713353

   => Energetics <=

    Nuclear Repulsion Energy =            101.4088996647757313
    One-Electron Energy =                -510.5705154631888263
    Two-Electron Energy =                 182.4872089812795650
    Total Energy =                       -226.6744068171335300
  Basis Set: (AUG-CC-PVTZ AUX)
    Blend: AUG-CC-PVTZ-RI
    Molecular point group: c1

    Geometry (in Angstrom), charge = 0, multiplicity = 1:

       Center              X                  Y                   Z               Mass
    ------------   -----------------  -----------------  -----------------  -----------------
         O            1.732799156927     0.166443322783    -0.000002791793    15.994914619570
         O           -1.732984843073    -0.168171677217    -0.000002791793    15.994914619570
         C            0.645530156927    -0.396267677217     0.000002208207    12.000000000000
         C           -0.645716843073     0.394541322783     0.000004208207    12.000000000000
         H            0.532453656927    -1.445311677217     0.000007008207     1.007825032230
         H           -0.527283843073     1.493297322783     0.000005208207     1.007825032230

  Basis Set: AUG-CC-PVTZ
    Blend: AUG-CC-PVTZ
  Basis Set: (AUG-CC-PVTZ AUX)
    Blend: AUG-CC-PVTZ-JKFIT
	 Reference Energy          =    -226.6744068171335300 [Eh]
	 Singles Energy            =      -0.0000000000000000 [Eh]
	 Same-Spin Energy          =      -0.2078610871126214 [Eh]
	 Opposite-Spin Energy      =      -0.6414820313619047 [Eh]
	 Correlation Energy        =      -0.8493431184745261 [Eh]
	 Total Energy              =    -227.5237499356080662 [Eh]

	 ================> DF-SCS-MP2 Energies <==================
	-----------------------------------------------------------
	 SCS Same-Spin Scale       =       0.3333333333333333 [-]
	 SCS Opposite-Spin Scale   =       1.2000000000000000 [-]
	 SCS Same-Spin Energy      =      -0.0692870290375405 [Eh]
	 SCS Opposite-Spin Energy  =      -0.7697784376342857 [Eh]
	 SCS Correlation Energy    =      -0.8390654666718261 [Eh]
	 SCS Total Energy          =    -227.5134722838053563 [Eh]
	-----------------------------------------------------------

  Dipole Moment: [D]
     X:    -0.0009      Y:    -0.0355      Z:     0.0000     Total:     0.0355

*** Psi4 exiting successfully. Buy a developer a beer!
