                               Psi4 1.3.2 release

  ==> Input File <==

--------------------------------------------------------------------------
#psi4
#
memory 32 gb

molecule  {
0 1
  O        1.7859430     0.0505214     0.0000031
  O       -1.7330910    -0.1672830     0.0000460
  C        0.6456620    -0.3952850     0.0000220
  C       -0.6456700     0.3952990    -0.0001290
  H        0.5273580    -1.4940480    -0.0000530
  H       -0.5273580     1.4940580     0.0002160
units angstrom
no_reorient  #important for SAPT in psi4, default
symmetry c1  #important for SAPT in psi4, default
}

set PROPERTIES_ORIGIN ["COM"]
properties('MP2/aug-cc-pvtz', properties = ['dipole'])
--------------------------------------------------------------------------

    Molecular point group: c1
  Charge       = 0
  Multiplicity = 1
  Basis Set: AUG-CC-PVTZ
    Blend: AUG-CC-PVTZ
  Basis Set: (AUG-CC-PVTZ AUX)
    Blend: AUG-CC-PVTZ-JKFIT

    Orbital Energies [Eh]
    ---------------------

    Doubly Occupied:

       1A    -20.616084     2A    -20.610196     3A    -11.377421
       4A    -11.370677     5A     -1.436968     6A     -1.420073
       7A     -0.977833     8A     -0.827924     9A     -0.710189
      10A     -0.707180    11A     -0.656937    12A     -0.592298
      13A     -0.529678    14A     -0.526074    15A     -0.448552

  @DF-RHF Final Energy:  -226.67220975824074

   => Energetics <=

    Nuclear Repulsion Energy =            100.7755951858143533
    One-Electron Energy =                -509.2794407758323132
    Two-Electron Energy =                 181.8316358317771915
    Total Energy =                       -226.6722097582407400
  Basis Set: (AUG-CC-PVTZ AUX)
    Blend: AUG-CC-PVTZ-RI
    Molecular point group: c1

    Geometry (in Angstrom), charge = 0, multiplicity = 1:

       Center              X                  Y                   Z               Mass
    ------------   -----------------  -----------------  -----------------  -----------------
         O            1.771370803759     0.082715147332     0.000008864528    15.994914619570
         O           -1.747663196241    -0.135089252668     0.000051764528    15.994914619570
         C            0.631089803759    -0.363091252668     0.000027764528    12.000000000000
         C           -0.660242196241     0.427492747332    -0.000123235472    12.000000000000
         H            0.512785803759    -1.461854252668    -0.000047235472     1.007825032230
         H           -0.541930196241     1.526251747332     0.000221764528     1.007825032230

  Basis Set: AUG-CC-PVTZ
    Blend: AUG-CC-PVTZ
  Basis Set: (AUG-CC-PVTZ AUX)
    Blend: AUG-CC-PVTZ-JKFIT
	 Reference Energy          =    -226.6722097582407400 [Eh]
	 Singles Energy            =      -0.0000000000000000 [Eh]
	 Same-Spin Energy          =      -0.2081567301572659 [Eh]
	 Opposite-Spin Energy      =      -0.6422428203284399 [Eh]
	 Correlation Energy        =      -0.8503995504857058 [Eh]
	 Total Energy              =    -227.5226093087264587 [Eh]

	 ================> DF-SCS-MP2 Energies <==================
	-----------------------------------------------------------
	 SCS Same-Spin Scale       =       0.3333333333333333 [-]
	 SCS Opposite-Spin Scale   =       1.2000000000000000 [-]
	 SCS Same-Spin Energy      =      -0.0693855767190886 [Eh]
	 SCS Opposite-Spin Energy  =      -0.7706913843941279 [Eh]
	 SCS Correlation Energy    =      -0.8400769611132165 [Eh]
	 SCS Total Energy          =    -227.5122867193539662 [Eh]
	-----------------------------------------------------------

  Dipole Moment: [D]
     X:    -0.1424      Y:     0.2361      Z:    -0.0001     Total:     0.2757

*** Psi4 exiting successfully. Buy a developer a beer!
