                               Psi4 1.3.2 release

  ==> Input File <==

--------------------------------------------------------------------------
#psi4
#
memory 32 gb

molecule  {
0 1
  O        1.7330970     0.1672710     0.0000140
  O       -1.7330910    -0.1672830     0.0000460
  C        0.6456620    -0.3952850     0.0000220
  C       -0.6456700     0.3952990    -0.0001290
  H        0.5166529    -1.5934733    -0.0000598
  H       -0.5273580     1.4940580     0.0002160
units angstrom
no_reorient  #important for SAPT in psi4, default
symmetry c1  #important for SAPT in psi4, default
}

set PROPERTIES_ORIGIN ["COM"]
properties('MP2/aug-cc-pvtz', properties = ['dipole'])
--------------------------------------------------------------------------

    Molecular point group: c1
  Charge       = 0
  Multiplicity = 1
  Basis Set: AUG-CC-PVTZ
    Blend: AUG-CC-PVTZ
  Basis Set: (AUG-CC-PVTZ AUX)
    Blend: AUG-CC-PVTZ-JKFIT

    Orbital Energies [Eh]
    ---------------------

    Doubly Occupied:

       1A    -20.612826     2A    -20.611997     3A    -11.381647
       4A    -11.373653     5A     -1.436770     6A     -1.419704
       7A     -0.970937     8A     -0.815603     9A     -0.708231
      10A     -0.699660    11A     -0.652034    12A     -0.592677
      13A     -0.528945    14A     -0.523574    15A     -0.445930

  @DF-RHF Final Energy:  -226.66763853224433

   => Energetics <=

    Nuclear Repulsion Energy =            100.7800123126546623
    One-Electron Energy =                -509.3469262107190616
    Two-Electron Energy =                 181.8992753658200741
    Total Energy =                       -226.6676385322443252
  Basis Set: (AUG-CC-PVTZ AUX)
    Blend: AUG-CC-PVTZ-RI
    Molecular point group: c1

    Geometry (in Angstrom), charge = 0, multiplicity = 1:

       Center              X                  Y                   Z               Mass
    ------------   -----------------  -----------------  -----------------  -----------------
         O            1.733282997916     0.168998718969     0.000016877019    15.994914619570
         O           -1.732905002084    -0.165555281031     0.000048877019    15.994914619570
         C            0.645847997916    -0.393557281031     0.000024877019    12.000000000000
         C           -0.645484002084     0.397026718969    -0.000126122981    12.000000000000
         H            0.516838897916    -1.591745581031    -0.000056922981     1.007825032230
         H           -0.527172002084     1.495785718969     0.000218877019     1.007825032230

  Basis Set: AUG-CC-PVTZ
    Blend: AUG-CC-PVTZ
  Basis Set: (AUG-CC-PVTZ AUX)
    Blend: AUG-CC-PVTZ-JKFIT
	 Reference Energy          =    -226.6676385322443252 [Eh]
	 Singles Energy            =      -0.0000000000000000 [Eh]
	 Same-Spin Energy          =      -0.2085318327781835 [Eh]
	 Opposite-Spin Energy      =      -0.6426995595588181 [Eh]
	 Correlation Energy        =      -0.8512313923370016 [Eh]
	 Total Energy              =    -227.5188699245813382 [Eh]

	 ================> DF-SCS-MP2 Energies <==================
	-----------------------------------------------------------
	 SCS Same-Spin Scale       =       0.3333333333333333 [-]
	 SCS Opposite-Spin Scale   =       1.2000000000000000 [-]
	 SCS Same-Spin Energy      =      -0.0695106109260612 [Eh]
	 SCS Opposite-Spin Energy  =      -0.7712394714705817 [Eh]
	 SCS Correlation Energy    =      -0.8407500823966428 [Eh]
	 SCS Total Energy          =    -227.5083886146409782 [Eh]
	-----------------------------------------------------------

  Dipole Moment: [D]
     X:     0.0026      Y:     0.0927      Z:    -0.0001     Total:     0.0927

*** Psi4 exiting successfully. Buy a developer a beer!
