                               Psi4 1.3.2 release

  ==> Input File <==

--------------------------------------------------------------------------
#psi4
#
memory 32 gb

molecule  {
0 1
  O        1.7330970     0.1672710     0.0000140
  O       -1.7330910    -0.1672830     0.0000460
  C        0.6456620    -0.3952850     0.0000220
  C       -0.6724743     0.3497506    -0.0001354
  H        0.5273580    -1.4940480    -0.0000530
  H       -0.5273580     1.4940580     0.0002160
units angstrom
no_reorient  #important for SAPT in psi4, default
symmetry c1  #important for SAPT in psi4, default
}

set PROPERTIES_ORIGIN ["COM"]
properties('MP2/aug-cc-pvtz', properties = ['dipole'])
--------------------------------------------------------------------------

    Molecular point group: c1
  Charge       = 0
  Multiplicity = 1
  Basis Set: AUG-CC-PVTZ
    Blend: AUG-CC-PVTZ
  Basis Set: (AUG-CC-PVTZ AUX)
    Blend: AUG-CC-PVTZ-JKFIT

    Orbital Energies [Eh]
    ---------------------

    Doubly Occupied:

       1A    -20.612173     2A    -20.611633     3A    -11.370844
       4A    -11.369408     5A     -1.459899     6A     -1.424949
       7A     -0.973234     8A     -0.819516     9A     -0.714718
      10A     -0.707589    11A     -0.661065    12A     -0.603051
      13A     -0.537831    14A     -0.526613    15A     -0.440236

  @DF-RHF Final Energy:  -226.67527172576726

   => Energetics <=

    Nuclear Repulsion Energy =            101.7577864030372439
    One-Electron Energy =                -511.2006012118850435
    Two-Electron Energy =                 182.7675430830805396
    Total Energy =                       -226.6752717257672600
  Basis Set: (AUG-CC-PVTZ AUX)
    Blend: AUG-CC-PVTZ-RI
    Molecular point group: c1

    Geometry (in Angstrom), charge = 0, multiplicity = 1:

       Center              X                  Y                   Z               Mass
    ------------   -----------------  -----------------  -----------------  -----------------
         O            1.738642193909     0.176694155662     0.000018082884    15.994914619570
         O           -1.727545806091    -0.157859844338     0.000050082884    15.994914619570
         C            0.651207193909    -0.385861844338     0.000026082884    12.000000000000
         C           -0.666929106091     0.359173755662    -0.000131317116    12.000000000000
         H            0.532903193909    -1.484624844338    -0.000048917116     1.007825032230
         H           -0.521812806091     1.503481155662     0.000220082884     1.007825032230

  Basis Set: AUG-CC-PVTZ
    Blend: AUG-CC-PVTZ
  Basis Set: (AUG-CC-PVTZ AUX)
    Blend: AUG-CC-PVTZ-JKFIT
	 Reference Energy          =    -226.6752717257672600 [Eh]
	 Singles Energy            =      -0.0000000000000000 [Eh]
	 Same-Spin Energy          =      -0.2071377358498142 [Eh]
	 Opposite-Spin Energy      =      -0.6392135631910971 [Eh]
	 Correlation Energy        =      -0.8463512990409112 [Eh]
	 Total Energy              =    -227.5216230248081786 [Eh]

	 ================> DF-SCS-MP2 Energies <==================
	-----------------------------------------------------------
	 SCS Same-Spin Scale       =       0.3333333333333333 [-]
	 SCS Opposite-Spin Scale   =       1.2000000000000000 [-]
	 SCS Same-Spin Energy      =      -0.0690459119499380 [Eh]
	 SCS Opposite-Spin Energy  =      -0.7670562758293166 [Eh]
	 SCS Correlation Energy    =      -0.8361021877792546 [Eh]
	 SCS Total Energy          =    -227.5113739135465210 [Eh]
	-----------------------------------------------------------

  Dipole Moment: [D]
     X:    -0.1025      Y:    -0.1700      Z:    -0.0002     Total:     0.1986

*** Psi4 exiting successfully. Buy a developer a beer!
