                               Psi4 1.3.2 release

  ==> Input File <==

--------------------------------------------------------------------------
#psi4
#
memory 32 gb

molecule  {
0 1
  O        1.6912061     0.2417563     0.0000037
  O       -1.7330910    -0.1672830     0.0000460
  C        0.6456620    -0.3952850     0.0000220
  C       -0.6456700     0.3952990    -0.0001290
  H        0.5273580    -1.4940480    -0.0000530
  H       -0.5273580     1.4940580     0.0002160
units angstrom
no_reorient  #important for SAPT in psi4, default
symmetry c1  #important for SAPT in psi4, default
}

set PROPERTIES_ORIGIN ["COM"]
properties('MP2/aug-cc-pvtz', properties = ['dipole'])
--------------------------------------------------------------------------

    Molecular point group: c1
  Charge       = 0
  Multiplicity = 1
  Basis Set: AUG-CC-PVTZ
    Blend: AUG-CC-PVTZ
  Basis Set: (AUG-CC-PVTZ AUX)
    Blend: AUG-CC-PVTZ-JKFIT

    Orbital Energies [Eh]
    ---------------------

    Doubly Occupied:

       1A    -20.611470     2A    -20.607346     3A    -11.372582
       4A    -11.367903     5A     -1.436068     6A     -1.417095
       7A     -0.971452     8A     -0.829703     9A     -0.707364
      10A     -0.703797    11A     -0.657207    12A     -0.591571
      13A     -0.526361    14A     -0.525803    15A     -0.446529

  @DF-RHF Final Energy:  -226.67398128555712

   => Energetics <=

    Nuclear Repulsion Energy =            101.5040547454603939
    One-Electron Energy =                -510.8115729868974881
    Two-Electron Energy =                 182.6335369558799755
    Total Energy =                       -226.6739812855571188
  Basis Set: (AUG-CC-PVTZ AUX)
    Blend: AUG-CC-PVTZ-RI
    Molecular point group: c1

    Geometry (in Angstrom), charge = 0, multiplicity = 1:

       Center              X                  Y                   Z               Mass
    ------------   -----------------  -----------------  -----------------  -----------------
         O            1.702757446655     0.221217341138     0.000009299079    15.994914619570
         O           -1.721539653345    -0.187821958862     0.000051599079    15.994914619570
         C            0.657213346655    -0.415823958862     0.000027599079    12.000000000000
         C           -0.634118653345     0.374760041138    -0.000123400921    12.000000000000
         H            0.538909346655    -1.514586958862    -0.000047400921     1.007825032230
         H           -0.515806653345     1.473519041138     0.000221599079     1.007825032230

  Basis Set: AUG-CC-PVTZ
    Blend: AUG-CC-PVTZ
  Basis Set: (AUG-CC-PVTZ AUX)
    Blend: AUG-CC-PVTZ-JKFIT
	 Reference Energy          =    -226.6739812855571188 [Eh]
	 Singles Energy            =      -0.0000000000000000 [Eh]
	 Same-Spin Energy          =      -0.2080736276516845 [Eh]
	 Opposite-Spin Energy      =      -0.6416201896171827 [Eh]
	 Correlation Energy        =      -0.8496938172688672 [Eh]
	 Total Energy              =    -227.5236751028259903 [Eh]

	 ================> DF-SCS-MP2 Energies <==================
	-----------------------------------------------------------
	 SCS Same-Spin Scale       =       0.3333333333333333 [-]
	 SCS Opposite-Spin Scale   =       1.2000000000000000 [-]
	 SCS Same-Spin Energy      =      -0.0693578758838948 [Eh]
	 SCS Opposite-Spin Energy  =      -0.7699442275406192 [Eh]
	 SCS Correlation Energy    =      -0.8393021034245141 [Eh]
	 SCS Total Energy          =    -227.5132833889816197 [Eh]
	-----------------------------------------------------------

  Dipole Moment: [D]
     X:     0.1114      Y:    -0.1506      Z:    -0.0001     Total:     0.1873

*** Psi4 exiting successfully. Buy a developer a beer!
