                               Psi4 1.4a3.dev225

  ==> Input File <==

--------------------------------------------------------------------------
#psi4
#
memory 32 gb

molecule  {
0 1
  O        1.7328920     0.1673070    -0.0000030
  O       -1.7328920    -0.1673080    -0.0000030
  C        0.6278609    -0.4045967     0.0000021
  C       -0.6456240     0.3954050     0.0000040
  H        0.5271880    -1.4941600     0.0000070
  H       -0.5271910     1.4941610     0.0000050
units angstrom
no_reorient  #important for SAPT in psi4, default
symmetry c1  #important for SAPT in psi4, default
}

set PROPERTIES_ORIGIN ["COM"]
properties('MP2/aug-cc-pvtz', properties = ['dipole'])
--------------------------------------------------------------------------

    Molecular point group: c1
  Charge       = 0
  Multiplicity = 1
  Basis Set: AUG-CC-PVTZ
    Blend: AUG-CC-PVTZ
  Basis Set: (AUG-CC-PVTZ AUX)
    Blend: AUG-CC-PVTZ-JKFIT

    Orbital Energies [Eh]
    ---------------------

    Doubly Occupied:

       1A    -20.611593     2A    -20.611269     3A    -11.373170
       4A    -11.372338     5A     -1.433131     6A     -1.410220
       7A     -0.978130     8A     -0.831719     9A     -0.707162
      10A     -0.705702    11A     -0.653882    12A     -0.589348
      13A     -0.525247    14A     -0.522540    15A     -0.452099

  @DF-RHF Final Energy:  -226.67172487791203

   => Energetics <=

    Nuclear Repulsion Energy =            101.0448807024071272
    One-Electron Energy =                -509.8781100320814517
    Two-Electron Energy =                 182.1615044517623119
    Total Energy =                       -226.6717248779120268
  Basis Set: (AUG-CC-PVTZ AUX)
    Blend: AUG-CC-PVTZ-RI
    Molecular point group: c1

    Geometry (in Angstrom), charge = 0, multiplicity = 1:

       Center              X                  Y                   Z               Mass
    ------------   -----------------  -----------------  -----------------  -----------------
         O            1.736566829103     0.169208809767    -0.000002815956    15.994914619570
         O           -1.729217170897    -0.165406190233    -0.000002815956    15.994914619570
         C            0.631535729103    -0.402694890233     0.000002284044    12.000000000000
         C           -0.641949170897     0.397306809767     0.000004184044    12.000000000000
         H            0.530862829103    -1.492258190233     0.000007184044     1.007825032230
         H           -0.523516170897     1.496062809767     0.000005184044     1.007825032230

  Basis Set: AUG-CC-PVTZ
    Blend: AUG-CC-PVTZ
  Basis Set: (AUG-CC-PVTZ AUX)
    Blend: AUG-CC-PVTZ-JKFIT
	 Reference Energy          =    -226.6717248779120268 [Eh]
	 Singles Energy            =      -0.0000000000000000 [Eh]
	 Same-Spin Energy          =      -0.2086128335222197 [Eh]
	 Opposite-Spin Energy      =      -0.6431808512177664 [Eh]
	 Correlation Energy        =      -0.8517936847399861 [Eh]
	 Total Energy              =    -227.5235185626520149 [Eh]

	 ================> DF-SCS-MP2 Energies <==================
	-----------------------------------------------------------
	 SCS Same-Spin Scale       =       0.3333333333333333 [-]
	 SCS Opposite-Spin Scale   =       1.2000000000000000 [-]
	 SCS Same-Spin Energy      =      -0.0695376111740732 [Eh]
	 SCS Opposite-Spin Energy  =      -0.7718170214613196 [Eh]
	 SCS Correlation Energy    =      -0.8413546326353928 [Eh]
	 SCS Total Energy          =    -227.5130795105474135 [Eh]
	-----------------------------------------------------------

  Dipole Moment: [D]
     X:    -0.0529      Y:    -0.0328      Z:     0.0000     Total:     0.0622

*** Psi4 exiting successfully. Buy a developer a beer!
