                               Psi4 1.3.2 release

  ==> Input File <==

--------------------------------------------------------------------------
#psi4
#
memory 32 gb

molecule  {
0 1
  O        1.7330970     0.1672710     0.0000140
  O       -1.7330910    -0.1672830     0.0000460
  C        0.6456620    -0.3952850     0.0000220
  C       -0.5873760     0.4834519    -0.0001157
  H        0.5273580    -1.4940480    -0.0000530
  H       -0.5273580     1.4940580     0.0002160
units angstrom
no_reorient  #important for SAPT in psi4, default
symmetry c1  #important for SAPT in psi4, default
}

set PROPERTIES_ORIGIN ["COM"]
properties('MP2/aug-cc-pvtz', properties = ['dipole'])
--------------------------------------------------------------------------

    Molecular point group: c1
  Charge       = 0
  Multiplicity = 1
  Basis Set: AUG-CC-PVTZ
    Blend: AUG-CC-PVTZ
  Basis Set: (AUG-CC-PVTZ AUX)
    Blend: AUG-CC-PVTZ-JKFIT

    Orbital Energies [Eh]
    ---------------------

    Doubly Occupied:

       1A    -20.611450     2A    -20.609779     3A    -11.377659
       4A    -11.375823     5A     -1.431331     6A     -1.370276
       7A     -0.980096     8A     -0.850781     9A     -0.714391
      10A     -0.698294    11A     -0.640867    12A     -0.580984
      13A     -0.522256    14A     -0.501824    15A     -0.458782

  @DF-RHF Final Energy:  -226.64672567977141

   => Energetics <=

    Nuclear Repulsion Energy =            100.1644213039555638
    One-Electron Energy =                -508.1731078204494452
    Two-Electron Energy =                 181.3619608367224600
    Total Energy =                       -226.6467256797714072
  Basis Set: (AUG-CC-PVTZ AUX)
    Blend: AUG-CC-PVTZ-RI
    Molecular point group: c1

    Geometry (in Angstrom), charge = 0, multiplicity = 1:

       Center              X                  Y                   Z               Mass
    ------------   -----------------  -----------------  -----------------  -----------------
         O            1.721037312228     0.149034430766     0.000014007407    15.994914619570
         O           -1.745150687772    -0.185519569234     0.000046007407    15.994914619570
         C            0.633602312228    -0.413521569234     0.000022007407    12.000000000000
         C           -0.599435687772     0.465215330766    -0.000115692593    12.000000000000
         H            0.515298312228    -1.512284569234    -0.000052992593     1.007825032230
         H           -0.539417687772     1.475821430766     0.000216007407     1.007825032230

  Basis Set: AUG-CC-PVTZ
    Blend: AUG-CC-PVTZ
  Basis Set: (AUG-CC-PVTZ AUX)
    Blend: AUG-CC-PVTZ-JKFIT
	 Reference Energy          =    -226.6467256797714072 [Eh]
	 Singles Energy            =      -0.0000000000000000 [Eh]
	 Same-Spin Energy          =      -0.2105955522370073 [Eh]
	 Opposite-Spin Energy      =      -0.6487725080531299 [Eh]
	 Correlation Energy        =      -0.8593680602901372 [Eh]
	 Total Energy              =    -227.5060937400615444 [Eh]

	 ================> DF-SCS-MP2 Energies <==================
	-----------------------------------------------------------
	 SCS Same-Spin Scale       =       0.3333333333333333 [-]
	 SCS Opposite-Spin Scale   =       1.2000000000000000 [-]
	 SCS Same-Spin Energy      =      -0.0701985174123358 [Eh]
	 SCS Opposite-Spin Energy  =      -0.7785270096637559 [Eh]
	 SCS Correlation Energy    =      -0.8487255270760916 [Eh]
	 SCS Total Energy          =    -227.4954512068474912 [Eh]
	-----------------------------------------------------------

  Dipole Moment: [D]
     X:     0.1478      Y:     0.2029      Z:    -0.0001     Total:     0.2510

*** Psi4 exiting successfully. Buy a developer a beer!
