                               Psi4 1.3.2 release

  ==> Input File <==

--------------------------------------------------------------------------
#psi4
#
memory 32 gb

molecule  {
0 1
  O        1.7330970     0.1672710     0.0000140
  O       -1.7330910    -0.1672830     0.0000460
  C        0.6456620    -0.3952850     0.0000220
  C       -0.7212345     0.2559871    -0.0001475
  H        0.5273580    -1.4940480    -0.0000530
  H       -0.5273580     1.4940580     0.0002160
units angstrom
no_reorient  #important for SAPT in psi4, default
symmetry c1  #important for SAPT in psi4, default
}

set PROPERTIES_ORIGIN ["COM"]
properties('MP2/aug-cc-pvtz', properties = ['dipole'])
--------------------------------------------------------------------------

    Molecular point group: c1
  Charge       = 0
  Multiplicity = 1
  Basis Set: AUG-CC-PVTZ
    Blend: AUG-CC-PVTZ
  Basis Set: (AUG-CC-PVTZ AUX)
    Blend: AUG-CC-PVTZ-JKFIT

    Orbital Energies [Eh]
    ---------------------

    Doubly Occupied:

       1A    -20.616039     2A    -20.615796     3A    -11.371548
       4A    -11.367034     5A     -1.524560     6A     -1.426657
       7A     -0.975367     8A     -0.805984     9A     -0.733774
      10A     -0.718408    11A     -0.667027    12A     -0.639371
      13A     -0.550125    14A     -0.523275    15A     -0.419265

  @DF-RHF Final Energy:  -226.64639709107558

   => Energetics <=

    Nuclear Repulsion Energy =            103.0173151737672299
    One-Electron Energy =                -513.4189631207242428
    Two-Electron Energy =                 183.7552508558814566
    Total Energy =                       -226.6463970910755847
  Basis Set: (AUG-CC-PVTZ AUX)
    Blend: AUG-CC-PVTZ-RI
    Molecular point group: c1

    Geometry (in Angstrom), charge = 0, multiplicity = 1:

       Center              X                  Y                   Z               Mass
    ------------   -----------------  -----------------  -----------------  -----------------
         O            1.748729558189     0.196091667992     0.000020586096    15.994914619570
         O           -1.717458441811    -0.138462332008     0.000052586096    15.994914619570
         C            0.661294558189    -0.366464332008     0.000028586096    12.000000000000
         C           -0.705601941811     0.284807767992    -0.000140913904    12.000000000000
         H            0.542990558189    -1.465227332008    -0.000046413904     1.007825032230
         H           -0.511725441811     1.522878667992     0.000222586096     1.007825032230

  Basis Set: AUG-CC-PVTZ
    Blend: AUG-CC-PVTZ
  Basis Set: (AUG-CC-PVTZ AUX)
    Blend: AUG-CC-PVTZ-JKFIT
	 Reference Energy          =    -226.6463970910755847 [Eh]
	 Singles Energy            =      -0.0000000000000000 [Eh]
	 Same-Spin Energy          =      -0.2058583955229699 [Eh]
	 Opposite-Spin Energy      =      -0.6357941607505462 [Eh]
	 Correlation Energy        =      -0.8416525562735160 [Eh]
	 Total Energy              =    -227.4880496473491007 [Eh]

	 ================> DF-SCS-MP2 Energies <==================
	-----------------------------------------------------------
	 SCS Same-Spin Scale       =       0.3333333333333333 [-]
	 SCS Opposite-Spin Scale   =       1.2000000000000000 [-]
	 SCS Same-Spin Energy      =      -0.0686194651743233 [Eh]
	 SCS Opposite-Spin Energy  =      -0.7629529929006554 [Eh]
	 SCS Correlation Energy    =      -0.8315724580749787 [Eh]
	 SCS Total Energy          =    -227.4779695491505720 [Eh]
	-----------------------------------------------------------

  Dipole Moment: [D]
     X:    -0.3456      Y:    -0.6745      Z:    -0.0003     Total:     0.7578

*** Psi4 exiting successfully. Buy a developer a beer!
