                               Psi4 1.4a3.dev225

  ==> Input File <==

--------------------------------------------------------------------------
#psi4
#
memory 32 gb

molecule  {
0 1
  O        1.7328920     0.1673070    -0.0000030
  O       -1.7328920    -0.1673080    -0.0000030
  C        0.6012176    -0.4183858     0.0000022
  C       -0.6456240     0.3954050     0.0000040
  H        0.5271880    -1.4941600     0.0000070
  H       -0.5271910     1.4941610     0.0000050
units angstrom
no_reorient  #important for SAPT in psi4, default
symmetry c1  #important for SAPT in psi4, default
}

set PROPERTIES_ORIGIN ["COM"]
properties('MP2/aug-cc-pvtz', properties = ['dipole'])
--------------------------------------------------------------------------

    Molecular point group: c1
  Charge       = 0
  Multiplicity = 1
  Basis Set: AUG-CC-PVTZ
    Blend: AUG-CC-PVTZ
  Basis Set: (AUG-CC-PVTZ AUX)
    Blend: AUG-CC-PVTZ-JKFIT

    Orbital Energies [Eh]
    ---------------------

    Doubly Occupied:

       1A    -20.612405     2A    -20.611772     3A    -11.374923
       4A    -11.373385     5A     -1.433114     6A     -1.394215
       7A     -0.984042     8A     -0.835944     9A     -0.709388
      10A     -0.703864    11A     -0.647873    12A     -0.587092
      13A     -0.523418    14A     -0.513854    15A     -0.457961

  @DF-RHF Final Energy:  -226.66476429405827

   => Energetics <=

    Nuclear Repulsion Energy =            100.8501805107473643
    One-Electron Energy =                -509.5033922140827940
    Two-Electron Energy =                 181.9884474092771711
    Total Energy =                       -226.6647642940582728
  Basis Set: (AUG-CC-PVTZ AUX)
    Blend: AUG-CC-PVTZ-RI
    Molecular point group: c1

    Geometry (in Angstrom), charge = 0, multiplicity = 1:

       Center              X                  Y                   Z               Mass
    ------------   -----------------  -----------------  -----------------  -----------------
         O            1.742078715287     0.172061457517    -0.000002836643    15.994914619570
         O           -1.723705284713    -0.162553542483    -0.000002836643    15.994914619570
         C            0.610404315287    -0.413631342483     0.000002363357    12.000000000000
         C           -0.636437284713     0.400159457517     0.000004163357    12.000000000000
         H            0.536374715287    -1.489405542483     0.000007163357     1.007825032230
         H           -0.518004284713     1.498915457517     0.000005163357     1.007825032230

  Basis Set: AUG-CC-PVTZ
    Blend: AUG-CC-PVTZ
  Basis Set: (AUG-CC-PVTZ AUX)
    Blend: AUG-CC-PVTZ-JKFIT
	 Reference Energy          =    -226.6647642940582728 [Eh]
	 Singles Energy            =      -0.0000000000000000 [Eh]
	 Same-Spin Energy          =      -0.2095320401363143 [Eh]
	 Opposite-Spin Energy      =      -0.6454840162715778 [Eh]
	 Correlation Energy        =      -0.8550160564078921 [Eh]
	 Total Energy              =    -227.5197803504661636 [Eh]

	 ================> DF-SCS-MP2 Energies <==================
	-----------------------------------------------------------
	 SCS Same-Spin Scale       =       0.3333333333333333 [-]
	 SCS Opposite-Spin Scale   =       1.2000000000000000 [-]
	 SCS Same-Spin Energy      =      -0.0698440133787714 [Eh]
	 SCS Opposite-Spin Energy  =      -0.7745808195258933 [Eh]
	 SCS Correlation Energy    =      -0.8444248329046647 [Eh]
	 SCS Total Energy          =    -227.5091891269629514 [Eh]
	-----------------------------------------------------------

  Dipole Moment: [D]
     X:    -0.1196      Y:    -0.0744      Z:     0.0000     Total:     0.1408

*** Psi4 exiting successfully. Buy a developer a beer!
