                               Psi4 1.3.2 release

  ==> Input File <==

--------------------------------------------------------------------------
#psi4
#
memory 32 gb

molecule  {
0 1
  O        1.7330970     0.1672710     0.0000140
  O       -1.7330910    -0.1672830     0.0000460
  C        0.6456620    -0.3952850     0.0000220
  C       -0.6456700     0.3952990    -0.0001290
  H        0.5059477    -1.6928987    -0.0000666
  H       -0.5273580     1.4940580     0.0002160
units angstrom
no_reorient  #important for SAPT in psi4, default
symmetry c1  #important for SAPT in psi4, default
}

set PROPERTIES_ORIGIN ["COM"]
properties('MP2/aug-cc-pvtz', properties = ['dipole'])
--------------------------------------------------------------------------

    Molecular point group: c1
  Charge       = 0
  Multiplicity = 1
  Basis Set: AUG-CC-PVTZ
    Blend: AUG-CC-PVTZ
  Basis Set: (AUG-CC-PVTZ AUX)
    Blend: AUG-CC-PVTZ-JKFIT

    Orbital Energies [Eh]
    ---------------------

    Doubly Occupied:

       1A    -20.615215     2A    -20.613181     3A    -11.390538
       4A    -11.375839     5A     -1.437955     6A     -1.421042
       7A     -0.969650     8A     -0.806536     9A     -0.709559
      10A     -0.694606    11A     -0.645016    12A     -0.593905
      13A     -0.530320    14A     -0.520619    15A     -0.443014

  @DF-RHF Final Energy:  -226.65373081756312

   => Energetics <=

    Nuclear Repulsion Energy =            100.4215463608768459
    One-Electron Energy =                -508.6165688130170679
    Two-Electron Energy =                 181.5412916345771066
    Total Energy =                       -226.6537308175631154
  Basis Set: (AUG-CC-PVTZ AUX)
    Blend: AUG-CC-PVTZ-RI
    Molecular point group: c1

    Geometry (in Angstrom), charge = 0, multiplicity = 1:

       Center              X                  Y                   Z               Mass
    ------------   -----------------  -----------------  -----------------  -----------------
         O            1.733468997043     0.170726200720     0.000016995166    15.994914619570
         O           -1.732719002957    -0.163827799280     0.000048995166    15.994914619570
         C            0.646033997043    -0.391829799280     0.000024995166    12.000000000000
         C           -0.645298002957     0.398754200720    -0.000126004834    12.000000000000
         H            0.506319697043    -1.689443499280    -0.000063604834     1.007825032230
         H           -0.526986002957     1.497513200720     0.000218995166     1.007825032230

  Basis Set: AUG-CC-PVTZ
    Blend: AUG-CC-PVTZ
  Basis Set: (AUG-CC-PVTZ AUX)
    Blend: AUG-CC-PVTZ-JKFIT
	 Reference Energy          =    -226.6537308175631154 [Eh]
	 Singles Energy            =      -0.0000000000000000 [Eh]
	 Same-Spin Energy          =      -0.2091123105929390 [Eh]
	 Opposite-Spin Energy      =      -0.6441101775561842 [Eh]
	 Correlation Energy        =      -0.8532224881491232 [Eh]
	 Total Energy              =    -227.5069533057122442 [Eh]

	 ================> DF-SCS-MP2 Energies <==================
	-----------------------------------------------------------
	 SCS Same-Spin Scale       =       0.3333333333333333 [-]
	 SCS Opposite-Spin Scale   =       1.2000000000000000 [-]
	 SCS Same-Spin Energy      =      -0.0697041035309797 [Eh]
	 SCS Opposite-Spin Energy  =      -0.7729322130674210 [Eh]
	 SCS Correlation Energy    =      -0.8426363165984007 [Eh]
	 SCS Total Energy          =    -227.4963671341615168 [Eh]
	-----------------------------------------------------------

  Dipole Moment: [D]
     X:     0.0063      Y:     0.2146      Z:    -0.0001     Total:     0.2147

*** Psi4 exiting successfully. Buy a developer a beer!
