                               Psi4 1.4a3.dev225

  ==> Input File <==

--------------------------------------------------------------------------
#psi4
#
memory 32 gb

molecule  {
0 1
  O        1.7328920     0.1673070    -0.0000030
  O       -1.7328920    -0.1673080    -0.0000030
  C        0.6456230    -0.3954040     0.0000020
  C       -0.6456240     0.3954050     0.0000040
  H        0.5293314    -1.4742752     0.0000069
  H       -0.5271910     1.4941610     0.0000050
units angstrom
no_reorient  #important for SAPT in psi4, default
symmetry c1  #important for SAPT in psi4, default
}

set PROPERTIES_ORIGIN ["COM"]
properties('MP2/aug-cc-pvtz', properties = ['dipole'])
--------------------------------------------------------------------------

    Molecular point group: c1
  Charge       = 0
  Multiplicity = 1
  Basis Set: AUG-CC-PVTZ
    Blend: AUG-CC-PVTZ
  Basis Set: (AUG-CC-PVTZ AUX)
    Blend: AUG-CC-PVTZ-JKFIT

    Orbital Energies [Eh]
    ---------------------

    Doubly Occupied:

       1A    -20.610854     2A    -20.610736     3A    -11.371506
       4A    -11.369653     5A     -1.435928     6A     -1.418545
       7A     -0.975081     8A     -0.832146     9A     -0.708204
      10A     -0.706848    11A     -0.658039    12A     -0.591643
      13A     -0.527695    14A     -0.526896    15A     -0.448159

  @DF-RHF Final Energy:  -226.67508045183462

   => Energetics <=

    Nuclear Repulsion Energy =            101.2745359301365937
    One-Electron Energy =                -510.3153678685794716
    Two-Electron Energy =                 182.3657514866082465
    Total Energy =                       -226.6750804518346172
  Basis Set: (AUG-CC-PVTZ AUX)
    Blend: AUG-CC-PVTZ-RI
    Molecular point group: c1

    Geometry (in Angstrom), charge = 0, multiplicity = 1:

       Center              X                  Y                   Z               Mass
    ------------   -----------------  -----------------  -----------------  -----------------
         O            1.732855018171     0.166961560011    -0.000002793530    15.994914619570
         O           -1.732928981829    -0.167653439989    -0.000002793530    15.994914619570
         C            0.645586018171    -0.395749439989     0.000002206470    12.000000000000
         C           -0.645660981829     0.395059560011     0.000004206470    12.000000000000
         H            0.529294418171    -1.474620639989     0.000007106470     1.007825032230
         H           -0.527227981829     1.493815560011     0.000005206470     1.007825032230

  Basis Set: AUG-CC-PVTZ
    Blend: AUG-CC-PVTZ
  Basis Set: (AUG-CC-PVTZ AUX)
    Blend: AUG-CC-PVTZ-JKFIT
	 Reference Energy          =    -226.6750804518346172 [Eh]
	 Singles Energy            =      -0.0000000000000000 [Eh]
	 Same-Spin Energy          =      -0.2079703017949796 [Eh]
	 Opposite-Spin Energy      =      -0.6416285894947800 [Eh]
	 Correlation Energy        =      -0.8495988912897595 [Eh]
	 Total Energy              =    -227.5246793431243759 [Eh]

	 ================> DF-SCS-MP2 Energies <==================
	-----------------------------------------------------------
	 SCS Same-Spin Scale       =       0.3333333333333333 [-]
	 SCS Opposite-Spin Scale   =       1.2000000000000000 [-]
	 SCS Same-Spin Energy      =      -0.0693234339316599 [Eh]
	 SCS Opposite-Spin Energy  =      -0.7699543073937359 [Eh]
	 SCS Correlation Energy    =      -0.8392777413253958 [Eh]
	 SCS Total Energy          =    -227.5143581931600067 [Eh]
	-----------------------------------------------------------

  Dipole Moment: [D]
     X:    -0.0004      Y:    -0.0151      Z:     0.0000     Total:     0.0151

*** Psi4 exiting successfully. Buy a developer a beer!
