                               Psi4 1.3.2 release

  ==> Input File <==

--------------------------------------------------------------------------
#psi4
#
memory 32 gb

molecule  {
0 1
  O        1.7330970     0.1672710     0.0000140
  O       -1.7330910    -0.1672830     0.0000460
  C        0.5568432    -0.4412331     0.0000227
  C       -0.6456700     0.3952990    -0.0001290
  H        0.5273580    -1.4940480    -0.0000530
  H       -0.5273580     1.4940580     0.0002160
units angstrom
no_reorient  #important for SAPT in psi4, default
symmetry c1  #important for SAPT in psi4, default
}

set PROPERTIES_ORIGIN ["COM"]
properties('MP2/aug-cc-pvtz', properties = ['dipole'])
--------------------------------------------------------------------------

    Molecular point group: c1
  Charge       = 0
  Multiplicity = 1
  Basis Set: AUG-CC-PVTZ
    Blend: AUG-CC-PVTZ
  Basis Set: (AUG-CC-PVTZ AUX)
    Blend: AUG-CC-PVTZ-JKFIT

    Orbital Energies [Eh]
    ---------------------

    Doubly Occupied:

       1A    -20.613687     2A    -20.612822     3A    -11.377968
       4A    -11.374768     5A     -1.435375     6A     -1.367964
       7A     -0.993578     8A     -0.843084     9A     -0.715304
      10A     -0.702155    11A     -0.635811    12A     -0.585767
      13A     -0.520089    14A     -0.498681    15A     -0.466428

  @DF-RHF Final Energy:  -226.64793020944973

   => Energetics <=

    Nuclear Repulsion Energy =            100.5684268751752199
    One-Electron Energy =                -508.9457486975722418
    Two-Electron Energy =                 181.7293916129472677
    Total Energy =                       -226.6479302094497257
  Basis Set: (AUG-CC-PVTZ AUX)
    Blend: AUG-CC-PVTZ-RI
    Molecular point group: c1

    Geometry (in Angstrom), charge = 0, multiplicity = 1:

       Center              X                  Y                   Z               Mass
    ------------   -----------------  -----------------  -----------------  -----------------
         O            1.751471568115     0.176776844402     0.000016614057    15.994914619570
         O           -1.714716431885    -0.157777155598     0.000048614057    15.994914619570
         C            0.575217768115    -0.431727255598     0.000025314057    12.000000000000
         C           -0.627295431885     0.404804844402    -0.000126385943    12.000000000000
         H            0.545732568115    -1.484542155598    -0.000050385943     1.007825032230
         H           -0.508983431885     1.503563844402     0.000218614057     1.007825032230

  Basis Set: AUG-CC-PVTZ
    Blend: AUG-CC-PVTZ
  Basis Set: (AUG-CC-PVTZ AUX)
    Blend: AUG-CC-PVTZ-JKFIT
	 Reference Energy          =    -226.6479302094497257 [Eh]
	 Singles Energy            =      -0.0000000000000000 [Eh]
	 Same-Spin Energy          =      -0.2112836790336931 [Eh]
	 Opposite-Spin Energy      =      -0.6497867815062718 [Eh]
	 Correlation Energy        =      -0.8610704605399648 [Eh]
	 Total Energy              =    -227.5090006699896890 [Eh]

	 ================> DF-SCS-MP2 Energies <==================
	-----------------------------------------------------------
	 SCS Same-Spin Scale       =       0.3333333333333333 [-]
	 SCS Opposite-Spin Scale   =       1.2000000000000000 [-]
	 SCS Same-Spin Energy      =      -0.0704278930112310 [Eh]
	 SCS Opposite-Spin Energy  =      -0.7797441378075262 [Eh]
	 SCS Correlation Energy    =      -0.8501720308187571 [Eh]
	 SCS Total Energy          =    -227.4981022402684800 [Eh]
	-----------------------------------------------------------

  Dipole Moment: [D]
     X:    -0.1980      Y:    -0.1243      Z:    -0.0002     Total:     0.2337

*** Psi4 exiting successfully. Buy a developer a beer!
