                               Psi4 1.3.2 release

  ==> Input File <==

--------------------------------------------------------------------------
#psi4
#
memory 32 gb

molecule  {
0 1
  O        1.7330970     0.1672710     0.0000140
  O       -1.7330910    -0.1672830     0.0000460
  C        0.6456620    -0.3952850     0.0000220
  C       -0.6456700     0.3952990    -0.0001290
  H        0.5487683    -1.2951973    -0.0000394
  H       -0.5273580     1.4940580     0.0002160
units angstrom
no_reorient  #important for SAPT in psi4, default
symmetry c1  #important for SAPT in psi4, default
}

set PROPERTIES_ORIGIN ["COM"]
properties('MP2/aug-cc-pvtz', properties = ['dipole'])
--------------------------------------------------------------------------

    Molecular point group: c1
  Charge       = 0
  Multiplicity = 1
  Basis Set: AUG-CC-PVTZ
    Blend: AUG-CC-PVTZ
  Basis Set: (AUG-CC-PVTZ AUX)
    Blend: AUG-CC-PVTZ-JKFIT

    Orbital Energies [Eh]
    ---------------------

    Doubly Occupied:

       1A    -20.609790     2A    -20.609404     3A    -11.369266
       4A    -11.350474     5A     -1.435764     6A     -1.417665
       7A     -0.992126     8A     -0.866688     9A     -0.720418
      10A     -0.706163    11A     -0.662880    12A     -0.590893
      13A     -0.531211    14A     -0.526566    15A     -0.450207

  @DF-RHF Final Energy:  -226.64431888764724

   => Energetics <=

    Nuclear Repulsion Energy =            102.1687771780005676
    One-Electron Energy =                -511.9471655871757321
    Two-Electron Energy =                 183.1340695215278913
    Total Energy =                       -226.6443188876472448
  Basis Set: (AUG-CC-PVTZ AUX)
    Blend: AUG-CC-PVTZ-RI
    Molecular point group: c1

    Geometry (in Angstrom), charge = 0, multiplicity = 1:

       Center              X                  Y                   Z               Mass
    ------------   -----------------  -----------------  -----------------  -----------------
         O            1.732725004009     0.163816277191     0.000016522576    15.994914619570
         O           -1.733462995991    -0.170737722809     0.000048522576    15.994914619570
         C            0.645290004009    -0.398739722809     0.000024522576    12.000000000000
         C           -0.646041995991     0.391844277191    -0.000126477424    12.000000000000
         H            0.548396304009    -1.298652022809    -0.000036877424     1.007825032230
         H           -0.527729995991     1.490603277191     0.000218522576     1.007825032230

  Basis Set: AUG-CC-PVTZ
    Blend: AUG-CC-PVTZ
  Basis Set: (AUG-CC-PVTZ AUX)
    Blend: AUG-CC-PVTZ-JKFIT
	 Reference Energy          =    -226.6443188876472448 [Eh]
	 Singles Energy            =      -0.0000000000000000 [Eh]
	 Same-Spin Energy          =      -0.2075375826443711 [Eh]
	 Opposite-Spin Energy      =      -0.6414284341191675 [Eh]
	 Correlation Energy        =      -0.8489660167635386 [Eh]
	 Total Energy              =    -227.4932849044107854 [Eh]

	 ================> DF-SCS-MP2 Energies <==================
	-----------------------------------------------------------
	 SCS Same-Spin Scale       =       0.3333333333333333 [-]
	 SCS Opposite-Spin Scale   =       1.2000000000000000 [-]
	 SCS Same-Spin Energy      =      -0.0691791942147904 [Eh]
	 SCS Opposite-Spin Energy  =      -0.7697141209430010 [Eh]
	 SCS Correlation Energy    =      -0.8388933151577913 [Eh]
	 SCS Total Energy          =    -227.4832122028050492 [Eh]
	-----------------------------------------------------------

  Dipole Moment: [D]
     X:    -0.0026      Y:    -0.1016      Z:    -0.0001     Total:     0.1017

*** Psi4 exiting successfully. Buy a developer a beer!
