                               Psi4 1.3.2 release

  ==> Input File <==

--------------------------------------------------------------------------
#psi4
#
memory 32 gb

molecule  {
0 1
  O        1.7330970     0.1672710     0.0000140
  O       -1.7330910    -0.1672830     0.0000460
  C        0.8232996    -0.3033889     0.0000207
  C       -0.6456700     0.3952990    -0.0001290
  H        0.5273580    -1.4940480    -0.0000530
  H       -0.5273580     1.4940580     0.0002160
units angstrom
no_reorient  #important for SAPT in psi4, default
symmetry c1  #important for SAPT in psi4, default
}

set PROPERTIES_ORIGIN ["COM"]
properties('MP2/aug-cc-pvtz', properties = ['dipole'])
--------------------------------------------------------------------------

    Molecular point group: c1
  Charge       = 0
  Multiplicity = 1
  Basis Set: AUG-CC-PVTZ
    Blend: AUG-CC-PVTZ
  Basis Set: (AUG-CC-PVTZ AUX)
    Blend: AUG-CC-PVTZ-JKFIT

    Orbital Energies [Eh]
    ---------------------

    Doubly Occupied:

       1A    -20.616941     2A    -20.602982     3A    -11.360418
       4A    -11.359437     5A     -1.584801     6A     -1.413618
       7A     -0.932905     8A     -0.808849     9A     -0.748548
      10A     -0.726900    11A     -0.678085    12A     -0.665758
      13A     -0.545254    14A     -0.529235    15A     -0.392182

  @DF-RHF Final Energy:  -226.60449469405512

   => Energetics <=

    Nuclear Repulsion Energy =            103.3546417602378540
    One-Electron Energy =                -513.9864430621212250
    Two-Electron Energy =                 184.0273066078282227
    Total Energy =                       -226.6044946940551199
  Basis Set: (AUG-CC-PVTZ AUX)
    Blend: AUG-CC-PVTZ-RI
    Molecular point group: c1

    Geometry (in Angstrom), charge = 0, multiplicity = 1:

       Center              X                  Y                   Z               Mass
    ------------   -----------------  -----------------  -----------------  -----------------
         O            1.696347865348     0.148260048750     0.000017027811    15.994914619570
         O           -1.769840134652    -0.186293951250     0.000049027811    15.994914619570
         C            0.786550465348    -0.322399851250     0.000023727811    12.000000000000
         C           -0.682419134652     0.376288048750    -0.000125972189    12.000000000000
         H            0.490608865348    -1.513058951250    -0.000049972189     1.007825032230
         H           -0.564107134652     1.475047048750     0.000219027811     1.007825032230

  Basis Set: AUG-CC-PVTZ
    Blend: AUG-CC-PVTZ
  Basis Set: (AUG-CC-PVTZ AUX)
    Blend: AUG-CC-PVTZ-JKFIT
	 Reference Energy          =    -226.6044946940551199 [Eh]
	 Singles Energy            =      -0.0000000000000000 [Eh]
	 Same-Spin Energy          =      -0.2041048412880970 [Eh]
	 Opposite-Spin Energy      =      -0.6312856501889690 [Eh]
	 Correlation Energy        =      -0.8353904914770660 [Eh]
	 Total Energy              =    -227.4398851855321766 [Eh]

	 ================> DF-SCS-MP2 Energies <==================
	-----------------------------------------------------------
	 SCS Same-Spin Scale       =       0.3333333333333333 [-]
	 SCS Opposite-Spin Scale   =       1.2000000000000000 [-]
	 SCS Same-Spin Energy      =      -0.0680349470960323 [Eh]
	 SCS Opposite-Spin Energy  =      -0.7575427802267628 [Eh]
	 SCS Correlation Energy    =      -0.8255777273227951 [Eh]
	 SCS Total Energy          =    -227.4300724213779290 [Eh]
	-----------------------------------------------------------

  Dipole Moment: [D]
     X:     0.8996      Y:     0.5887      Z:    -0.0001     Total:     1.0751

*** Psi4 exiting successfully. Buy a developer a beer!
