                               Psi4 1.3.2 release

  ==> Input File <==

--------------------------------------------------------------------------
#psi4
#
memory 32 gb

molecule  {
0 1
  O        1.7330970     0.1672710     0.0000140
  O       -1.7330910    -0.1672830     0.0000460
  C        0.7344808    -0.3493369     0.0000213
  C       -0.6456700     0.3952990    -0.0001290
  H        0.5273580    -1.4940480    -0.0000530
  H       -0.5273580     1.4940580     0.0002160
units angstrom
no_reorient  #important for SAPT in psi4, default
symmetry c1  #important for SAPT in psi4, default
}

set PROPERTIES_ORIGIN ["COM"]
properties('MP2/aug-cc-pvtz', properties = ['dipole'])
--------------------------------------------------------------------------

    Molecular point group: c1
  Charge       = 0
  Multiplicity = 1
  Basis Set: AUG-CC-PVTZ
    Blend: AUG-CC-PVTZ
  Basis Set: (AUG-CC-PVTZ AUX)
    Blend: AUG-CC-PVTZ-JKFIT

    Orbital Energies [Eh]
    ---------------------

    Doubly Occupied:

       1A    -20.611577     2A    -20.607585     3A    -11.366907
       4A    -11.365711     5A     -1.499780     6A     -1.420375
       7A     -0.953435     8A     -0.816036     9A     -0.723298
      10A     -0.710394    11A     -0.665771    12A     -0.620944
      13A     -0.544088    14A     -0.530051    15A     -0.422747

  @DF-RHF Final Energy:  -226.66761144371748

   => Energetics <=

    Nuclear Repulsion Energy =            102.0800128027511562
    One-Electron Energy =                -511.7778492153458387
    Two-Electron Energy =                 183.0302249688772349
    Total Energy =                       -226.6676114437174760
  Basis Set: (AUG-CC-PVTZ AUX)
    Blend: AUG-CC-PVTZ-RI
    Molecular point group: c1

    Geometry (in Angstrom), charge = 0, multiplicity = 1:

       Center              X                  Y                   Z               Mass
    ------------   -----------------  -----------------  -----------------  -----------------
         O            1.714722432937     0.157765633509     0.000016903685    15.994914619570
         O           -1.751465567063    -0.176788366491     0.000048903685    15.994914619570
         C            0.716106232937    -0.358842266491     0.000024203685    12.000000000000
         C           -0.664044567063     0.385793633509    -0.000126096315    12.000000000000
         H            0.508983432937    -1.503553366491    -0.000050096315     1.007825032230
         H           -0.545732567063     1.484552633509     0.000218903685     1.007825032230

  Basis Set: AUG-CC-PVTZ
    Blend: AUG-CC-PVTZ
  Basis Set: (AUG-CC-PVTZ AUX)
    Blend: AUG-CC-PVTZ-JKFIT
	 Reference Energy          =    -226.6676114437174760 [Eh]
	 Singles Energy            =      -0.0000000000000000 [Eh]
	 Same-Spin Energy          =      -0.2057684196487711 [Eh]
	 Opposite-Spin Energy      =      -0.6357899939679375 [Eh]
	 Correlation Energy        =      -0.8415584136167086 [Eh]
	 Total Energy              =    -227.5091698573341716 [Eh]

	 ================> DF-SCS-MP2 Energies <==================
	-----------------------------------------------------------
	 SCS Same-Spin Scale       =       0.3333333333333333 [-]
	 SCS Opposite-Spin Scale   =       1.2000000000000000 [-]
	 SCS Same-Spin Energy      =      -0.0685894732162570 [Eh]
	 SCS Opposite-Spin Energy  =      -0.7629479927615249 [Eh]
	 SCS Correlation Energy    =      -0.8315374659777820 [Eh]
	 SCS Total Energy          =    -227.4991489096952648 [Eh]
	-----------------------------------------------------------

  Dipole Moment: [D]
     X:     0.3674      Y:     0.2324      Z:    -0.0001     Total:     0.4347

*** Psi4 exiting successfully. Buy a developer a beer!
