                               Psi4 1.3.2 release

  ==> Input File <==

--------------------------------------------------------------------------
#psi4
#
memory 32 gb

molecule  {
0 1
  O        1.7330970     0.1672710     0.0000140
  O       -1.7330910    -0.1672830     0.0000460
  C        0.6456620    -0.3952850     0.0000220
  C       -0.6456700     0.3952990    -0.0001290
  H        0.5273580    -1.4940480    -0.0000530
  H       -0.5273580     1.4940580     0.0002160
units angstrom
no_reorient  #important for SAPT in psi4, default
symmetry c1  #important for SAPT in psi4, default
}

set PROPERTIES_ORIGIN ["COM"]
properties('MP2/aug-cc-pvtz', properties = ['dipole'])
--------------------------------------------------------------------------

    Molecular point group: c1
  Charge       = 0
  Multiplicity = 1
  Basis Set: AUG-CC-PVTZ
    Blend: AUG-CC-PVTZ
  Basis Set: (AUG-CC-PVTZ AUX)
    Blend: AUG-CC-PVTZ-JKFIT

    Orbital Energies [Eh]
    ---------------------

    Doubly Occupied:

       1A    -20.611044     2A    -20.611042     3A    -11.372129
       4A    -11.371487     5A     -1.435995     6A     -1.418679
       7A     -0.974167     8A     -0.828940     9A     -0.707435
      10A     -0.706302    11A     -0.657215    12A     -0.591768
      13A     -0.527860    14A     -0.526366    15A     -0.447888

  @DF-RHF Final Energy:  -226.67483609869325

   => Energetics <=

    Nuclear Repulsion Energy =            101.1824416072896611
    One-Electron Energy =                -510.1379195330928269
    Two-Electron Energy =                 182.2806418271099176
    Total Energy =                       -226.6748360986932482
  Basis Set: (AUG-CC-PVTZ AUX)
    Blend: AUG-CC-PVTZ-RI
    Molecular point group: c1

    Geometry (in Angstrom), charge = 0, multiplicity = 1:

       Center              X                  Y                   Z               Mass
    ------------   -----------------  -----------------  -----------------  -----------------
         O            1.733097000526     0.167271238955     0.000016758871    15.994914619570
         O           -1.733090999474    -0.167282761045     0.000048758871    15.994914619570
         C            0.645662000526    -0.395284761045     0.000024758871    12.000000000000
         C           -0.645669999474     0.395299238955    -0.000126241129    12.000000000000
         H            0.527358000526    -1.494047761045    -0.000050241129     1.007825032230
         H           -0.527357999474     1.494058238955     0.000218758871     1.007825032230

  Basis Set: AUG-CC-PVTZ
    Blend: AUG-CC-PVTZ
  Basis Set: (AUG-CC-PVTZ AUX)
    Blend: AUG-CC-PVTZ-JKFIT
	 Reference Energy          =    -226.6748360986932482 [Eh]
	 Singles Energy            =      -0.0000000000000000 [Eh]
	 Same-Spin Energy          =      -0.2080553917842477 [Eh]
	 Opposite-Spin Energy      =      -0.6417672106908454 [Eh]
	 Correlation Energy        =      -0.8498226024750931 [Eh]
	 Total Energy              =    -227.5246587011683346 [Eh]

	 ================> DF-SCS-MP2 Energies <==================
	-----------------------------------------------------------
	 SCS Same-Spin Scale       =       0.3333333333333333 [-]
	 SCS Opposite-Spin Scale   =       1.2000000000000000 [-]
	 SCS Same-Spin Energy      =      -0.0693517972614159 [Eh]
	 SCS Opposite-Spin Energy  =      -0.7701206528290144 [Eh]
	 SCS Correlation Energy    =      -0.8394724500904304 [Eh]
	 SCS Total Energy          =    -227.5143085487836743 [Eh]
	-----------------------------------------------------------

  Dipole Moment: [D]
     X:    -0.0000      Y:     0.0001      Z:    -0.0001     Total:     0.0002

*** Psi4 exiting successfully. Buy a developer a beer!
