                               Psi4 1.3.2 release

  ==> Input File <==

--------------------------------------------------------------------------
#psi4
#
memory 32 gb

molecule  {
0 1
  O        1.7128016     0.2048792     0.0000089
  O       -1.7330910    -0.1672830     0.0000460
  C        0.6456620    -0.3952850     0.0000220
  C       -0.6456700     0.3952990    -0.0001290
  H        0.5273580    -1.4940480    -0.0000530
  H       -0.5273580     1.4940580     0.0002160
units angstrom
no_reorient  #important for SAPT in psi4, default
symmetry c1  #important for SAPT in psi4, default
}

set PROPERTIES_ORIGIN ["COM"]
properties('MP2/aug-cc-pvtz', properties = ['dipole'])
--------------------------------------------------------------------------

    Molecular point group: c1
  Charge       = 0
  Multiplicity = 1
  Basis Set: AUG-CC-PVTZ
    Blend: AUG-CC-PVTZ
  Basis Set: (AUG-CC-PVTZ AUX)
    Blend: AUG-CC-PVTZ-JKFIT

    Orbital Energies [Eh]
    ---------------------

    Doubly Occupied:

       1A    -20.611271     2A    -20.609230     3A    -11.372227
       4A    -11.369837     5A     -1.435950     6A     -1.417960
       7A     -0.972836     8A     -0.829310     9A     -0.707325
      10A     -0.705143    11A     -0.657227    12A     -0.591651
      13A     -0.527142    14A     -0.526171    15A     -0.447294

  @DF-RHF Final Energy:  -226.67467555786402

   => Energetics <=

    Nuclear Repulsion Energy =            101.3380288508900549
    One-Electron Energy =                -510.4642621040902668
    Two-Electron Energy =                 182.4515576953361915
    Total Energy =                       -226.6746755578640204
  Basis Set: (AUG-CC-PVTZ AUX)
    Blend: AUG-CC-PVTZ-RI
    Molecular point group: c1

    Geometry (in Angstrom), charge = 0, multiplicity = 1:

       Center              X                  Y                   Z               Mass
    ------------   -----------------  -----------------  -----------------  -----------------
         O            1.718398023382     0.194509040241     0.000013065188    15.994914619570
         O           -1.727494576618    -0.177653159759     0.000050165188    15.994914619570
         C            0.651258423382    -0.405655159759     0.000026165188    12.000000000000
         C           -0.640073576618     0.384928840241    -0.000124834812    12.000000000000
         H            0.532954423382    -1.504418159759    -0.000048834812     1.007825032230
         H           -0.521761576618     1.483687840241     0.000220165188     1.007825032230

  Basis Set: AUG-CC-PVTZ
    Blend: AUG-CC-PVTZ
  Basis Set: (AUG-CC-PVTZ AUX)
    Blend: AUG-CC-PVTZ-JKFIT
	 Reference Energy          =    -226.6746755578640204 [Eh]
	 Singles Energy            =      -0.0000000000000000 [Eh]
	 Same-Spin Energy          =      -0.2080555918530540 [Eh]
	 Opposite-Spin Energy      =      -0.6416761370757020 [Eh]
	 Correlation Energy        =      -0.8497317289287560 [Eh]
	 Total Energy              =    -227.5244072867927798 [Eh]

	 ================> DF-SCS-MP2 Energies <==================
	-----------------------------------------------------------
	 SCS Same-Spin Scale       =       0.3333333333333333 [-]
	 SCS Opposite-Spin Scale   =       1.2000000000000000 [-]
	 SCS Same-Spin Energy      =      -0.0693518639510180 [Eh]
	 SCS Opposite-Spin Energy  =      -0.7700113644908424 [Eh]
	 SCS Correlation Energy    =      -0.8393632284418604 [Eh]
	 SCS Total Energy          =    -227.5140387863058891 [Eh]
	-----------------------------------------------------------

  Dipole Moment: [D]
     X:     0.0540      Y:    -0.0761      Z:    -0.0001     Total:     0.0933

*** Psi4 exiting successfully. Buy a developer a beer!
