                               Psi4 1.3.2 release

  ==> Input File <==

--------------------------------------------------------------------------
#psi4
#
memory 32 gb

molecule  {
0 1
  O        1.7330970     0.1672710     0.0000140
  O       -1.7330910    -0.1672830     0.0000460
  C        0.6456620    -0.3952850     0.0000220
  C       -0.6172924     0.4398842    -0.0001224
  H        0.5273580    -1.4940480    -0.0000530
  H       -0.5273580     1.4940580     0.0002160
units angstrom
no_reorient  #important for SAPT in psi4, default
symmetry c1  #important for SAPT in psi4, default
}

set PROPERTIES_ORIGIN ["COM"]
properties('MP2/aug-cc-pvtz', properties = ['dipole'])
--------------------------------------------------------------------------

    Molecular point group: c1
  Charge       = 0
  Multiplicity = 1
  Basis Set: AUG-CC-PVTZ
    Blend: AUG-CC-PVTZ
  Basis Set: (AUG-CC-PVTZ AUX)
    Blend: AUG-CC-PVTZ-JKFIT

    Orbital Energies [Eh]
    ---------------------

    Doubly Occupied:

       1A    -20.611086     2A    -20.610261     3A    -11.374660
       4A    -11.373459     5A     -1.431056     6A     -1.395818
       7A     -0.976441     8A     -0.839502     9A     -0.708742
      10A     -0.702013    11A     -0.650564    12A     -0.584827
      13A     -0.524825    14A     -0.515479    15A     -0.453994

  @DF-RHF Final Energy:  -226.66515091645917

   => Energetics <=

    Nuclear Repulsion Energy =            100.6504052042388651
    One-Electron Energy =                -509.1256619664732170
    Two-Electron Energy =                 181.8101058457752117
    Total Energy =                       -226.6651509164591687
  Basis Set: (AUG-CC-PVTZ AUX)
    Blend: AUG-CC-PVTZ-RI
    Molecular point group: c1

    Geometry (in Angstrom), charge = 0, multiplicity = 1:

       Center              X                  Y                   Z               Mass
    ------------   -----------------  -----------------  -----------------  -----------------
         O            1.727226327547     0.158047586183     0.000015393483    15.994914619570
         O           -1.738961672453    -0.176506413817     0.000047393483    15.994914619570
         C            0.639791327547    -0.404508413817     0.000023393483    12.000000000000
         C           -0.623163072453     0.430660786183    -0.000121006517    12.000000000000
         H            0.521487327547    -1.503271413817    -0.000051606517     1.007825032230
         H           -0.533228672453     1.484834586183     0.000217393483     1.007825032230

  Basis Set: AUG-CC-PVTZ
    Blend: AUG-CC-PVTZ
  Basis Set: (AUG-CC-PVTZ AUX)
    Blend: AUG-CC-PVTZ-JKFIT
	 Reference Energy          =    -226.6651509164591687 [Eh]
	 Singles Energy            =      -0.0000000000000000 [Eh]
	 Same-Spin Energy          =      -0.2092004435323872 [Eh]
	 Opposite-Spin Energy      =      -0.6449464742631246 [Eh]
	 Correlation Energy        =      -0.8541469177955118 [Eh]
	 Total Energy              =    -227.5192978342546724 [Eh]

	 ================> DF-SCS-MP2 Energies <==================
	-----------------------------------------------------------
	 SCS Same-Spin Scale       =       0.3333333333333333 [-]
	 SCS Opposite-Spin Scale   =       1.2000000000000000 [-]
	 SCS Same-Spin Energy      =      -0.0697334811774624 [Eh]
	 SCS Opposite-Spin Energy  =      -0.7739357691157495 [Eh]
	 SCS Correlation Energy    =      -0.8436692502932118 [Eh]
	 SCS Total Energy          =    -227.5088201667523720 [Eh]
	-----------------------------------------------------------

  Dipole Moment: [D]
     X:     0.0845      Y:     0.1225      Z:    -0.0001     Total:     0.1488

*** Psi4 exiting successfully. Buy a developer a beer!
