                               Psi4 1.4a3.dev225

  ==> Input File <==

--------------------------------------------------------------------------
#psi4
#
memory 32 gb

molecule  {
0 1
  O        1.7328920     0.1673070    -0.0000030
  O       -1.7328920    -0.1673080    -0.0000030
  C        0.6456230    -0.3954040     0.0000020
  C       -0.6456240     0.3954050     0.0000040
  H        0.5218295    -1.5438720     0.0000072
  H       -0.5271910     1.4941610     0.0000050
units angstrom
no_reorient  #important for SAPT in psi4, default
symmetry c1  #important for SAPT in psi4, default
}

set PROPERTIES_ORIGIN ["COM"]
properties('MP2/aug-cc-pvtz', properties = ['dipole'])
--------------------------------------------------------------------------

    Molecular point group: c1
  Charge       = 0
  Multiplicity = 1
  Basis Set: AUG-CC-PVTZ
    Blend: AUG-CC-PVTZ
  Basis Set: (AUG-CC-PVTZ AUX)
    Blend: AUG-CC-PVTZ-JKFIT

    Orbital Energies [Eh]
    ---------------------

    Doubly Occupied:

       1A    -20.611831     2A    -20.611465     3A    -11.376826
       4A    -11.372637     5A     -1.436368     6A     -1.419182
       7A     -0.972190     8A     -0.821704     9A     -0.707706
      10A     -0.702914    11A     -0.654890    12A     -0.592202
      13A     -0.528383    14A     -0.524998    15A     -0.446973

  @DF-RHF Final Energy:  -226.67236855817634

   => Energetics <=

    Nuclear Repulsion Energy =            100.9805377258923755
    One-Electron Energy =                -509.7452747296104576
    Two-Electron Energy =                 182.0923684455417515
    Total Energy =                       -226.6723685581763448
  Basis Set: (AUG-CC-PVTZ AUX)
    Blend: AUG-CC-PVTZ-RI
    Molecular point group: c1

    Geometry (in Angstrom), charge = 0, multiplicity = 1:

       Center              X                  Y                   Z               Mass
    ------------   -----------------  -----------------  -----------------  -----------------
         O            1.732985361075     0.168170780210    -0.000002798743    15.994914619570
         O           -1.732798638925    -0.166444219790    -0.000002798743    15.994914619570
         C            0.645716361075    -0.394540219790     0.000002201257    12.000000000000
         C           -0.645530638925     0.396268780210     0.000004201257    12.000000000000
         H            0.521922861075    -1.543008219790     0.000007401257     1.007825032230
         H           -0.527097638925     1.495024780210     0.000005201257     1.007825032230

  Basis Set: AUG-CC-PVTZ
    Blend: AUG-CC-PVTZ
  Basis Set: (AUG-CC-PVTZ AUX)
    Blend: AUG-CC-PVTZ-JKFIT
	 Reference Energy          =    -226.6723685581763448 [Eh]
	 Singles Energy            =      -0.0000000000000000 [Eh]
	 Same-Spin Energy          =      -0.2082737447678586 [Eh]
	 Opposite-Spin Energy      =      -0.6421550385894268 [Eh]
	 Correlation Energy        =      -0.8504287833572853 [Eh]
	 Total Energy              =    -227.5227973415336180 [Eh]

	 ================> DF-SCS-MP2 Energies <==================
	-----------------------------------------------------------
	 SCS Same-Spin Scale       =       0.3333333333333333 [-]
	 SCS Opposite-Spin Scale   =       1.2000000000000000 [-]
	 SCS Same-Spin Energy      =      -0.0694245815892862 [Eh]
	 SCS Opposite-Spin Energy  =      -0.7705860463073121 [Eh]
	 SCS Correlation Energy    =      -0.8400106278965983 [Eh]
	 SCS Total Energy          =    -227.5123791860729341 [Eh]
	-----------------------------------------------------------

  Dipole Moment: [D]
     X:     0.0012      Y:     0.0427      Z:     0.0000     Total:     0.0427

*** Psi4 exiting successfully. Buy a developer a beer!
