                               Psi4 1.3.2 release

  ==> Input File <==

--------------------------------------------------------------------------
#psi4
#
memory 32 gb

molecule  {
0 1
  O        1.7330970     0.1672710     0.0000140
  O       -1.7330910    -0.1672830     0.0000460
  C        0.6456620    -0.3952850     0.0000220
  C       -0.6592709     0.3726417    -0.0001322
  H        0.5273580    -1.4940480    -0.0000530
  H       -0.5273580     1.4940580     0.0002160
units angstrom
no_reorient  #important for SAPT in psi4, default
symmetry c1  #important for SAPT in psi4, default
}

set PROPERTIES_ORIGIN ["COM"]
properties('MP2/aug-cc-pvtz', properties = ['dipole'])
--------------------------------------------------------------------------

    Molecular point group: c1
  Charge       = 0
  Multiplicity = 1
  Basis Set: AUG-CC-PVTZ
    Blend: AUG-CC-PVTZ
  Basis Set: (AUG-CC-PVTZ AUX)
    Blend: AUG-CC-PVTZ-JKFIT

    Orbital Energies [Eh]
    ---------------------

    Doubly Occupied:

       1A    -20.611560     2A    -20.611239     3A    -11.371327
       4A    -11.370443     5A     -1.446024     6A     -1.423454
       7A     -0.973534     8A     -0.824059     9A     -0.710807
      10A     -0.706544    11A     -0.659407    12A     -0.596809
      13A     -0.533198    14A     -0.526663    15A     -0.444272

  @DF-RHF Final Energy:  -226.67624317318197

   => Energetics <=

    Nuclear Repulsion Energy =            101.4649447410388348
    One-Electron Energy =                -510.6636971333076076
    Two-Electron Energy =                 182.5225092190867997
    Total Energy =                       -226.6762431731819731
  Basis Set: (AUG-CC-PVTZ AUX)
    Blend: AUG-CC-PVTZ-RI
    Molecular point group: c1

    Geometry (in Angstrom), charge = 0, multiplicity = 1:

       Center              X                  Y                   Z               Mass
    ------------   -----------------  -----------------  -----------------  -----------------
         O            1.735910714023     0.171958513386     0.000017420878    15.994914619570
         O           -1.730277285977    -0.162595486614     0.000049420878    15.994914619570
         C            0.648475714023    -0.390597486614     0.000025420878    12.000000000000
         C           -0.656457185977     0.377329213386    -0.000128779122    12.000000000000
         H            0.530171714023    -1.489360486614    -0.000049579122     1.007825032230
         H           -0.524544285977     1.498745513386     0.000219420878     1.007825032230

  Basis Set: AUG-CC-PVTZ
    Blend: AUG-CC-PVTZ
  Basis Set: (AUG-CC-PVTZ AUX)
    Blend: AUG-CC-PVTZ-JKFIT
	 Reference Energy          =    -226.6762431731819731 [Eh]
	 Singles Energy            =      -0.0000000000000000 [Eh]
	 Same-Spin Energy          =      -0.2075698204604411 [Eh]
	 Opposite-Spin Energy      =      -0.6404142101794986 [Eh]
	 Correlation Energy        =      -0.8479840306399398 [Eh]
	 Total Energy              =    -227.5242272038219085 [Eh]

	 ================> DF-SCS-MP2 Energies <==================
	-----------------------------------------------------------
	 SCS Same-Spin Scale       =       0.3333333333333333 [-]
	 SCS Opposite-Spin Scale   =       1.2000000000000000 [-]
	 SCS Same-Spin Energy      =      -0.0691899401534804 [Eh]
	 SCS Opposite-Spin Energy  =      -0.7684970522153983 [Eh]
	 SCS Correlation Energy    =      -0.8376869923688787 [Eh]
	 SCS Total Energy          =    -227.5139301655508461 [Eh]
	-----------------------------------------------------------

  Dipole Moment: [D]
     X:    -0.0493      Y:    -0.0787      Z:    -0.0002     Total:     0.0928

*** Psi4 exiting successfully. Buy a developer a beer!
