                               Psi4 1.3.2 release

  ==> Input File <==

--------------------------------------------------------------------------
#psi4
#
memory 32 gb

molecule  {
0 1
  O        1.7520675     0.1289774     0.0000192
  O       -1.7330910    -0.1672830     0.0000460
  C        0.6456620    -0.3952850     0.0000220
  C       -0.6456700     0.3952990    -0.0001290
  H        0.5273580    -1.4940480    -0.0000530
  H       -0.5273580     1.4940580     0.0002160
units angstrom
no_reorient  #important for SAPT in psi4, default
symmetry c1  #important for SAPT in psi4, default
}

set PROPERTIES_ORIGIN ["COM"]
properties('MP2/aug-cc-pvtz', properties = ['dipole'])
--------------------------------------------------------------------------

    Molecular point group: c1
  Charge       = 0
  Multiplicity = 1
  Basis Set: AUG-CC-PVTZ
    Blend: AUG-CC-PVTZ
  Basis Set: (AUG-CC-PVTZ AUX)
    Blend: AUG-CC-PVTZ-JKFIT

    Orbital Energies [Eh]
    ---------------------

    Doubly Occupied:

       1A    -20.612790     2A    -20.610786     3A    -11.373751
       4A    -11.371390     5A     -1.436191     6A     -1.419260
       7A     -0.975443     8A     -0.828587     9A     -0.708076
      10A     -0.706898    11A     -0.657165    12A     -0.591918
      13A     -0.528519    14A     -0.526405    15A     -0.448303

  @DF-RHF Final Energy:  -226.67447365452077

   => Energetics <=

    Nuclear Repulsion Energy =            101.0370101529612725
    One-Electron Energy =                -509.8320002748913566
    Two-Electron Energy =                 182.1205164674093169
    Total Energy =                       -226.6744736545207672
  Basis Set: (AUG-CC-PVTZ AUX)
    Blend: AUG-CC-PVTZ-RI
    Molecular point group: c1

    Geometry (in Angstrom), charge = 0, multiplicity = 1:

       Center              X                  Y                   Z               Mass
    ------------   -----------------  -----------------  -----------------  -----------------
         O            1.746836416645     0.139537035582     0.000020524980    15.994914619570
         O           -1.738322083355    -0.156723364418     0.000047324980    15.994914619570
         C            0.640430916645    -0.384725364418     0.000023324980    12.000000000000
         C           -0.650901083355     0.405858635582    -0.000127675020    12.000000000000
         H            0.522126916645    -1.483488364418    -0.000051675020     1.007825032230
         H           -0.532589083355     1.504617635582     0.000217324980     1.007825032230

  Basis Set: AUG-CC-PVTZ
    Blend: AUG-CC-PVTZ
  Basis Set: (AUG-CC-PVTZ AUX)
    Blend: AUG-CC-PVTZ-JKFIT
	 Reference Energy          =    -226.6744736545207672 [Eh]
	 Singles Energy            =      -0.0000000000000000 [Eh]
	 Same-Spin Energy          =      -0.2080724500864715 [Eh]
	 Opposite-Spin Energy      =      -0.6418927148051212 [Eh]
	 Correlation Energy        =      -0.8499651648915927 [Eh]
	 Total Energy              =    -227.5244388194123530 [Eh]

	 ================> DF-SCS-MP2 Energies <==================
	-----------------------------------------------------------
	 SCS Same-Spin Scale       =       0.3333333333333333 [-]
	 SCS Opposite-Spin Scale   =       1.2000000000000000 [-]
	 SCS Same-Spin Energy      =      -0.0693574833621571 [Eh]
	 SCS Opposite-Spin Energy  =      -0.7702712577661455 [Eh]
	 SCS Correlation Energy    =      -0.8396287411283027 [Eh]
	 SCS Total Energy          =    -227.5141023956490756 [Eh]
	-----------------------------------------------------------

  Dipole Moment: [D]
     X:    -0.0508      Y:     0.0776      Z:    -0.0002     Total:     0.0927

*** Psi4 exiting successfully. Buy a developer a beer!
