                               Psi4 1.3.2 release

  ==> Input File <==

--------------------------------------------------------------------------
#psi4
#
memory 32 gb

molecule  {
0 1
  O        1.7330970     0.1672710     0.0000140
  O       -1.7330910    -0.1672830     0.0000460
  C        0.6456620    -0.3952850     0.0000220
  C       -0.5559574     0.5259490    -0.0001088
  H        0.5273580    -1.4940480    -0.0000530
  H       -0.5273580     1.4940580     0.0002160
units angstrom
no_reorient  #important for SAPT in psi4, default
symmetry c1  #important for SAPT in psi4, default
}

set PROPERTIES_ORIGIN ["COM"]
properties('MP2/aug-cc-pvtz', properties = ['dipole'])
--------------------------------------------------------------------------

    Molecular point group: c1
  Charge       = 0
  Multiplicity = 1
  Basis Set: AUG-CC-PVTZ
    Blend: AUG-CC-PVTZ
  Basis Set: (AUG-CC-PVTZ AUX)
    Blend: AUG-CC-PVTZ-JKFIT

    Orbital Energies [Eh]
    ---------------------

    Doubly Occupied:

       1A    -20.611870     2A    -20.609568     3A    -11.380884
       4A    -11.378664     5A     -1.432566     6A     -1.346382
       7A     -0.985179     8A     -0.862334     9A     -0.722252
      10A     -0.695671    11A     -0.628961    12A     -0.579106
      13A     -0.518954    14A     -0.487914    15A     -0.462412

  @DF-RHF Final Energy:  -226.62002416097420

   => Energetics <=

    Nuclear Repulsion Energy =             99.7255783194333816
    One-Electron Energy =                -507.2857720985118135
    Two-Electron Energy =                 180.9401696181042212
    Total Energy =                       -226.6200241609741965
  Basis Set: (AUG-CC-PVTZ AUX)
    Blend: AUG-CC-PVTZ-RI
    Molecular point group: c1

    Geometry (in Angstrom), charge = 0, multiplicity = 1:

       Center              X                  Y                   Z               Mass
    ------------   -----------------  -----------------  -----------------  -----------------
         O            1.714537526267     0.140242757874     0.000012579956    15.994914619570
         O           -1.751650473733    -0.194311242126     0.000044579956    15.994914619570
         C            0.627102526267    -0.422313242126     0.000020579956    12.000000000000
         C           -0.574516873733     0.498920757874    -0.000110220044    12.000000000000
         H            0.508798526267    -1.521076242126    -0.000054420044     1.007825032230
         H           -0.545917473733     1.467029757874     0.000214579956     1.007825032230

  Basis Set: AUG-CC-PVTZ
    Blend: AUG-CC-PVTZ
  Basis Set: (AUG-CC-PVTZ AUX)
    Blend: AUG-CC-PVTZ-JKFIT
	 Reference Energy          =    -226.6200241609741965 [Eh]
	 Singles Energy            =      -0.0000000000000000 [Eh]
	 Same-Spin Energy          =      -0.2122578261807685 [Eh]
	 Opposite-Spin Energy      =      -0.6532519678363448 [Eh]
	 Correlation Energy        =      -0.8655097940171133 [Eh]
	 Total Energy              =    -227.4855339549912969 [Eh]

	 ================> DF-SCS-MP2 Energies <==================
	-----------------------------------------------------------
	 SCS Same-Spin Scale       =       0.3333333333333333 [-]
	 SCS Opposite-Spin Scale   =       1.2000000000000000 [-]
	 SCS Same-Spin Energy      =      -0.0707526087269228 [Eh]
	 SCS Opposite-Spin Energy  =      -0.7839023614036137 [Eh]
	 SCS Correlation Energy    =      -0.8546549701305366 [Eh]
	 SCS Total Energy          =    -227.4746791311047218 [Eh]
	-----------------------------------------------------------

  Dipole Moment: [D]
     X:     0.1865      Y:     0.2462      Z:    -0.0001     Total:     0.3089

*** Psi4 exiting successfully. Buy a developer a beer!
