                               Psi4 1.4a3.dev225

  ==> Input File <==

--------------------------------------------------------------------------
#psi4
#
memory 32 gb

molecule  {
0 1
  O        1.7328920     0.1673070    -0.0000030
  O       -1.7328920    -0.1673080    -0.0000030
  C        0.6633851    -0.3862113     0.0000019
  C       -0.6456240     0.3954050     0.0000040
  H        0.5271880    -1.4941600     0.0000070
  H       -0.5271910     1.4941610     0.0000050
units angstrom
no_reorient  #important for SAPT in psi4, default
symmetry c1  #important for SAPT in psi4, default
}

set PROPERTIES_ORIGIN ["COM"]
properties('MP2/aug-cc-pvtz', properties = ['dipole'])
--------------------------------------------------------------------------

    Molecular point group: c1
  Charge       = 0
  Multiplicity = 1
  Basis Set: AUG-CC-PVTZ
    Blend: AUG-CC-PVTZ
  Basis Set: (AUG-CC-PVTZ AUX)
    Blend: AUG-CC-PVTZ-JKFIT

    Orbital Energies [Eh]
    ---------------------

    Doubly Occupied:

       1A    -20.610857     2A    -20.610408     3A    -11.371130
       4A    -11.370392     5A     -1.444289     6A     -1.422418
       7A     -0.970032     8A     -0.826199     9A     -0.709618
      10A     -0.706010    11A     -0.660006    12A     -0.595195
      13A     -0.532652    14A     -0.527382    15A     -0.443339

  @DF-RHF Final Energy:  -226.67665947957516

   => Energetics <=

    Nuclear Repulsion Energy =            101.3421204384400767
    One-Electron Energy =                -510.4377059495808453
    Two-Electron Energy =                 182.4189260315656043
    Total Energy =                       -226.6766594795751644
  Basis Set: (AUG-CC-PVTZ AUX)
    Blend: AUG-CC-PVTZ-RI
    Molecular point group: c1

    Geometry (in Angstrom), charge = 0, multiplicity = 1:

       Center              X                  Y                   Z               Mass
    ------------   -----------------  -----------------  -----------------  -----------------
         O            1.729217688899     0.165405293226    -0.000002774580    15.994914619570
         O           -1.736566311101    -0.169209706774    -0.000002774580    15.994914619570
         C            0.659710788899    -0.388113006774     0.000002125420    12.000000000000
         C           -0.649298311101     0.393503293226     0.000004225420    12.000000000000
         H            0.523513688899    -1.496061706774     0.000007225420     1.007825032230
         H           -0.530865311101     1.492259293226     0.000005225420     1.007825032230

  Basis Set: AUG-CC-PVTZ
    Blend: AUG-CC-PVTZ
  Basis Set: (AUG-CC-PVTZ AUX)
    Blend: AUG-CC-PVTZ-JKFIT
	 Reference Energy          =    -226.6766594795751644 [Eh]
	 Singles Energy            =      -0.0000000000000000 [Eh]
	 Same-Spin Energy          =      -0.2075259967277902 [Eh]
	 Opposite-Spin Energy      =      -0.6404070942990089 [Eh]
	 Correlation Energy        =      -0.8479330910267991 [Eh]
	 Total Energy              =    -227.5245925706019534 [Eh]

	 ================> DF-SCS-MP2 Energies <==================
	-----------------------------------------------------------
	 SCS Same-Spin Scale       =       0.3333333333333333 [-]
	 SCS Opposite-Spin Scale   =       1.2000000000000000 [-]
	 SCS Same-Spin Energy      =      -0.0691753322425967 [Eh]
	 SCS Opposite-Spin Energy  =      -0.7684885131588106 [Eh]
	 SCS Correlation Energy    =      -0.8376638454014074 [Eh]
	 SCS Total Energy          =    -227.5143233249765728 [Eh]
	-----------------------------------------------------------

  Dipole Moment: [D]
     X:     0.0597      Y:     0.0372      Z:     0.0000     Total:     0.0703

*** Psi4 exiting successfully. Buy a developer a beer!
