                               Psi4 1.3.2 release

  ==> Input File <==

--------------------------------------------------------------------------
#psi4
#
memory 32 gb

molecule  {
0 1
  O        1.6683368     0.2778572     0.0000250
  O       -1.7330910    -0.1672830     0.0000460
  C        0.6456620    -0.3952850     0.0000220
  C       -0.6456700     0.3952990    -0.0001290
  H        0.5273580    -1.4940480    -0.0000530
  H       -0.5273580     1.4940580     0.0002160
units angstrom
no_reorient  #important for SAPT in psi4, default
symmetry c1  #important for SAPT in psi4, default
}

set PROPERTIES_ORIGIN ["COM"]
properties('MP2/aug-cc-pvtz', properties = ['dipole'])
--------------------------------------------------------------------------

    Molecular point group: c1
  Charge       = 0
  Multiplicity = 1
  Basis Set: AUG-CC-PVTZ
    Blend: AUG-CC-PVTZ
  Basis Set: (AUG-CC-PVTZ AUX)
    Blend: AUG-CC-PVTZ-JKFIT

    Orbital Energies [Eh]
    ---------------------

    Doubly Occupied:

       1A    -20.611637     2A    -20.605392     3A    -11.372954
       4A    -11.365928     5A     -1.436353     6A     -1.416082
       7A     -0.970014     8A     -0.830123     9A     -0.707461
      10A     -0.702348    11A     -0.657162    12A     -0.591534
      13A     -0.525514    14A     -0.525246    15A     -0.445602

  @DF-RHF Final Energy:  -226.67273967528803

   => Energetics <=

    Nuclear Repulsion Energy =            101.6808329679613223
    One-Electron Energy =                -511.1804501372392906
    Two-Electron Energy =                 182.8268774939899117
    Total Energy =                       -226.6727396752880281
  Basis Set: (AUG-CC-PVTZ AUX)
    Blend: AUG-CC-PVTZ-RI
    Molecular point group: c1

    Geometry (in Angstrom), charge = 0, multiplicity = 1:

       Center              X                  Y                   Z               Mass
    ------------   -----------------  -----------------  -----------------  -----------------
         O            1.686194318164     0.247363477896     0.000024725639    15.994914619570
         O           -1.715233481836    -0.197776722104     0.000045725639    15.994914619570
         C            0.663519518164    -0.425778722104     0.000021725639    12.000000000000
         C           -0.627812481836     0.364805277896    -0.000129274361    12.000000000000
         H            0.545215518164    -1.524541722104    -0.000053274361     1.007825032230
         H           -0.509500481836     1.463564277896     0.000215725639     1.007825032230

  Basis Set: AUG-CC-PVTZ
    Blend: AUG-CC-PVTZ
  Basis Set: (AUG-CC-PVTZ AUX)
    Blend: AUG-CC-PVTZ-JKFIT
	 Reference Energy          =    -226.6727396752880281 [Eh]
	 Singles Energy            =      -0.0000000000000000 [Eh]
	 Same-Spin Energy          =      -0.2081102221469179 [Eh]
	 Opposite-Spin Energy      =      -0.6415997624372245 [Eh]
	 Correlation Energy        =      -0.8497099845841425 [Eh]
	 Total Energy              =    -227.5224496598721657 [Eh]

	 ================> DF-SCS-MP2 Energies <==================
	-----------------------------------------------------------
	 SCS Same-Spin Scale       =       0.3333333333333333 [-]
	 SCS Opposite-Spin Scale   =       1.2000000000000000 [-]
	 SCS Same-Spin Energy      =      -0.0693700740489726 [Eh]
	 SCS Opposite-Spin Energy  =      -0.7699197149246694 [Eh]
	 SCS Correlation Energy    =      -0.8392897889736420 [Eh]
	 SCS Total Energy          =    -227.5120294642616727 [Eh]
	-----------------------------------------------------------

  Dipole Moment: [D]
     X:     0.1720      Y:    -0.2234      Z:    -0.0002     Total:     0.2819

*** Psi4 exiting successfully. Buy a developer a beer!
