                               Psi4 1.3.2 release

  ==> Input File <==

--------------------------------------------------------------------------
#psi4
#
memory 32 gb

molecule  {
0 1
  O        1.7696900     0.0900450     0.0000067
  O       -1.7330910    -0.1672830     0.0000460
  C        0.6456620    -0.3952850     0.0000220
  C       -0.6456700     0.3952990    -0.0001290
  H        0.5273580    -1.4940480    -0.0000530
  H       -0.5273580     1.4940580     0.0002160
units angstrom
no_reorient  #important for SAPT in psi4, default
symmetry c1  #important for SAPT in psi4, default
}

set PROPERTIES_ORIGIN ["COM"]
properties('MP2/aug-cc-pvtz', properties = ['dipole'])
--------------------------------------------------------------------------

    Molecular point group: c1
  Charge       = 0
  Multiplicity = 1
  Basis Set: AUG-CC-PVTZ
    Blend: AUG-CC-PVTZ
  Basis Set: (AUG-CC-PVTZ AUX)
    Blend: AUG-CC-PVTZ-JKFIT

    Orbital Energies [Eh]
    ---------------------

    Doubly Occupied:

       1A    -20.614470     2A    -20.610503     3A    -11.375595
       4A    -11.371040     5A     -1.436522     6A     -1.419718
       7A     -0.976666     8A     -0.828250     9A     -0.709120
      10A     -0.707063    11A     -0.657073    12A     -0.592096
      13A     -0.529124    14A     -0.526303    15A     -0.448529

  @DF-RHF Final Energy:  -226.67359631787821

   => Energetics <=

    Nuclear Repulsion Energy =            100.9014738252294450
    One-Electron Energy =                -509.5459965499569535
    Two-Electron Energy =                 181.9709264068492871
    Total Energy =                       -226.6735963178782072
  Basis Set: (AUG-CC-PVTZ AUX)
    Blend: AUG-CC-PVTZ-RI
    Molecular point group: c1

    Geometry (in Angstrom), charge = 0, multiplicity = 1:

       Center              X                  Y                   Z               Mass
    ------------   -----------------  -----------------  -----------------  -----------------
         O            1.759599541526     0.111340180248     0.000011471834    15.994914619570
         O           -1.743181458474    -0.145987819752     0.000050771834    15.994914619570
         C            0.635571541526    -0.373989819752     0.000026771834    12.000000000000
         C           -0.655760458474     0.416594180248    -0.000124228166    12.000000000000
         H            0.517267541526    -1.472752819752    -0.000048228166     1.007825032230
         H           -0.537448458474     1.515353180248     0.000220771834     1.007825032230

  Basis Set: AUG-CC-PVTZ
    Blend: AUG-CC-PVTZ
  Basis Set: (AUG-CC-PVTZ AUX)
    Blend: AUG-CC-PVTZ-JKFIT
	 Reference Energy          =    -226.6735963178782072 [Eh]
	 Singles Energy            =      -0.0000000000000000 [Eh]
	 Same-Spin Energy          =      -0.2081063331195998 [Eh]
	 Opposite-Spin Energy      =      -0.6420516588356766 [Eh]
	 Correlation Energy        =      -0.8501579919552764 [Eh]
	 Total Energy              =    -227.5237543098334925 [Eh]

	 ================> DF-SCS-MP2 Energies <==================
	-----------------------------------------------------------
	 SCS Same-Spin Scale       =       0.3333333333333333 [-]
	 SCS Opposite-Spin Scale   =       1.2000000000000000 [-]
	 SCS Same-Spin Energy      =      -0.0693687777065333 [Eh]
	 SCS Opposite-Spin Energy  =      -0.7704619906028120 [Eh]
	 SCS Correlation Energy    =      -0.8398307683093452 [Eh]
	 SCS Total Energy          =    -227.5134270861875621 [Eh]
	-----------------------------------------------------------

  Dipole Moment: [D]
     X:    -0.0983      Y:     0.1563      Z:    -0.0001     Total:     0.1846

*** Psi4 exiting successfully. Buy a developer a beer!
