                               Psi4 1.4a3.dev225

  ==> Input File <==

--------------------------------------------------------------------------
#psi4
#
memory 32 gb

molecule  {
0 1
  O        1.7328920     0.1673070    -0.0000030
  O       -1.7328920    -0.1673080    -0.0000030
  C        0.6900284    -0.3724222     0.0000018
  C       -0.6456240     0.3954050     0.0000040
  H        0.5271880    -1.4941600     0.0000070
  H       -0.5271910     1.4941610     0.0000050
units angstrom
no_reorient  #important for SAPT in psi4, default
symmetry c1  #important for SAPT in psi4, default
}

set PROPERTIES_ORIGIN ["COM"]
properties('MP2/aug-cc-pvtz', properties = ['dipole'])
--------------------------------------------------------------------------

    Molecular point group: c1
  Charge       = 0
  Multiplicity = 1
  Basis Set: AUG-CC-PVTZ
    Blend: AUG-CC-PVTZ
  Basis Set: (AUG-CC-PVTZ AUX)
    Blend: AUG-CC-PVTZ-JKFIT

    Orbital Energies [Eh]
    ---------------------

    Doubly Occupied:

       1A    -20.610834     2A    -20.609422     3A    -11.369673
       4A    -11.368644     5A     -1.462967     6A     -1.422760
       7A     -0.963837     8A     -0.822199     9A     -0.713853
      10A     -0.706612    11A     -0.663084    12A     -0.602489
      13A     -0.538442    14A     -0.528674    15A     -0.436073

  @DF-RHF Final Energy:  -226.67656046701478

   => Energetics <=

    Nuclear Repulsion Energy =            101.5961369499443094
    One-Electron Energy =                -510.9062673836086219
    Two-Electron Energy =                 182.6335699666495316
    Total Energy =                       -226.6765604670147809
  Basis Set: (AUG-CC-PVTZ AUX)
    Blend: AUG-CC-PVTZ-RI
    Molecular point group: c1

    Geometry (in Angstrom), charge = 0, multiplicity = 1:

       Center              X                  Y                   Z               Mass
    ------------   -----------------  -----------------  -----------------  -----------------
         O            1.723705802714     0.162552645477    -0.000002753892    15.994914619570
         O           -1.742078197286    -0.172062354523    -0.000002753892    15.994914619570
         C            0.680842202714    -0.377176554523     0.000002046108    12.000000000000
         C           -0.654810197286     0.390650645477     0.000004246108    12.000000000000
         H            0.518001802714    -1.498914354523     0.000007246108     1.007825032230
         H           -0.536377197286     1.489406645477     0.000005246108     1.007825032230

  Basis Set: AUG-CC-PVTZ
    Blend: AUG-CC-PVTZ
  Basis Set: (AUG-CC-PVTZ AUX)
    Blend: AUG-CC-PVTZ-JKFIT
	 Reference Energy          =    -226.6765604670147809 [Eh]
	 Singles Energy            =      -0.0000000000000000 [Eh]
	 Same-Spin Energy          =      -0.2068063005947164 [Eh]
	 Opposite-Spin Energy      =      -0.6385362949057143 [Eh]
	 Correlation Energy        =      -0.8453425955004308 [Eh]
	 Total Energy              =    -227.5219030625152072 [Eh]

	 ================> DF-SCS-MP2 Energies <==================
	-----------------------------------------------------------
	 SCS Same-Spin Scale       =       0.3333333333333333 [-]
	 SCS Opposite-Spin Scale   =       1.2000000000000000 [-]
	 SCS Same-Spin Energy      =      -0.0689354335315721 [Eh]
	 SCS Opposite-Spin Energy  =      -0.7662435538868572 [Eh]
	 SCS Correlation Energy    =      -0.8351789874184293 [Eh]
	 SCS Total Energy          =    -227.5117394544332114 [Eh]
	-----------------------------------------------------------

  Dipole Moment: [D]
     X:     0.1622      Y:     0.1015      Z:     0.0000     Total:     0.1913

*** Psi4 exiting successfully. Buy a developer a beer!
