                               Psi4 1.4a3.dev225

  ==> Input File <==

--------------------------------------------------------------------------
#psi4
#
memory 32 gb

molecule  {
0 1
  O        1.7328920     0.1673070    -0.0000030
  O       -1.7328920    -0.1673080    -0.0000030
  C        0.6456230    -0.3954040     0.0000020
  C       -0.6456240     0.3954050     0.0000040
  H        0.5250446    -1.5140448     0.0000071
  H       -0.5271910     1.4941610     0.0000050
units angstrom
no_reorient  #important for SAPT in psi4, default
symmetry c1  #important for SAPT in psi4, default
}

set PROPERTIES_ORIGIN ["COM"]
properties('MP2/aug-cc-pvtz', properties = ['dipole'])
--------------------------------------------------------------------------

    Molecular point group: c1
  Charge       = 0
  Multiplicity = 1
  Basis Set: AUG-CC-PVTZ
    Blend: AUG-CC-PVTZ
  Basis Set: (AUG-CC-PVTZ AUX)
    Blend: AUG-CC-PVTZ-JKFIT

    Orbital Energies [Eh]
    ---------------------

    Doubly Occupied:

       1A    -20.611324     2A    -20.611190     3A    -11.373871
       4A    -11.372062     5A     -1.436154     6A     -1.418889
       7A     -0.973259     8A     -0.825909     9A     -0.707463
      10A     -0.704993    11A     -0.656353    12A     -0.591943
      13A     -0.528070    14A     -0.525826    15A     -0.447522

  @DF-RHF Final Energy:  -226.67417224795901

   => Energetics <=

    Nuclear Repulsion Energy =            101.1033743524454280
    One-Electron Energy =                -509.9854378089625015
    Two-Electron Energy =                 182.2078912085580669
    Total Energy =                       -226.6741722479590067
  Basis Set: (AUG-CC-PVTZ AUX)
    Blend: AUG-CC-PVTZ-RI
    Molecular point group: c1

    Geometry (in Angstrom), charge = 0, multiplicity = 1:

       Center              X                  Y                   Z               Mass
    ------------   -----------------  -----------------  -----------------  -----------------
         O            1.732929499831     0.167652542982    -0.000002797005    15.994914619570
         O           -1.732854500169    -0.166962457018    -0.000002797005    15.994914619570
         C            0.645660499831    -0.395058457018     0.000002202995    12.000000000000
         C           -0.645586500169     0.395750542982     0.000004202995    12.000000000000
         H            0.525082099831    -1.513699257018     0.000007302995     1.007825032230
         H           -0.527153500169     1.494506542982     0.000005202995     1.007825032230

  Basis Set: AUG-CC-PVTZ
    Blend: AUG-CC-PVTZ
  Basis Set: (AUG-CC-PVTZ AUX)
    Blend: AUG-CC-PVTZ-JKFIT
	 Reference Energy          =    -226.6741722479590067 [Eh]
	 Singles Energy            =      -0.0000000000000000 [Eh]
	 Same-Spin Energy          =      -0.2081358621073996 [Eh]
	 Opposite-Spin Energy      =      -0.6418979106243525 [Eh]
	 Correlation Energy        =      -0.8500337727317522 [Eh]
	 Total Energy              =    -227.5242060206907695 [Eh]

	 ================> DF-SCS-MP2 Energies <==================
	-----------------------------------------------------------
	 SCS Same-Spin Scale       =       0.3333333333333333 [-]
	 SCS Opposite-Spin Scale   =       1.2000000000000000 [-]
	 SCS Same-Spin Energy      =      -0.0693786207024665 [Eh]
	 SCS Opposite-Spin Energy  =      -0.7702774927492230 [Eh]
	 SCS Correlation Energy    =      -0.8396561134516894 [Eh]
	 SCS Total Energy          =    -227.5138283614107024 [Eh]
	-----------------------------------------------------------

  Dipole Moment: [D]
     X:     0.0004      Y:     0.0162      Z:     0.0000     Total:     0.0162

*** Psi4 exiting successfully. Buy a developer a beer!
