                               Psi4 1.3.2 release

  ==> Input File <==

--------------------------------------------------------------------------
#psi4
#
memory 32 gb

molecule  {
0 1
  O        1.7330970     0.1672710     0.0000140
  O       -1.7330910    -0.1672830     0.0000460
  C        0.4680244    -0.4871811     0.0000233
  C       -0.6456700     0.3952990    -0.0001290
  H        0.5273580    -1.4940480    -0.0000530
  H       -0.5273580     1.4940580     0.0002160
units angstrom
no_reorient  #important for SAPT in psi4, default
symmetry c1  #important for SAPT in psi4, default
}

set PROPERTIES_ORIGIN ["COM"]
properties('MP2/aug-cc-pvtz', properties = ['dipole'])
--------------------------------------------------------------------------

    Molecular point group: c1
  Charge       = 0
  Multiplicity = 1
  Basis Set: AUG-CC-PVTZ
    Blend: AUG-CC-PVTZ
  Basis Set: (AUG-CC-PVTZ AUX)
    Blend: AUG-CC-PVTZ-JKFIT

    Orbital Energies [Eh]
    ---------------------

    Doubly Occupied:

       1A    -20.616044     2A    -20.614765     3A    -11.384117
       4A    -11.376793     5A     -1.441742     6A     -1.323458
       7A     -1.010727     8A     -0.857572     9A     -0.732386
      10A     -0.701246    11A     -0.607767    12A     -0.587663
      13A     -0.512858    14A     -0.478420    15A     -0.469552

  @DF-RHF Final Energy:  -226.59919578134736

   => Energetics <=

    Nuclear Repulsion Energy =            100.1639675501116358
    One-Electron Energy =                -508.0961054010280122
    Two-Electron Energy =                 181.3329420695690146
    Total Energy =                       -226.5991957813473618
  Basis Set: (AUG-CC-PVTZ AUX)
    Blend: AUG-CC-PVTZ-RI
    Molecular point group: c1

    Geometry (in Angstrom), charge = 0, multiplicity = 1:

       Center              X                  Y                   Z               Mass
    ------------   -----------------  -----------------  -----------------  -----------------
         O            1.769846135704     0.186282429161     0.000016489931    15.994914619570
         O           -1.696341864296    -0.148271570839     0.000048489931    15.994914619570
         C            0.504773535704    -0.468169670839     0.000025789931    12.000000000000
         C           -0.608920864296     0.414310429161    -0.000126510069    12.000000000000
         H            0.564107135704    -1.475036570839    -0.000050510069     1.007825032230
         H           -0.490608864296     1.513069429161     0.000218489931     1.007825032230

  Basis Set: AUG-CC-PVTZ
    Blend: AUG-CC-PVTZ
  Basis Set: (AUG-CC-PVTZ AUX)
    Blend: AUG-CC-PVTZ-JKFIT
	 Reference Energy          =    -226.5991957813473618 [Eh]
	 Singles Energy            =      -0.0000000000000000 [Eh]
	 Same-Spin Energy          =      -0.2156395285727191 [Eh]
	 Opposite-Spin Energy      =      -0.6601481950229553 [Eh]
	 Correlation Energy        =      -0.8757877235956744 [Eh]
	 Total Energy              =    -227.4749835049430260 [Eh]

	 ================> DF-SCS-MP2 Energies <==================
	-----------------------------------------------------------
	 SCS Same-Spin Scale       =       0.3333333333333333 [-]
	 SCS Opposite-Spin Scale   =       1.2000000000000000 [-]
	 SCS Same-Spin Energy      =      -0.0718798428575730 [Eh]
	 SCS Opposite-Spin Energy  =      -0.7921778340275464 [Eh]
	 SCS Correlation Energy    =      -0.8640576768851194 [Eh]
	 SCS Total Energy          =    -227.4632534582324865 [Eh]
	-----------------------------------------------------------

  Dipole Moment: [D]
     X:    -0.2358      Y:    -0.1623      Z:    -0.0002     Total:     0.2863

*** Psi4 exiting successfully. Buy a developer a beer!
