                               Psi4 1.3.2 release

  ==> Input File <==

--------------------------------------------------------------------------
#psi4
#
memory 32 gb

molecule  {
0 1
  O        1.7231134     0.1861637     0.0000158
  O       -1.7330910    -0.1672830     0.0000460
  C        0.6456620    -0.3952850     0.0000220
  C       -0.6456700     0.3952990    -0.0001290
  H        0.5273580    -1.4940480    -0.0000530
  H       -0.5273580     1.4940580     0.0002160
units angstrom
no_reorient  #important for SAPT in psi4, default
symmetry c1  #important for SAPT in psi4, default
}

set PROPERTIES_ORIGIN ["COM"]
properties('MP2/aug-cc-pvtz', properties = ['dipole'])
--------------------------------------------------------------------------

    Molecular point group: c1
  Charge       = 0
  Multiplicity = 1
  Basis Set: AUG-CC-PVTZ
    Blend: AUG-CC-PVTZ
  Basis Set: (AUG-CC-PVTZ AUX)
    Blend: AUG-CC-PVTZ-JKFIT

    Orbital Energies [Eh]
    ---------------------

    Doubly Occupied:

       1A    -20.611160     2A    -20.610145     3A    -11.372079
       4A    -11.370765     5A     -1.435953     6A     -1.418338
       7A     -0.973508     8A     -0.829122     9A     -0.707347
      10A     -0.705760    11A     -0.657226    12A     -0.591705
      13A     -0.527508    14A     -0.526289    15A     -0.447613

  @DF-RHF Final Energy:  -226.67482180457819

   => Energetics <=

    Nuclear Repulsion Energy =            101.2589482598158668
    One-Electron Energy =                -510.2985040584198373
    Two-Electron Energy =                 182.3647339940257552
    Total Energy =                       -226.6748218045781869
  Basis Set: (AUG-CC-PVTZ AUX)
    Blend: AUG-CC-PVTZ-RI
    Molecular point group: c1

    Geometry (in Angstrom), charge = 0, multiplicity = 1:

       Center              X                  Y                   Z               Mass
    ------------   -----------------  -----------------  -----------------  -----------------
         O            1.725866361652     0.180954308295     0.000018062524    15.994914619570
         O           -1.730338038348    -0.172492391705     0.000048262524    15.994914619570
         C            0.648414961652    -0.400494391705     0.000024262524    12.000000000000
         C           -0.642917038348     0.390089608295    -0.000126737476    12.000000000000
         H            0.530110961652    -1.499257391705    -0.000050737476     1.007825032230
         H           -0.524605038348     1.488848608295     0.000218262524     1.007825032230

  Basis Set: AUG-CC-PVTZ
    Blend: AUG-CC-PVTZ
  Basis Set: (AUG-CC-PVTZ AUX)
    Blend: AUG-CC-PVTZ-JKFIT
	 Reference Energy          =    -226.6748218045781869 [Eh]
	 Singles Energy            =      -0.0000000000000000 [Eh]
	 Same-Spin Energy          =      -0.2080533025994343 [Eh]
	 Opposite-Spin Energy      =      -0.6417173210236307 [Eh]
	 Correlation Energy        =      -0.8497706236230650 [Eh]
	 Total Energy              =    -227.5245924282012595 [Eh]

	 ================> DF-SCS-MP2 Energies <==================
	-----------------------------------------------------------
	 SCS Same-Spin Scale       =       0.3333333333333333 [-]
	 SCS Opposite-Spin Scale   =       1.2000000000000000 [-]
	 SCS Same-Spin Energy      =      -0.0693511008664781 [Eh]
	 SCS Opposite-Spin Energy  =      -0.7700607852283567 [Eh]
	 SCS Correlation Energy    =      -0.8394118860948349 [Eh]
	 SCS Total Energy          =    -227.5142336906730236 [Eh]
	-----------------------------------------------------------

  Dipole Moment: [D]
     X:     0.0266      Y:    -0.0382      Z:    -0.0001     Total:     0.0465

*** Psi4 exiting successfully. Buy a developer a beer!
