                               Psi4 1.3.2 release

  ==> Input File <==

--------------------------------------------------------------------------
#psi4
#
memory 32 gb

molecule  {
0 1
  O        1.7330970     0.1672710     0.0000140
  O       -1.7330910    -0.1672830     0.0000460
  C        0.6456620    -0.3952850     0.0000220
  C       -0.6456700     0.3952990    -0.0001290
  H        0.5380631    -1.3946227    -0.0000462
  H       -0.5273580     1.4940580     0.0002160
units angstrom
no_reorient  #important for SAPT in psi4, default
symmetry c1  #important for SAPT in psi4, default
}

set PROPERTIES_ORIGIN ["COM"]
properties('MP2/aug-cc-pvtz', properties = ['dipole'])
--------------------------------------------------------------------------

    Molecular point group: c1
  Charge       = 0
  Multiplicity = 1
  Basis Set: AUG-CC-PVTZ
    Blend: AUG-CC-PVTZ
  Basis Set: (AUG-CC-PVTZ AUX)
    Blend: AUG-CC-PVTZ-JKFIT

    Orbital Energies [Eh]
    ---------------------

    Doubly Occupied:

       1A    -20.610313     2A    -20.609893     3A    -11.370335
       4A    -11.361210     5A     -1.435649     6A     -1.417994
       7A     -0.980553     8A     -0.846556     9A     -0.713889
      10A     -0.706487    11A     -0.660625    12A     -0.591175
      13A     -0.528912    14A     -0.527067    15A     -0.449219

  @DF-RHF Final Energy:  -226.67003111686114

   => Energetics <=

    Nuclear Repulsion Energy =            101.6400362457346489
    One-Electron Energy =                -511.0003865523099762
    Two-Electron Energy =                 182.6903191897142165
    Total Energy =                       -226.6700311168611393
  Basis Set: (AUG-CC-PVTZ AUX)
    Blend: AUG-CC-PVTZ-RI
    Molecular point group: c1

    Geometry (in Angstrom), charge = 0, multiplicity = 1:

       Center              X                  Y                   Z               Mass
    ------------   -----------------  -----------------  -----------------  -----------------
         O            1.732911003136     0.165543758942     0.000016640724    15.994914619570
         O           -1.733276996864    -0.169010241058     0.000048640724    15.994914619570
         C            0.645476003136    -0.397012241058     0.000024640724    12.000000000000
         C           -0.645855996864     0.393571758942    -0.000126359276    12.000000000000
         H            0.537877103136    -1.396349941058    -0.000043559276     1.007825032230
         H           -0.527543996864     1.492330758942     0.000218640724     1.007825032230

  Basis Set: AUG-CC-PVTZ
    Blend: AUG-CC-PVTZ
  Basis Set: (AUG-CC-PVTZ AUX)
    Blend: AUG-CC-PVTZ-JKFIT
	 Reference Energy          =    -226.6700311168611393 [Eh]
	 Singles Energy            =      -0.0000000000000000 [Eh]
	 Same-Spin Energy          =      -0.2077151086244005 [Eh]
	 Opposite-Spin Energy      =      -0.6413554372599235 [Eh]
	 Correlation Energy        =      -0.8490705458843241 [Eh]
	 Total Energy              =    -227.5191016627454701 [Eh]

	 ================> DF-SCS-MP2 Energies <==================
	-----------------------------------------------------------
	 SCS Same-Spin Scale       =       0.3333333333333333 [-]
	 SCS Opposite-Spin Scale   =       1.2000000000000000 [-]
	 SCS Same-Spin Energy      =      -0.0692383695414668 [Eh]
	 SCS Opposite-Spin Energy  =      -0.7696265247119082 [Eh]
	 SCS Correlation Energy    =      -0.8388648942533750 [Eh]
	 SCS Total Energy          =    -227.5088960111145013 [Eh]
	-----------------------------------------------------------

  Dipole Moment: [D]
     X:    -0.0017      Y:    -0.0641      Z:    -0.0001     Total:     0.0641

*** Psi4 exiting successfully. Buy a developer a beer!
