                               Psi4 1.4a3.dev225

  ==> Input File <==

--------------------------------------------------------------------------
#psi4
#
memory 32 gb

molecule  {
0 1
 Br        2.0414680    -0.1099760    -0.0581920
 Cl       -2.9628450    -0.6071240    -0.1127560
  C       -0.6470580     0.8674560    -0.2707750
  C        0.1661770    -0.1443180     0.5157990
  C       -2.0963830     0.9300650     0.1865370
  H       -0.2098610     1.8640010    -0.1402420
  H       -0.6025590     0.6288560    -1.3373490
  H        0.1749140     0.0782120     1.5838910
  H       -0.1794760    -1.1643000     0.3558400
  H       -2.1673080     1.1350030     1.2569080
  H       -2.5857587     1.6378763    -0.3052177
units angstrom
no_reorient  #important for SAPT in psi4, default
symmetry c1  #important for SAPT in psi4, default
}

set PROPERTIES_ORIGIN ["COM"]
properties('MP2/aug-cc-pvtz', properties = ['dipole'])
--------------------------------------------------------------------------

    Molecular point group: c1
  Charge       = 0
  Multiplicity = 1
  Basis Set: AUG-CC-PVTZ
    Blend: AUG-CC-PVTZ
  Basis Set: (AUG-CC-PVTZ AUX)
    Blend: AUG-CC-PVTZ-JKFIT

    Orbital Energies [Eh]
    ---------------------

    Doubly Occupied:

       1A   -490.013389     2A   -104.833770     3A    -65.153283
       4A    -58.508546     5A    -58.507218     6A    -58.507211
       7A    -11.299144     8A    -11.297266     9A    -11.259132
      10A    -10.558279    11A     -9.825981    12A     -8.025109
      13A     -8.023341    14A     -8.023308    15A     -7.437326
      16A     -7.430955    17A     -7.430902    18A     -3.180832
      19A     -3.177550    20A     -3.177511    21A     -3.169289
      22A     -3.169288    23A     -1.161901    24A     -1.087668
      25A     -1.003512    26A     -0.908409    27A     -0.826463
      28A     -0.677873    29A     -0.656828    30A     -0.608235
      31A     -0.579167    32A     -0.541910    33A     -0.513260
      34A     -0.488160    35A     -0.448872    36A     -0.444024
      37A     -0.403708    38A     -0.401937

  @DF-RHF Final Energy: -3149.12271020843718

   => Energetics <=

    Nuclear Repulsion Energy =            373.9921266113723277
    One-Electron Energy =               -5120.7085552067901517
    Two-Electron Energy =                1597.5937183869802993
    Total Energy =                      -3149.1227102084376384
  Basis Set: (AUG-CC-PVTZ AUX)
    Blend: AUG-CC-PVTZ-RI
    Molecular point group: c1

    Geometry (in Angstrom), charge = 0, multiplicity = 1:

       Center              X                  Y                   Z               Mass
    ------------   -----------------  -----------------  -----------------  -----------------
         BR           1.907044788223    -0.072403967275    -0.045803832270    78.918337600000
         CL          -3.097268211777    -0.569551967275    -0.100367832270    34.968852682000
         C           -0.781481211777     0.905028032725    -0.258386832270    12.000000000000
         C            0.031753788223    -0.106745967275     0.528187167730    12.000000000000
         C           -2.230806211777     0.967637032725     0.198925167730    12.000000000000
         H           -0.344284211777     1.901573032725    -0.127853832270     1.007825032230
         H           -0.736982211777     0.666428032725    -1.324960832270     1.007825032230
         H            0.040490788223     0.115784032725     1.596279167730     1.007825032230
         H           -0.313899211777    -1.126727967275     0.368228167730     1.007825032230
         H           -2.301731211777     1.172575032725     1.269296167730     1.007825032230
         H           -2.720181911777     1.675448332725    -0.292829532270     1.007825032230

  Basis Set: AUG-CC-PVTZ
    Blend: AUG-CC-PVTZ
  Basis Set: (AUG-CC-PVTZ AUX)
    Blend: AUG-CC-PVTZ-JKFIT
	 Reference Energy          =   -3149.1227102084371836 [Eh]
	 Singles Energy            =      -0.0000000000000000 [Eh]
	 Same-Spin Energy          =      -0.2757480773350404 [Eh]
	 Opposite-Spin Energy      =      -0.8321223385307328 [Eh]
	 Correlation Energy        =      -1.1078704158657731 [Eh]
	 Total Energy              =   -3150.2305806243030020 [Eh]

	 ================> DF-SCS-MP2 Energies <==================
	-----------------------------------------------------------
	 SCS Same-Spin Scale       =       0.3333333333333333 [-]
	 SCS Opposite-Spin Scale   =       1.2000000000000000 [-]
	 SCS Same-Spin Energy      =      -0.0919160257783468 [Eh]
	 SCS Opposite-Spin Energy  =      -0.9985468062368793 [Eh]
	 SCS Correlation Energy    =      -1.0904628320152261 [Eh]
	 SCS Total Energy          =   -3150.2131730404526024 [Eh]
	-----------------------------------------------------------

  Dipole Moment: [D]
     X:    -0.9482      Y:     1.6895      Z:     0.7002     Total:     2.0600

*** Psi4 exiting successfully. Buy a developer a beer!
