                               Psi4 1.4a3.dev225

  ==> Input File <==

--------------------------------------------------------------------------
#psi4
#
memory 32 gb

molecule  {
0 1
 Br        2.0414680    -0.1099760    -0.0581920
 Cl       -2.9628450    -0.6071240    -0.1127560
  C       -0.6470580     0.8674560    -0.2707750
  C        0.1183738    -0.1451934     0.5304307
  C       -2.0963830     0.9300650     0.1865370
  H       -0.2098610     1.8640010    -0.1402420
  H       -0.6025590     0.6288560    -1.3373490
  H        0.1749140     0.0782120     1.5838910
  H       -0.1794760    -1.1643000     0.3558400
  H       -2.1673080     1.1350030     1.2569080
  H       -2.6351350     1.7092920    -0.3548340
units angstrom
no_reorient  #important for SAPT in psi4, default
symmetry c1  #important for SAPT in psi4, default
}

set PROPERTIES_ORIGIN ["COM"]
properties('MP2/aug-cc-pvtz', properties = ['dipole'])
--------------------------------------------------------------------------

    Molecular point group: c1
  Charge       = 0
  Multiplicity = 1
  Basis Set: AUG-CC-PVTZ
    Blend: AUG-CC-PVTZ
  Basis Set: (AUG-CC-PVTZ AUX)
    Blend: AUG-CC-PVTZ-JKFIT

    Orbital Energies [Eh]
    ---------------------

    Doubly Occupied:

       1A   -490.009331     2A   -104.835649     3A    -65.149114
       4A    -58.504375     5A    -58.503057     6A    -58.503052
       7A    -11.309630     8A    -11.302008     9A    -11.260713
      10A    -10.560135    11A     -9.821595    12A     -8.026961
      13A     -8.025185    14A     -8.025153    15A     -7.432788
      16A     -7.426596    17A     -7.426553    18A     -3.176209
      19A     -3.173087    20A     -3.173058    21A     -3.165016
      22A     -3.165015    23A     -1.161825    24A     -1.086765
      25A     -0.998287    26A     -0.902572    27A     -0.827027
      28A     -0.680559    29A     -0.648484    30A     -0.609414
      31A     -0.583387    32A     -0.545784    33A     -0.515313
      34A     -0.475972    35A     -0.447049    36A     -0.444914
      37A     -0.401884    38A     -0.400243

  @DF-RHF Final Energy: -3149.12715732975994

   => Energetics <=

    Nuclear Repulsion Energy =            372.6078866863723533
    One-Electron Energy =               -5118.0625693446454534
    Two-Electron Energy =                1596.3275253285130475
    Total Energy =                      -3149.1271573297599389
  Basis Set: (AUG-CC-PVTZ AUX)
    Blend: AUG-CC-PVTZ-RI
    Molecular point group: c1

    Geometry (in Angstrom), charge = 0, multiplicity = 1:

       Center              X                  Y                   Z               Mass
    ------------   -----------------  -----------------  -----------------  -----------------
         BR           1.911042636733    -0.072798170430    -0.046609145658    78.918337600000
         CL          -3.093270363267    -0.569946170430    -0.101173145658    34.968852682000
         C           -0.777483363267     0.904633829570    -0.259192145658    12.000000000000
         C           -0.012051563267    -0.108015570430     0.542013554342    12.000000000000
         C           -2.226808363267     0.967242829570     0.198119854342    12.000000000000
         H           -0.340286363267     1.901178829570    -0.128659145658     1.007825032230
         H           -0.732984363267     0.666033829570    -1.325766145658     1.007825032230
         H            0.044488636733     0.115389829570     1.595473854342     1.007825032230
         H           -0.309901363267    -1.127122170430     0.367422854342     1.007825032230
         H           -2.297733363267     1.172180829570     1.268490854342     1.007825032230
         H           -2.765560363267     1.746469829570    -0.343251145658     1.007825032230

  Basis Set: AUG-CC-PVTZ
    Blend: AUG-CC-PVTZ
  Basis Set: (AUG-CC-PVTZ AUX)
    Blend: AUG-CC-PVTZ-JKFIT
	 Reference Energy          =   -3149.1271573297599389 [Eh]
	 Singles Energy            =      -0.0000000000000000 [Eh]
	 Same-Spin Energy          =      -0.2756207178704331 [Eh]
	 Opposite-Spin Energy      =      -0.8323143175316328 [Eh]
	 Correlation Energy        =      -1.1079350354020658 [Eh]
	 Total Energy              =   -3150.2350923651620178 [Eh]

	 ================> DF-SCS-MP2 Energies <==================
	-----------------------------------------------------------
	 SCS Same-Spin Scale       =       0.3333333333333333 [-]
	 SCS Opposite-Spin Scale   =       1.2000000000000000 [-]
	 SCS Same-Spin Energy      =      -0.0918735726234777 [Eh]
	 SCS Opposite-Spin Energy  =      -0.9987771810379593 [Eh]
	 SCS Correlation Energy    =      -1.0906507536614369 [Eh]
	 SCS Total Energy          =   -3150.2178080834214597 [Eh]
	-----------------------------------------------------------

  Dipole Moment: [D]
     X:    -1.1081      Y:     1.6807      Z:     0.7199     Total:     2.1379

*** Psi4 exiting successfully. Buy a developer a beer!
