                               Psi4 1.4a3.dev225

  ==> Input File <==

--------------------------------------------------------------------------
#psi4
#
memory 32 gb

molecule  {
0 1
 Br        2.0414680    -0.1099760    -0.0581920
 Cl       -2.9628450    -0.6071240    -0.1127560
  C       -0.6470580     0.8674560    -0.2707750
  C        0.1661770    -0.1443180     0.5157990
  C       -2.0963830     0.9300650     0.1865370
  H       -0.2098610     1.8640010    -0.1402420
  H       -0.6025590     0.6288560    -1.3373490
  H        0.1749140     0.0782120     1.5838910
  H       -0.1794760    -1.1643000     0.3558400
  H       -2.1673080     1.1350030     1.2569080
  H       -2.6598231     1.7449998    -0.3796422
units angstrom
no_reorient  #important for SAPT in psi4, default
symmetry c1  #important for SAPT in psi4, default
}

set PROPERTIES_ORIGIN ["COM"]
properties('MP2/aug-cc-pvtz', properties = ['dipole'])
--------------------------------------------------------------------------

    Molecular point group: c1
  Charge       = 0
  Multiplicity = 1
  Basis Set: AUG-CC-PVTZ
    Blend: AUG-CC-PVTZ
  Basis Set: (AUG-CC-PVTZ AUX)
    Blend: AUG-CC-PVTZ-JKFIT

    Orbital Energies [Eh]
    ---------------------

    Doubly Occupied:

       1A   -490.013896     2A   -104.834753     3A    -65.153782
       4A    -58.509048     5A    -58.507716     6A    -58.507708
       7A    -11.314126     8A    -11.299563     9A    -11.259768
      10A    -10.559211    11A     -9.826474    12A     -8.026037
      13A     -8.024260    14A     -8.024229    15A     -7.437828
      16A     -7.431439    17A     -7.431386    18A     -3.181340
      19A     -3.178050    20A     -3.178010    21A     -3.169765
      22A     -3.169764    23A     -1.158185    24A     -1.088029
      25A     -1.001302    26A     -0.896709    27A     -0.821512
      28A     -0.674231    29A     -0.637894    30A     -0.608047
      31A     -0.579427    32A     -0.537827    33A     -0.512632
      34A     -0.488401    35A     -0.446322    36A     -0.443436
      37A     -0.404061    38A     -0.402069

  @DF-RHF Final Energy: -3149.12608893040760

   => Energetics <=

    Nuclear Repulsion Energy =            373.1624257342197666
    One-Electron Energy =               -5119.1005625728657833
    Two-Electron Energy =                1596.8120479082383554
    Total Energy =                      -3149.1260889304076045
  Basis Set: (AUG-CC-PVTZ AUX)
    Blend: AUG-CC-PVTZ-RI
    Molecular point group: c1

    Geometry (in Angstrom), charge = 0, multiplicity = 1:

       Center              X                  Y                   Z               Mass
    ------------   -----------------  -----------------  -----------------  -----------------
         BR           1.907523477214    -0.073096322037    -0.045322815901    78.918337600000
         CL          -3.096789522786    -0.570244322037    -0.099886815901    34.968852682000
         C           -0.781002522786     0.904335677963    -0.257905815901    12.000000000000
         C            0.032232477214    -0.107438322037     0.528668184099    12.000000000000
         C           -2.230327522786     0.966944677963     0.199406184099    12.000000000000
         H           -0.343805522786     1.900880677963    -0.127372815901     1.007825032230
         H           -0.736503522786     0.665735677963    -1.324479815901     1.007825032230
         H            0.040969477214     0.115091677963     1.596760184099     1.007825032230
         H           -0.313420522786    -1.127420322037     0.368709184099     1.007825032230
         H           -2.301252522786     1.171882677963     1.269777184099     1.007825032230
         H           -2.793767622786     1.781879477963    -0.366773015901     1.007825032230

  Basis Set: AUG-CC-PVTZ
    Blend: AUG-CC-PVTZ
  Basis Set: (AUG-CC-PVTZ AUX)
    Blend: AUG-CC-PVTZ-JKFIT
	 Reference Energy          =   -3149.1260889304076045 [Eh]
	 Singles Energy            =      -0.0000000000000000 [Eh]
	 Same-Spin Energy          =      -0.2759477310245473 [Eh]
	 Opposite-Spin Energy      =      -0.8331343931144215 [Eh]
	 Correlation Energy        =      -1.1090821241389688 [Eh]
	 Total Energy              =   -3150.2351710545467540 [Eh]

	 ================> DF-SCS-MP2 Energies <==================
	-----------------------------------------------------------
	 SCS Same-Spin Scale       =       0.3333333333333333 [-]
	 SCS Opposite-Spin Scale   =       1.2000000000000000 [-]
	 SCS Same-Spin Energy      =      -0.0919825770081824 [Eh]
	 SCS Opposite-Spin Energy  =      -0.9997612717373058 [Eh]
	 SCS Correlation Energy    =      -1.0917438487454882 [Eh]
	 SCS Total Energy          =   -3150.2178327791530137 [Eh]
	-----------------------------------------------------------

  Dipole Moment: [D]
     X:    -0.9280      Y:     1.6413      Z:     0.6959     Total:     2.0098

*** Psi4 exiting successfully. Buy a developer a beer!
