                               Psi4 1.4a3.dev225

  ==> Input File <==

--------------------------------------------------------------------------
#psi4
#
memory 32 gb

molecule  {
0 1
 Br        2.0414680    -0.1099760    -0.0581920
 Cl       -2.9628450    -0.6071240    -0.1127560
  C       -0.6470580     0.8674560    -0.2707750
  C        0.0705706    -0.1460688     0.5450623
  C       -2.0963830     0.9300650     0.1865370
  H       -0.2098610     1.8640010    -0.1402420
  H       -0.6025590     0.6288560    -1.3373490
  H        0.1749140     0.0782120     1.5838910
  H       -0.1794760    -1.1643000     0.3558400
  H       -2.1673080     1.1350030     1.2569080
  H       -2.6351350     1.7092920    -0.3548340
units angstrom
no_reorient  #important for SAPT in psi4, default
symmetry c1  #important for SAPT in psi4, default
}

set PROPERTIES_ORIGIN ["COM"]
properties('MP2/aug-cc-pvtz', properties = ['dipole'])
--------------------------------------------------------------------------

    Molecular point group: c1
  Charge       = 0
  Multiplicity = 1
  Basis Set: AUG-CC-PVTZ
    Blend: AUG-CC-PVTZ
  Basis Set: (AUG-CC-PVTZ AUX)
    Blend: AUG-CC-PVTZ-JKFIT

    Orbital Energies [Eh]
    ---------------------

    Doubly Occupied:

       1A   -490.004464     2A   -104.837191     3A    -65.144186
       4A    -58.499433     5A    -58.498139     6A    -58.498136
       7A    -11.310912     8A    -11.305559     9A    -11.262272
      10A    -10.561683    11A     -9.816515    12A     -8.028508
      13A     -8.026729    14A     -8.026698    15A     -7.427550
      16A     -7.421563    17A     -7.421529    18A     -3.170875
      19A     -3.167915    20A     -3.167896    21A     -3.160089
      22A     -3.160089    23A     -1.165016    24A     -1.087007
      25A     -0.994412    26A     -0.904928    27A     -0.831014
      28A     -0.686646    29A     -0.653212    30A     -0.610788
      31A     -0.587488    32A     -0.552111    33A     -0.517988
      34A     -0.465442    35A     -0.447613    36A     -0.444126
      37A     -0.399147    38A     -0.397682

  @DF-RHF Final Energy: -3149.12323190754887

   => Energetics <=

    Nuclear Repulsion Energy =            371.8468058005897774
    One-Electron Energy =               -5116.6149786364312604
    Two-Electron Energy =                1595.6449409282920442
    Total Energy =                      -3149.1232319075488704
  Basis Set: (AUG-CC-PVTZ AUX)
    Blend: AUG-CC-PVTZ-RI
    Molecular point group: c1

    Geometry (in Angstrom), charge = 0, multiplicity = 1:

       Center              X                  Y                   Z               Mass
    ------------   -----------------  -----------------  -----------------  -----------------
         BR           1.914721359033    -0.072730803527    -0.047735128714    78.918337600000
         CL          -3.089591640967    -0.569878803527    -0.102299128714    34.968852682000
         C           -0.773804640967     0.904701196473    -0.260318128714    12.000000000000
         C           -0.056176040967    -0.108823603527     0.555519171286    12.000000000000
         C           -2.223129640967     0.967310196473     0.196993871286    12.000000000000
         H           -0.336607640967     1.901246196473    -0.129785128714     1.007825032230
         H           -0.729305640967     0.666101196473    -1.326892128714     1.007825032230
         H            0.048167359033     0.115457196473     1.594347871286     1.007825032230
         H           -0.306222640967    -1.127054803527     0.366296871286     1.007825032230
         H           -2.294054640967     1.172248196473     1.267364871286     1.007825032230
         H           -2.761881640967     1.746537196473    -0.344377128714     1.007825032230

  Basis Set: AUG-CC-PVTZ
    Blend: AUG-CC-PVTZ
  Basis Set: (AUG-CC-PVTZ AUX)
    Blend: AUG-CC-PVTZ-JKFIT
	 Reference Energy          =   -3149.1232319075488704 [Eh]
	 Singles Energy            =      -0.0000000000000000 [Eh]
	 Same-Spin Energy          =      -0.2754923528361973 [Eh]
	 Opposite-Spin Energy      =      -0.8320720445108645 [Eh]
	 Correlation Energy        =      -1.1075643973470617 [Eh]
	 Total Energy              =   -3150.2307963048961028 [Eh]

	 ================> DF-SCS-MP2 Energies <==================
	-----------------------------------------------------------
	 SCS Same-Spin Scale       =       0.3333333333333333 [-]
	 SCS Opposite-Spin Scale   =       1.2000000000000000 [-]
	 SCS Same-Spin Energy      =      -0.0918307842787324 [Eh]
	 SCS Opposite-Spin Energy  =      -0.9984864534130373 [Eh]
	 SCS Correlation Energy    =      -1.0903172376917698 [Eh]
	 SCS Total Energy          =   -3150.2135491452404494 [Eh]
	-----------------------------------------------------------

  Dipole Moment: [D]
     X:    -1.2899      Y:     1.7012      Z:     0.7429     Total:     2.2605

*** Psi4 exiting successfully. Buy a developer a beer!
