                               Psi4 1.4a3.dev225

  ==> Input File <==

--------------------------------------------------------------------------
#psi4
#
memory 32 gb

molecule  {
0 1
 Br        2.0414680    -0.1099760    -0.0581920
 Cl       -2.9628450    -0.6071240    -0.1127560
  C       -0.6470580     0.8674560    -0.2707750
  C        0.1661770    -0.1443180     0.5157990
  C       -2.0963830     0.9300650     0.1865370
  H       -0.2098610     1.8640010    -0.1402420
  H       -0.6025590     0.6288560    -1.3373490
  H        0.1749140     0.0782120     1.5838910
  H       -0.1794760    -1.1643000     0.3558400
  H       -2.1673080     1.1350030     1.2569080
  H       -2.6104469     1.6735842    -0.3300258
units angstrom
no_reorient  #important for SAPT in psi4, default
symmetry c1  #important for SAPT in psi4, default
}

set PROPERTIES_ORIGIN ["COM"]
properties('MP2/aug-cc-pvtz', properties = ['dipole'])
--------------------------------------------------------------------------

    Molecular point group: c1
  Charge       = 0
  Multiplicity = 1
  Basis Set: AUG-CC-PVTZ
    Blend: AUG-CC-PVTZ
  Basis Set: (AUG-CC-PVTZ AUX)
    Blend: AUG-CC-PVTZ-JKFIT

    Orbital Energies [Eh]
    ---------------------

    Doubly Occupied:

       1A   -490.013526     2A   -104.834009     3A    -65.153418
       4A    -58.508682     5A    -58.507353     6A    -58.507345
       7A    -11.303016     8A    -11.299240     9A    -11.259296
      10A    -10.558507    11A     -9.826114    12A     -8.025336
      13A     -8.023565    14A     -8.023533    15A     -7.437462
      16A     -7.431085    17A     -7.431033    18A     -3.180970
      19A     -3.177685    20A     -3.177646    21A     -3.169417
      22A     -3.169416    23A     -1.160329    24A     -1.087738
      25A     -1.002534    26A     -0.903784    27A     -0.824652
      28A     -0.675911    29A     -0.651049    30A     -0.608177
      31A     -0.579200    32A     -0.540663    33A     -0.513052
      34A     -0.488216    35A     -0.447892    36A     -0.444006
      37A     -0.403798    38A     -0.401965

  @DF-RHF Final Energy: -3149.12764360400115

   => Energetics <=

    Nuclear Repulsion Energy =            373.7000713606245199
    One-Electron Energy =               -5120.1541878198704580
    Two-Electron Energy =                1597.3264728552444467
    Total Energy =                      -3149.1276436040011504
  Basis Set: (AUG-CC-PVTZ AUX)
    Blend: AUG-CC-PVTZ-RI
    Molecular point group: c1

    Geometry (in Angstrom), charge = 0, multiplicity = 1:

       Center              X                  Y                   Z               Mass
    ------------   -----------------  -----------------  -----------------  -----------------
         BR           1.907204351651    -0.072634752626    -0.045643493912    78.918337600000
         CL          -3.097108648349    -0.569782752626    -0.100207493912    34.968852682000
         C           -0.781321648349     0.904797247374    -0.258226493912    12.000000000000
         C            0.031913351651    -0.106976752626     0.528347506088    12.000000000000
         C           -2.230646648349     0.967406247374     0.199085506088    12.000000000000
         H           -0.344124648349     1.901342247374    -0.127693493912     1.007825032230
         H           -0.736822648349     0.666197247374    -1.324800493912     1.007825032230
         H            0.040650351651     0.115553247374     1.596439506088     1.007825032230
         H           -0.313739648349    -1.126958752626     0.368388506088     1.007825032230
         H           -2.301571648349     1.172344247374     1.269456506088     1.007825032230
         H           -2.744710548349     1.710925447374    -0.317477293912     1.007825032230

  Basis Set: AUG-CC-PVTZ
    Blend: AUG-CC-PVTZ
  Basis Set: (AUG-CC-PVTZ AUX)
    Blend: AUG-CC-PVTZ-JKFIT
	 Reference Energy          =   -3149.1276436040011504 [Eh]
	 Singles Energy            =      -0.0000000000000000 [Eh]
	 Same-Spin Energy          =      -0.2757985103829701 [Eh]
	 Opposite-Spin Energy      =      -0.8323730307589747 [Eh]
	 Correlation Energy        =      -1.1081715411419448 [Eh]
	 Total Energy              =   -3150.2358151451430786 [Eh]

	 ================> DF-SCS-MP2 Energies <==================
	-----------------------------------------------------------
	 SCS Same-Spin Scale       =       0.3333333333333333 [-]
	 SCS Opposite-Spin Scale   =       1.2000000000000000 [-]
	 SCS Same-Spin Energy      =      -0.0919328367943234 [Eh]
	 SCS Opposite-Spin Energy  =      -0.9988476369107696 [Eh]
	 SCS Correlation Energy    =      -1.0907804737050930 [Eh]
	 SCS Total Energy          =   -3150.2184240777064588 [Eh]
	-----------------------------------------------------------

  Dipole Moment: [D]
     X:    -0.9439      Y:     1.6779      Z:     0.6974     Total:     2.0476

*** Psi4 exiting successfully. Buy a developer a beer!
