                               Psi4 1.4a3.dev225

  ==> Input File <==

--------------------------------------------------------------------------
#psi4
#
memory 32 gb

molecule  {
0 1
 Br        2.0414680    -0.1099760    -0.0581920
 Cl       -2.9628450    -0.6071240    -0.1127560
  C       -0.6470580     0.8674560    -0.2707750
  C        0.1393872    -0.1109879     0.4898875
  C       -2.0963830     0.9300650     0.1865370
  H       -0.2098610     1.8640010    -0.1402420
  H       -0.6025590     0.6288560    -1.3373490
  H        0.1749140     0.0782120     1.5838910
  H       -0.1794760    -1.1643000     0.3558400
  H       -2.1673080     1.1350030     1.2569080
  H       -2.6351350     1.7092920    -0.3548340
units angstrom
no_reorient  #important for SAPT in psi4, default
symmetry c1  #important for SAPT in psi4, default
}

set PROPERTIES_ORIGIN ["COM"]
properties('MP2/aug-cc-pvtz', properties = ['dipole'])
--------------------------------------------------------------------------

    Molecular point group: c1
  Charge       = 0
  Multiplicity = 1
  Basis Set: AUG-CC-PVTZ
    Blend: AUG-CC-PVTZ
  Basis Set: (AUG-CC-PVTZ AUX)
    Blend: AUG-CC-PVTZ-JKFIT

    Orbital Energies [Eh]
    ---------------------

    Doubly Occupied:

       1A   -490.012290     2A   -104.835070     3A    -65.152138
       4A    -58.507402     5A    -58.506075     6A    -58.506063
       7A    -11.309867     8A    -11.301918     9A    -11.257776
      10A    -10.559542    11A     -9.824752    12A     -8.026371
      13A     -8.024592    14A     -8.024559    15A     -7.436049
      16A     -7.429736    17A     -7.429662    18A     -3.179528
      19A     -3.176308    20A     -3.176253    21A     -3.168081
      22A     -3.168080    23A     -1.162611    24A     -1.091322
      25A     -1.001813    26A     -0.901742    27A     -0.821383
      28A     -0.676442    29A     -0.646922    30A     -0.611465
      31A     -0.579134    32A     -0.544899    33A     -0.510798
      34A     -0.482449    35A     -0.446940    36A     -0.444320
      37A     -0.403916    38A     -0.400753

  @DF-RHF Final Energy: -3149.12543998097499

   => Energetics <=

    Nuclear Repulsion Energy =            373.5805762294886563
    One-Electron Energy =               -5119.9339901453449784
    Two-Electron Energy =                1597.2279739348814473
    Total Energy =                      -3149.1254399809749884
  Basis Set: (AUG-CC-PVTZ AUX)
    Blend: AUG-CC-PVTZ-RI
    Molecular point group: c1

    Geometry (in Angstrom), charge = 0, multiplicity = 1:

       Center              X                  Y                   Z               Mass
    ------------   -----------------  -----------------  -----------------  -----------------
         BR           1.909425538647    -0.075430474034    -0.043489120764    78.918337600000
         CL          -3.094887461353    -0.572578474034    -0.098053120764    34.968852682000
         C           -0.779100461353     0.902001525966    -0.256072120764    12.000000000000
         C            0.007344738647    -0.076442374034     0.504590379236    12.000000000000
         C           -2.228425461353     0.964610525966     0.201239879236    12.000000000000
         H           -0.341903461353     1.898546525966    -0.125539120764     1.007825032230
         H           -0.734601461353     0.663401525966    -1.322646120764     1.007825032230
         H            0.042871538647     0.112757525966     1.598593879236     1.007825032230
         H           -0.311518461353    -1.129754474034     0.370542879236     1.007825032230
         H           -2.299350461353     1.169548525966     1.271610879236     1.007825032230
         H           -2.767177461353     1.743837525966    -0.340131120764     1.007825032230

  Basis Set: AUG-CC-PVTZ
    Blend: AUG-CC-PVTZ
  Basis Set: (AUG-CC-PVTZ AUX)
    Blend: AUG-CC-PVTZ-JKFIT
	 Reference Energy          =   -3149.1254399809749884 [Eh]
	 Singles Energy            =      -0.0000000000000000 [Eh]
	 Same-Spin Energy          =      -0.2762718565020360 [Eh]
	 Opposite-Spin Energy      =      -0.8331051355351864 [Eh]
	 Correlation Energy        =      -1.1093769920372223 [Eh]
	 Total Energy              =   -3150.2348169730121299 [Eh]

	 ================> DF-SCS-MP2 Energies <==================
	-----------------------------------------------------------
	 SCS Same-Spin Scale       =       0.3333333333333333 [-]
	 SCS Opposite-Spin Scale   =       1.2000000000000000 [-]
	 SCS Same-Spin Energy      =      -0.0920906188340120 [Eh]
	 SCS Opposite-Spin Energy  =      -0.9997261626422236 [Eh]
	 SCS Correlation Energy    =      -1.0918167814762356 [Eh]
	 SCS Total Energy          =   -3150.2172567624511430 [Eh]
	-----------------------------------------------------------

  Dipole Moment: [D]
     X:    -1.0204      Y:     1.6758      Z:     0.6920     Total:     2.0804

*** Psi4 exiting successfully. Buy a developer a beer!
