                               Psi4 1.4a3.dev225

  ==> Input File <==

--------------------------------------------------------------------------
#psi4
#
memory 32 gb

molecule  {
0 1
 Br        2.0414680    -0.1099760    -0.0581920
 Cl       -2.9628450    -0.6071240    -0.1127560
  C       -0.6470580     0.8674560    -0.2707750
  C        0.1661770    -0.1443180     0.5157990
  C       -2.0963830     0.9300650     0.1865370
  H       -0.2098610     1.8640010    -0.1402420
  H       -0.6025590     0.6288560    -1.3373490
  H        0.1749140     0.0782120     1.5838910
  H       -0.1794760    -1.1643000     0.3558400
  H       -2.1686069     1.1387560     1.2765097
  H       -2.6351350     1.7092920    -0.3548340
units angstrom
no_reorient  #important for SAPT in psi4, default
symmetry c1  #important for SAPT in psi4, default
}

set PROPERTIES_ORIGIN ["COM"]
properties('MP2/aug-cc-pvtz', properties = ['dipole'])
--------------------------------------------------------------------------

    Molecular point group: c1
  Charge       = 0
  Multiplicity = 1
  Basis Set: AUG-CC-PVTZ
    Blend: AUG-CC-PVTZ
  Basis Set: (AUG-CC-PVTZ AUX)
    Blend: AUG-CC-PVTZ-JKFIT

    Orbital Energies [Eh]
    ---------------------

    Doubly Occupied:

       1A   -490.013694     2A   -104.834525     3A    -65.153584
       4A    -58.508849     5A    -58.507518     6A    -58.507510
       7A    -11.310910     8A    -11.299378     9A    -11.259670
      10A    -10.558997    11A     -9.826279    12A     -8.025824
      13A     -8.024048    14A     -8.024016    15A     -7.437629
      16A     -7.431247    17A     -7.431194    18A     -3.181138
      19A     -3.177852    20A     -3.177812    21A     -3.169576
      22A     -3.169575    23A     -1.158697    24A     -1.087898
      25A     -1.001601    26A     -0.898887    27A     -0.821705
      28A     -0.674203    29A     -0.643789    30A     -0.606973
      31A     -0.579094    32A     -0.539055    33A     -0.512574
      34A     -0.488284    35A     -0.447094    36A     -0.443426
      37A     -0.403917    38A     -0.402023

  @DF-RHF Final Energy: -3149.12783898972884

   => Energetics <=

    Nuclear Repulsion Energy =            373.3239782567393377
    One-Electron Energy =               -5119.4235449653197065
    Two-Electron Energy =                1596.9717277188519802
    Total Energy =                      -3149.1278389897288434
  Basis Set: (AUG-CC-PVTZ AUX)
    Blend: AUG-CC-PVTZ-RI
    Molecular point group: c1

    Geometry (in Angstrom), charge = 0, multiplicity = 1:

       Center              X                  Y                   Z               Mass
    ------------   -----------------  -----------------  -----------------  -----------------
         BR           1.907372309412    -0.072889793517    -0.045609843545    78.918337600000
         CL          -3.096940690588    -0.570037793517    -0.100173843545    34.968852682000
         C           -0.781153690588     0.904542206483    -0.258192843545    12.000000000000
         C            0.032081309412    -0.107231793517     0.528381156455    12.000000000000
         C           -2.230478690588     0.967151206483     0.199119156455    12.000000000000
         H           -0.343956690588     1.901087206483    -0.127659843545     1.007825032230
         H           -0.736654690588     0.665942206483    -1.324766843545     1.007825032230
         H            0.040818309412     0.115298206483     1.596473156455     1.007825032230
         H           -0.313571690588    -1.127213793517     0.368422156455     1.007825032230
         H           -2.302702590588     1.175842206483     1.289091856455     1.007825032230
         H           -2.769230690588     1.746378206483    -0.342251843545     1.007825032230

  Basis Set: AUG-CC-PVTZ
    Blend: AUG-CC-PVTZ
  Basis Set: (AUG-CC-PVTZ AUX)
    Blend: AUG-CC-PVTZ-JKFIT
	 Reference Energy          =   -3149.1278389897288434 [Eh]
	 Singles Energy            =      -0.0000000000000000 [Eh]
	 Same-Spin Energy          =      -0.2758976556726264 [Eh]
	 Opposite-Spin Energy      =      -0.8328695330902804 [Eh]
	 Correlation Energy        =      -1.1087671887629069 [Eh]
	 Total Energy              =   -3150.2366061784919111 [Eh]

	 ================> DF-SCS-MP2 Energies <==================
	-----------------------------------------------------------
	 SCS Same-Spin Scale       =       0.3333333333333333 [-]
	 SCS Opposite-Spin Scale   =       1.2000000000000000 [-]
	 SCS Same-Spin Energy      =      -0.0919658852242088 [Eh]
	 SCS Opposite-Spin Energy  =      -0.9994434397083365 [Eh]
	 SCS Correlation Energy    =      -1.0914093249325452 [Eh]
	 SCS Total Energy          =   -3150.2192483146613995 [Eh]
	-----------------------------------------------------------

  Dipole Moment: [D]
     X:    -0.9377      Y:     1.6562      Z:     0.6900     Total:     2.0244

*** Psi4 exiting successfully. Buy a developer a beer!
