                               Psi4 1.4a3.dev225

  ==> Input File <==

--------------------------------------------------------------------------
#psi4
#
memory 32 gb

molecule  {
0 1
 Br        2.0414680    -0.1099760    -0.0581920
 Cl       -2.9628450    -0.6071240    -0.1127560
  C       -0.6470580     0.8674560    -0.2707750
  C        0.0590178    -0.0109974     0.4121528
  C       -2.0963830     0.9300650     0.1865370
  H       -0.2098610     1.8640010    -0.1402420
  H       -0.6025590     0.6288560    -1.3373490
  H        0.1749140     0.0782120     1.5838910
  H       -0.1794760    -1.1643000     0.3558400
  H       -2.1673080     1.1350030     1.2569080
  H       -2.6351350     1.7092920    -0.3548340
units angstrom
no_reorient  #important for SAPT in psi4, default
symmetry c1  #important for SAPT in psi4, default
}

set PROPERTIES_ORIGIN ["COM"]
properties('MP2/aug-cc-pvtz', properties = ['dipole'])
--------------------------------------------------------------------------

    Molecular point group: c1
  Charge       = 0
  Multiplicity = 1
  Basis Set: AUG-CC-PVTZ
    Blend: AUG-CC-PVTZ
  Basis Set: (AUG-CC-PVTZ AUX)
    Blend: AUG-CC-PVTZ-JKFIT

    Orbital Energies [Eh]
    ---------------------

    Doubly Occupied:

       1A   -490.007140     2A   -104.838034     3A    -65.146874
       4A    -58.502133     5A    -58.500818     6A    -58.500794
       7A    -11.315354     8A    -11.311058     9A    -11.251636
      10A    -10.562458    11A     -9.819271    12A     -8.029290
      13A     -8.027494    14A     -8.027457    15A     -7.430399
      16A     -7.424302    17A     -7.424168    18A     -3.173783
      19A     -3.170771    20A     -3.170664    21A     -3.162707
      22A     -3.162705    23A     -1.180835    24A     -1.107938
      25A     -0.998476    26A     -0.910563    27A     -0.813213
      28A     -0.686954    29A     -0.657846    30A     -0.629593
      31A     -0.586285    32A     -0.551335    33A     -0.494648
      34A     -0.467180    35A     -0.448249    36A     -0.440280
      37A     -0.402579    38A     -0.393174

  @DF-RHF Final Energy: -3149.08018510123611

   => Energetics <=

    Nuclear Repulsion Energy =            374.1285005660989214
    One-Electron Energy =               -5120.9604473133776992
    Two-Electron Energy =                1597.7517616460418139
    Total Energy =                      -3149.0801851012365660
  Basis Set: (AUG-CC-PVTZ AUX)
    Blend: AUG-CC-PVTZ-RI
    Molecular point group: c1

    Geometry (in Angstrom), charge = 0, multiplicity = 1:

       Center              X                  Y                   Z               Mass
    ------------   -----------------  -----------------  -----------------  -----------------
         BR           1.915610411293    -0.083125299531    -0.037507002948    78.918337600000
         CL          -3.088702588707    -0.580273299531    -0.092071002948    34.968852682000
         C           -0.772915588707     0.894306700469    -0.250090002948    12.000000000000
         C           -0.066839788707     0.015853300469     0.432837797052    12.000000000000
         C           -2.222240588707     0.956915700469     0.207221997052    12.000000000000
         H           -0.335718588707     1.890851700469    -0.119557002948     1.007825032230
         H           -0.728416588707     0.655706700469    -1.316664002948     1.007825032230
         H            0.049056411293     0.105062700469     1.604575997052     1.007825032230
         H           -0.305333588707    -1.137449299531     0.376524997052     1.007825032230
         H           -2.293165588707     1.161853700469     1.277592997052     1.007825032230
         H           -2.760992588707     1.736142700469    -0.334149002948     1.007825032230

  Basis Set: AUG-CC-PVTZ
    Blend: AUG-CC-PVTZ
  Basis Set: (AUG-CC-PVTZ AUX)
    Blend: AUG-CC-PVTZ-JKFIT
	 Reference Energy          =   -3149.0801851012361112 [Eh]
	 Singles Energy            =      -0.0000000000000000 [Eh]
	 Same-Spin Energy          =      -0.2788338138259143 [Eh]
	 Opposite-Spin Energy      =      -0.8364991065809279 [Eh]
	 Correlation Energy        =      -1.1153329204068423 [Eh]
	 Total Energy              =   -3150.1955180216427834 [Eh]

	 ================> DF-SCS-MP2 Energies <==================
	-----------------------------------------------------------
	 SCS Same-Spin Scale       =       0.3333333333333333 [-]
	 SCS Opposite-Spin Scale   =       1.2000000000000000 [-]
	 SCS Same-Spin Energy      =      -0.0929446046086381 [Eh]
	 SCS Opposite-Spin Energy  =      -1.0037989278971133 [Eh]
	 SCS Correlation Energy    =      -1.0967435325057515 [Eh]
	 SCS Total Energy          =   -3150.1769286337416816 [Eh]
	-----------------------------------------------------------

  Dipole Moment: [D]
     X:    -1.3455      Y:     1.7541      Z:     0.6500     Total:     2.3043

*** Psi4 exiting successfully. Buy a developer a beer!
