                               Psi4 1.4a3.dev225

  ==> Input File <==

--------------------------------------------------------------------------
#psi4
#
memory 32 gb

molecule  {
0 1
 Br        2.0414680    -0.1099760    -0.0581920
 Cl       -2.9367276    -0.6191518    -0.1249611
  C       -0.6470580     0.8674560    -0.2707750
  C        0.1661770    -0.1443180     0.5157990
  C       -2.0963830     0.9300650     0.1865370
  H       -0.2098610     1.8640010    -0.1402420
  H       -0.6025590     0.6288560    -1.3373490
  H        0.1749140     0.0782120     1.5838910
  H       -0.1794760    -1.1643000     0.3558400
  H       -2.1673080     1.1350030     1.2569080
  H       -2.6351350     1.7092920    -0.3548340
units angstrom
no_reorient  #important for SAPT in psi4, default
symmetry c1  #important for SAPT in psi4, default
}

set PROPERTIES_ORIGIN ["COM"]
properties('MP2/aug-cc-pvtz', properties = ['dipole'])
--------------------------------------------------------------------------

    Molecular point group: c1
  Charge       = 0
  Multiplicity = 1
  Basis Set: AUG-CC-PVTZ
    Blend: AUG-CC-PVTZ
  Basis Set: (AUG-CC-PVTZ AUX)
    Blend: AUG-CC-PVTZ-JKFIT

    Orbital Energies [Eh]
    ---------------------

    Doubly Occupied:

       1A   -490.013494     2A   -104.834366     3A    -65.153384
       4A    -58.508648     5A    -58.507318     6A    -58.507310
       7A    -11.308791     8A    -11.299092     9A    -11.259087
      10A    -10.558869    11A     -9.826078    12A     -8.025695
      13A     -8.023921    14A     -8.023891    15A     -7.437428
      16A     -7.431047    17A     -7.430994    18A     -3.180937
      19A     -3.177651    20A     -3.177611    21A     -3.169376
      22A     -3.169376    23A     -1.159570    24A     -1.087329
      25A     -1.001472    26A     -0.900048    27A     -0.822882
      28A     -0.674721    29A     -0.644678    30A     -0.608051
      31A     -0.579324    32A     -0.538905    33A     -0.512803
      34A     -0.487897    35A     -0.447159    36A     -0.444130
      37A     -0.403741    38A     -0.401754

  @DF-RHF Final Energy: -3149.12826389362999

   => Energetics <=

    Nuclear Repulsion Energy =            374.0024453166897160
    One-Electron Energy =               -5120.7837661143776131
    Two-Electron Energy =                1597.6530569040580758
    Total Energy =                      -3149.1282638936299918
  Basis Set: (AUG-CC-PVTZ AUX)
    Blend: AUG-CC-PVTZ-RI
    Molecular point group: c1

    Geometry (in Angstrom), charge = 0, multiplicity = 1:

       Center              X                  Y                   Z               Mass
    ------------   -----------------  -----------------  -----------------  -----------------
         BR           1.901506983357    -0.070168255229    -0.042746112572    78.918337600000
         CL          -3.076688616643    -0.579344055229    -0.109515212572    34.968852682000
         C           -0.787019016643     0.907263744771    -0.255329112572    12.000000000000
         C            0.026215983357    -0.104510255229     0.531244887428    12.000000000000
         C           -2.236344016643     0.969872744771     0.201982887428    12.000000000000
         H           -0.349822016643     1.903808744771    -0.124796112572     1.007825032230
         H           -0.742520016643     0.668663744771    -1.321903112572     1.007825032230
         H            0.034952983357     0.118019744771     1.599336887428     1.007825032230
         H           -0.319437016643    -1.124492255229     0.371285887428     1.007825032230
         H           -2.307269016643     1.174810744771     1.272353887428     1.007825032230
         H           -2.775096016643     1.749099744771    -0.339388112572     1.007825032230

  Basis Set: AUG-CC-PVTZ
    Blend: AUG-CC-PVTZ
  Basis Set: (AUG-CC-PVTZ AUX)
    Blend: AUG-CC-PVTZ-JKFIT
	 Reference Energy          =   -3149.1282638936299918 [Eh]
	 Singles Energy            =      -0.0000000000000000 [Eh]
	 Same-Spin Energy          =      -0.2759411871077496 [Eh]
	 Opposite-Spin Energy      =      -0.8328085058191113 [Eh]
	 Correlation Energy        =      -1.1087496929268608 [Eh]
	 Total Energy              =   -3150.2370135865567136 [Eh]

	 ================> DF-SCS-MP2 Energies <==================
	-----------------------------------------------------------
	 SCS Same-Spin Scale       =       0.3333333333333333 [-]
	 SCS Opposite-Spin Scale   =       1.2000000000000000 [-]
	 SCS Same-Spin Energy      =      -0.0919803957025832 [Eh]
	 SCS Opposite-Spin Energy  =      -0.9993702069829334 [Eh]
	 SCS Correlation Energy    =      -1.0913506026855166 [Eh]
	 SCS Total Energy          =   -3150.2196144963154438 [Eh]
	-----------------------------------------------------------

  Dipole Moment: [D]
     X:    -0.9672      Y:     1.6694      Z:     0.7058     Total:     2.0544

*** Psi4 exiting successfully. Buy a developer a beer!
