                               Psi4 1.4a3.dev225

  ==> Input File <==

--------------------------------------------------------------------------
#psi4
#
memory 32 gb

molecule  {
0 1
 Br        2.0414680    -0.1099760    -0.0581920
 Cl       -2.9628450    -0.6071240    -0.1127560
  C       -0.6470580     0.8674560    -0.2707750
  C        0.1661770    -0.1443180     0.5157990
  C       -2.0963830     0.9300650     0.1865370
  H       -0.2098610     1.8640010    -0.1402420
  H       -0.6025590     0.6288560    -1.3373490
  H        0.1749140     0.0782120     1.5838910
  H       -0.1794760    -1.1643000     0.3558400
  H       -2.1673080     1.1350030     1.2569080
  H       -2.7338876     1.8521234    -0.4540667
units angstrom
no_reorient  #important for SAPT in psi4, default
symmetry c1  #important for SAPT in psi4, default
}

set PROPERTIES_ORIGIN ["COM"]
properties('MP2/aug-cc-pvtz', properties = ['dipole'])
--------------------------------------------------------------------------

    Molecular point group: c1
  Charge       = 0
  Multiplicity = 1
  Basis Set: AUG-CC-PVTZ
    Blend: AUG-CC-PVTZ
  Basis Set: (AUG-CC-PVTZ AUX)
    Blend: AUG-CC-PVTZ-JKFIT

    Orbital Energies [Eh]
    ---------------------

    Doubly Occupied:

       1A   -490.014691     2A   -104.836550     3A    -65.154569
       4A    -58.509838     5A    -58.508499     6A    -58.508492
       7A    -11.329304     8A    -11.300395     9A    -11.260845
      10A    -10.560906    11A     -9.827253    12A     -8.027725
      13A     -8.025939    14A     -8.025911    15A     -7.438620
      16A     -7.432207    17A     -7.432152    18A     -3.182140
      19A     -3.178838    20A     -3.178797    21A     -3.170520
      22A     -3.170519    23A     -1.156888    24A     -1.088857
      25A     -1.000728    26A     -0.890421    27A     -0.818369
      28A     -0.673977    29A     -0.621236    30A     -0.606461
      31A     -0.580210    32A     -0.532868    33A     -0.511789
      34A     -0.488824    35A     -0.446589    36A     -0.439245
      37A     -0.404671    38A     -0.402273

  @DF-RHF Final Energy: -3149.10728862716860

   => Energetics <=

    Nuclear Repulsion Energy =            372.4493149173287065
    One-Electron Energy =               -5117.6369813886913107
    Two-Electron Energy =                1596.0803778441938903
    Total Energy =                      -3149.1072886271686002
  Basis Set: (AUG-CC-PVTZ AUX)
    Blend: AUG-CC-PVTZ-RI
    Molecular point group: c1

    Geometry (in Angstrom), charge = 0, multiplicity = 1:

       Center              X                  Y                   Z               Mass
    ------------   -----------------  -----------------  -----------------  -----------------
         BR           1.908002166851    -0.073788677447    -0.044841799532    78.918337600000
         CL          -3.096310833149    -0.570936677447    -0.099405799532    34.968852682000
         C           -0.780523833149     0.903643322553    -0.257424799532    12.000000000000
         C            0.032711166851    -0.108130677447     0.529149200468    12.000000000000
         C           -2.229848833149     0.966252322553     0.199887200468    12.000000000000
         H           -0.343326833149     1.900188322553    -0.126891799532     1.007825032230
         H           -0.736024833149     0.665043322553    -1.323998799532     1.007825032230
         H            0.041448166851     0.114399322553     1.597241200468     1.007825032230
         H           -0.312941833149    -1.128112677447     0.369190200468     1.007825032230
         H           -2.300773833149     1.171190322553     1.270258200468     1.007825032230
         H           -2.867353433149     1.888310722553    -0.440716499532     1.007825032230

  Basis Set: AUG-CC-PVTZ
    Blend: AUG-CC-PVTZ
  Basis Set: (AUG-CC-PVTZ AUX)
    Blend: AUG-CC-PVTZ-JKFIT
	 Reference Energy          =   -3149.1072886271686002 [Eh]
	 Singles Energy            =      -0.0000000000000000 [Eh]
	 Same-Spin Energy          =      -0.2762317038810513 [Eh]
	 Opposite-Spin Energy      =      -0.8347360190539126 [Eh]
	 Correlation Energy        =      -1.1109677229349639 [Eh]
	 Total Energy              =   -3150.2182563501037293 [Eh]

	 ================> DF-SCS-MP2 Energies <==================
	-----------------------------------------------------------
	 SCS Same-Spin Scale       =       0.3333333333333333 [-]
	 SCS Opposite-Spin Scale   =       1.2000000000000000 [-]
	 SCS Same-Spin Energy      =      -0.0920772346270171 [Eh]
	 SCS Opposite-Spin Energy  =      -1.0016832228646950 [Eh]
	 SCS Correlation Energy    =      -1.0937604574917121 [Eh]
	 SCS Total Energy          =   -3150.2010490846600987 [Eh]
	-----------------------------------------------------------

  Dipole Moment: [D]
     X:    -0.8854      Y:     1.5528      Z:     0.7048     Total:     1.9214

*** Psi4 exiting successfully. Buy a developer a beer!
