                               Psi4 1.4a3.dev225

  ==> Input File <==

--------------------------------------------------------------------------
#psi4
#
memory 32 gb

molecule  {
0 1
 Br        2.0414680    -0.1099760    -0.0581920
 Cl       -2.9628450    -0.6071240    -0.1127560
  C       -0.6470580     0.8674560    -0.2707750
  C        0.1661770    -0.1443180     0.5157990
  C       -2.0963830     0.9300650     0.1865370
  H       -0.2098610     1.8640010    -0.1402420
  H       -0.6025590     0.6288560    -1.3373490
  H        0.1753144     0.0884099     1.6328384
  H       -0.1794760    -1.1643000     0.3558400
  H       -2.1673080     1.1350030     1.2569080
  H       -2.6351350     1.7092920    -0.3548340
units angstrom
no_reorient  #important for SAPT in psi4, default
symmetry c1  #important for SAPT in psi4, default
}

set PROPERTIES_ORIGIN ["COM"]
properties('MP2/aug-cc-pvtz', properties = ['dipole'])
--------------------------------------------------------------------------

    Molecular point group: c1
  Charge       = 0
  Multiplicity = 1
  Basis Set: AUG-CC-PVTZ
    Blend: AUG-CC-PVTZ
  Basis Set: (AUG-CC-PVTZ AUX)
    Blend: AUG-CC-PVTZ-JKFIT

    Orbital Energies [Eh]
    ---------------------

    Doubly Occupied:

       1A   -490.014026     2A   -104.834306     3A    -65.153908
       4A    -58.509176     5A    -58.507839     6A    -58.507832
       7A    -11.308588     8A    -11.304881     9A    -11.259904
      10A    -10.558786    11A     -9.826601    12A     -8.025614
      13A     -8.023840    14A     -8.023808    15A     -7.437962
      16A     -7.431559    17A     -7.431506    18A     -3.181481
      19A     -3.178182    20A     -3.178144    21A     -3.169876
      22A     -3.169876    23A     -1.158847    24A     -1.086415
      25A     -1.001894    26A     -0.897982    27A     -0.819647
      28A     -0.673334    29A     -0.642703    30A     -0.605186
      31A     -0.578872    32A     -0.537808    33A     -0.512097
      34A     -0.488050    35A     -0.446944    36A     -0.443844
      37A     -0.403414    38A     -0.402148

  @DF-RHF Final Energy: -3149.12610741995059

   => Energetics <=

    Nuclear Repulsion Energy =            373.1358435593680838
    One-Electron Energy =               -5119.0501375773874315
    Two-Electron Energy =                1596.7881865980682505
    Total Energy =                      -3149.1261074199510404
  Basis Set: (AUG-CC-PVTZ AUX)
    Blend: AUG-CC-PVTZ-RI
    Molecular point group: c1

    Geometry (in Angstrom), charge = 0, multiplicity = 1:

       Center              X                  Y                   Z               Mass
    ------------   -----------------  -----------------  -----------------  -----------------
         BR           1.907361326589    -0.072931447843    -0.045799509072    78.918337600000
         CL          -3.096951673411    -0.570079447843    -0.100363509072    34.968852682000
         C           -0.781164673411     0.904500552157    -0.258382509072    12.000000000000
         C            0.032070326589    -0.107273447843     0.528191490928    12.000000000000
         C           -2.230489673411     0.967109552157     0.198929490928    12.000000000000
         H           -0.343967673411     1.901045552157    -0.127849509072     1.007825032230
         H           -0.736665673411     0.665900552157    -1.324956509072     1.007825032230
         H            0.041207726589     0.125454452157     1.645230890928     1.007825032230
         H           -0.313582673411    -1.127255447843     0.368232490928     1.007825032230
         H           -2.301414673411     1.172047552157     1.269300490928     1.007825032230
         H           -2.769241673411     1.746336552157    -0.342441509072     1.007825032230

  Basis Set: AUG-CC-PVTZ
    Blend: AUG-CC-PVTZ
  Basis Set: (AUG-CC-PVTZ AUX)
    Blend: AUG-CC-PVTZ-JKFIT
	 Reference Energy          =   -3149.1261074199505856 [Eh]
	 Singles Energy            =      -0.0000000000000000 [Eh]
	 Same-Spin Energy          =      -0.2759473010946052 [Eh]
	 Opposite-Spin Energy      =      -0.8331165694298794 [Eh]
	 Correlation Energy        =      -1.1090638705244846 [Eh]
	 Total Energy              =   -3150.2351712904751366 [Eh]

	 ================> DF-SCS-MP2 Energies <==================
	-----------------------------------------------------------
	 SCS Same-Spin Scale       =       0.3333333333333333 [-]
	 SCS Opposite-Spin Scale   =       1.2000000000000000 [-]
	 SCS Same-Spin Energy      =      -0.0919824336982017 [Eh]
	 SCS Opposite-Spin Energy  =      -0.9997398833158553 [Eh]
	 SCS Correlation Energy    =      -1.0917223170140571 [Eh]
	 SCS Total Energy          =   -3150.2178297369646316 [Eh]
	-----------------------------------------------------------

  Dipole Moment: [D]
     X:    -0.9271      Y:     1.6642      Z:     0.6811     Total:     2.0231

*** Psi4 exiting successfully. Buy a developer a beer!
