                               Psi4 1.4a3.dev225

  ==> Input File <==

--------------------------------------------------------------------------
#psi4
#
memory 32 gb

molecule  {
0 1
 Br        2.0414680    -0.1099760    -0.0581920
 Cl       -2.9628450    -0.6071240    -0.1127560
  C       -0.6470580     0.8674560    -0.2707750
  C        0.1661770    -0.1443180     0.5157990
  C       -2.0963830     0.9300650     0.1865370
  H       -0.2098610     1.8640010    -0.1402420
  H       -0.6025590     0.6288560    -1.3373490
  H        0.1749140     0.0782120     1.5838910
  H       -0.1794760    -1.1643000     0.3558400
  H       -2.1673080     1.1350030     1.2569080
  H       -2.6450103     1.7235751    -0.3647573
units angstrom
no_reorient  #important for SAPT in psi4, default
symmetry c1  #important for SAPT in psi4, default
}

set PROPERTIES_ORIGIN ["COM"]
properties('MP2/aug-cc-pvtz', properties = ['dipole'])
--------------------------------------------------------------------------

    Molecular point group: c1
  Charge       = 0
  Multiplicity = 1
  Basis Set: AUG-CC-PVTZ
    Blend: AUG-CC-PVTZ
  Basis Set: (AUG-CC-PVTZ AUX)
    Blend: AUG-CC-PVTZ-JKFIT

    Orbital Energies [Eh]
    ---------------------

    Doubly Occupied:

       1A   -490.013771     2A   -104.834492     3A    -65.153660
       4A    -58.508925     5A    -58.507593     6A    -58.507586
       7A    -11.310866     8A    -11.299447     9A    -11.259606
      10A    -10.558965    11A     -9.826353    12A     -8.025792
      13A     -8.024016    14A     -8.023985    15A     -7.437705
      16A     -7.431320    17A     -7.431267    18A     -3.181216
      19A     -3.177927    20A     -3.177888    21A     -3.169647
      22A     -3.169647    23A     -1.158703    24A     -1.087920
      25A     -1.001585    26A     -0.898549    27A     -0.822374
      28A     -0.674533    29A     -0.641879    30A     -0.608102
      31A     -0.579335    32A     -0.538726    33A     -0.512762
      34A     -0.488336    35A     -0.446667    36A     -0.443760
      37A     -0.403970    38A     -0.402032

  @DF-RHF Final Energy: -3149.12782070367484

   => Energetics <=

    Nuclear Repulsion Energy =            373.3178067058742613
    One-Electron Energy =               -5119.4094427441405060
    Two-Electron Energy =                1596.9638153345915725
    Total Energy =                      -3149.1278207036748427
  Basis Set: (AUG-CC-PVTZ AUX)
    Blend: AUG-CC-PVTZ-RI
    Molecular point group: c1

    Geometry (in Angstrom), charge = 0, multiplicity = 1:

       Center              X                  Y                   Z               Mass
    ------------   -----------------  -----------------  -----------------  -----------------
         BR           1.907427739933    -0.072957851085    -0.045419019175    78.918337600000
         CL          -3.096885260067    -0.570105851085    -0.099983019175    34.968852682000
         C           -0.781098260067     0.904474148915    -0.258002019175    12.000000000000
         C            0.032136739933    -0.107299851085     0.528571980825    12.000000000000
         C           -2.230423260067     0.967083148915     0.199309980825    12.000000000000
         H           -0.343901260067     1.901019148915    -0.127469019175     1.007825032230
         H           -0.736599260067     0.665874148915    -1.324576019175     1.007825032230
         H            0.040873739933     0.115230148915     1.596663980825     1.007825032230
         H           -0.313516260067    -1.127281851085     0.368612980825     1.007825032230
         H           -2.301348260067     1.172021148915     1.269680980825     1.007825032230
         H           -2.779050560067     1.760593248915    -0.351984319175     1.007825032230

  Basis Set: AUG-CC-PVTZ
    Blend: AUG-CC-PVTZ
  Basis Set: (AUG-CC-PVTZ AUX)
    Blend: AUG-CC-PVTZ-JKFIT
	 Reference Energy          =   -3149.1278207036748427 [Eh]
	 Singles Energy            =      -0.0000000000000000 [Eh]
	 Same-Spin Energy          =      -0.2758977127833092 [Eh]
	 Opposite-Spin Energy      =      -0.8328744916059335 [Eh]
	 Correlation Energy        =      -1.1087722043892427 [Eh]
	 Total Energy              =   -3150.2365929080642672 [Eh]

	 ================> DF-SCS-MP2 Energies <==================
	-----------------------------------------------------------
	 SCS Same-Spin Scale       =       0.3333333333333333 [-]
	 SCS Opposite-Spin Scale   =       1.2000000000000000 [-]
	 SCS Same-Spin Energy      =      -0.0919659042611031 [Eh]
	 SCS Opposite-Spin Energy  =      -0.9994493899271202 [Eh]
	 SCS Correlation Energy    =      -1.0914152941882231 [Eh]
	 SCS Total Energy          =   -3150.2192359978630520 [Eh]
	-----------------------------------------------------------

  Dipole Moment: [D]
     X:    -0.9338      Y:     1.6542      Z:     0.6958     Total:     2.0230

*** Psi4 exiting successfully. Buy a developer a beer!
