                               Psi4 1.4a3.dev225

  ==> Input File <==

--------------------------------------------------------------------------
#psi4
#
memory 32 gb

molecule  {
0 1
 Br        2.0414680    -0.1099760    -0.0581920
 Cl       -2.9628450    -0.6071240    -0.1127560
  C       -0.6470580     0.8674560    -0.2707750
  C        0.1661770    -0.1443180     0.5157990
  C       -2.0963830     0.9300650     0.1865370
  H       -0.2098610     1.8640010    -0.1402420
  H       -0.6025590     0.6288560    -1.3373490
  H        0.1745136     0.0680141     1.5349436
  H       -0.1794760    -1.1643000     0.3558400
  H       -2.1673080     1.1350030     1.2569080
  H       -2.6351350     1.7092920    -0.3548340
units angstrom
no_reorient  #important for SAPT in psi4, default
symmetry c1  #important for SAPT in psi4, default
}

set PROPERTIES_ORIGIN ["COM"]
properties('MP2/aug-cc-pvtz', properties = ['dipole'])
--------------------------------------------------------------------------

    Molecular point group: c1
  Charge       = 0
  Multiplicity = 1
  Basis Set: AUG-CC-PVTZ
    Blend: AUG-CC-PVTZ
  Basis Set: (AUG-CC-PVTZ AUX)
    Blend: AUG-CC-PVTZ-JKFIT

    Orbital Energies [Eh]
    ---------------------

    Doubly Occupied:

       1A   -490.013438     2A   -104.834372     3A    -65.153333
       4A    -58.508595     5A    -58.507270     6A    -58.507262
       7A    -11.308727     8A    -11.293705     9A    -11.259165
      10A    -10.558853    11A     -9.826027    12A     -8.025681
      13A     -8.023906    14A     -8.023875    15A     -7.437368
      16A     -7.431004    17A     -7.430951    18A     -3.180869
      19A     -3.177592    20A     -3.177552    21A     -3.169343
      22A     -3.169343    23A     -1.159443    24A     -1.089670
      25A     -1.001783    26A     -0.902389    27A     -0.826701
      28A     -0.676684    29A     -0.646616    30A     -0.610869
      31A     -0.579625    32A     -0.540649    33A     -0.513448
      34A     -0.488528    35A     -0.447016    36A     -0.443927
      37A     -0.404443    38A     -0.401869

  @DF-RHF Final Energy: -3149.12762054510858

   => Energetics <=

    Nuclear Repulsion Energy =            373.7259596923157119
    One-Electron Energy =               -5120.2033802161849962
    Two-Electron Energy =                1597.3497999787609842
    Total Energy =                      -3149.1276205451081296
  Basis Set: (AUG-CC-PVTZ AUX)
    Blend: AUG-CC-PVTZ-RI
    Molecular point group: c1

    Geometry (in Angstrom), charge = 0, multiplicity = 1:

       Center              X                  Y                   Z               Mass
    ------------   -----------------  -----------------  -----------------  -----------------
         BR           1.907366502276    -0.072799626821    -0.045166800740    78.918337600000
         CL          -3.096946497724    -0.569947626821    -0.099730800740    34.968852682000
         C           -0.781159497724     0.904632373179    -0.257749800740    12.000000000000
         C            0.032075502276    -0.107141626821     0.528824199260    12.000000000000
         C           -2.230484497724     0.967241373179     0.199562199260    12.000000000000
         H           -0.343962497724     1.901177373179    -0.127216800740     1.007825032230
         H           -0.736660497724     0.666032373179    -1.324323800740     1.007825032230
         H            0.040412102276     0.105190473179     1.547968799260     1.007825032230
         H           -0.313577497724    -1.127123626821     0.368865199260     1.007825032230
         H           -2.301409497724     1.172179373179     1.269933199260     1.007825032230
         H           -2.769236497724     1.746468373179    -0.341808800740     1.007825032230

  Basis Set: AUG-CC-PVTZ
    Blend: AUG-CC-PVTZ
  Basis Set: (AUG-CC-PVTZ AUX)
    Blend: AUG-CC-PVTZ-JKFIT
	 Reference Energy          =   -3149.1276205451085843 [Eh]
	 Singles Energy            =      -0.0000000000000000 [Eh]
	 Same-Spin Energy          =      -0.2757980664954748 [Eh]
	 Opposite-Spin Energy      =      -0.8323907594103511 [Eh]
	 Correlation Energy        =      -1.1081888259058259 [Eh]
	 Total Energy              =   -3150.2358093710145113 [Eh]

	 ================> DF-SCS-MP2 Energies <==================
	-----------------------------------------------------------
	 SCS Same-Spin Scale       =       0.3333333333333333 [-]
	 SCS Opposite-Spin Scale   =       1.2000000000000000 [-]
	 SCS Same-Spin Energy      =      -0.0919326888318249 [Eh]
	 SCS Opposite-Spin Energy  =      -0.9988689112924213 [Eh]
	 SCS Correlation Energy    =      -1.0908016001242462 [Eh]
	 SCS Total Energy          =   -3150.2184221452330348 [Eh]
	-----------------------------------------------------------

  Dipole Moment: [D]
     X:    -0.9458      Y:     1.6593      Z:     0.7066     Total:     2.0365

*** Psi4 exiting successfully. Buy a developer a beer!
