                               Psi4 1.4a3.dev225

  ==> Input File <==

--------------------------------------------------------------------------
#psi4
#
memory 32 gb

molecule  {
0 1
 Br        2.0414680    -0.1099760    -0.0581920
 Cl       -2.9628450    -0.6071240    -0.1127560
  C       -0.6470580     0.8674560    -0.2707750
  C        0.1661770    -0.1443180     0.5157990
  C       -2.1062365     0.7757231     0.1487250
  H       -0.2098610     1.8640010    -0.1402420
  H       -0.6025590     0.6288560    -1.3373490
  H        0.1749140     0.0782120     1.5838910
  H       -0.1794760    -1.1643000     0.3558400
  H       -2.1673080     1.1350030     1.2569080
  H       -2.6351350     1.7092920    -0.3548340
units angstrom
no_reorient  #important for SAPT in psi4, default
symmetry c1  #important for SAPT in psi4, default
}

set PROPERTIES_ORIGIN ["COM"]
properties('MP2/aug-cc-pvtz', properties = ['dipole'])
--------------------------------------------------------------------------

    Molecular point group: c1
  Charge       = 0
  Multiplicity = 1
  Basis Set: AUG-CC-PVTZ
    Blend: AUG-CC-PVTZ
  Basis Set: (AUG-CC-PVTZ AUX)
    Blend: AUG-CC-PVTZ-JKFIT

    Orbital Energies [Eh]
    ---------------------

    Doubly Occupied:

       1A   -490.011343     2A   -104.846153     3A    -65.151259
       4A    -58.506512     5A    -58.505198     6A    -58.505193
       7A    -11.310197     8A    -11.296949     9A    -11.257179
      10A    -10.572889    11A     -9.823974    12A     -8.040113
      13A     -8.037788    14A     -8.037737    15A     -7.435287
      16A     -7.428971    17A     -7.428926    18A     -3.178771
      19A     -3.175517    20A     -3.175483    21A     -3.167340
      22A     -3.167339    23A     -1.192832    24A     -1.094114
      25A     -0.998866    26A     -0.886192    27A     -0.812955
      28A     -0.676393    29A     -0.629333    30A     -0.605780
      31A     -0.599928    32A     -0.542306    33A     -0.521184
      34A     -0.490506    35A     -0.443749    36A     -0.431541
      37A     -0.401634    38A     -0.398265

  @DF-RHF Final Energy: -3149.10284712630710

   => Energetics <=

    Nuclear Repulsion Energy =            375.9440058143697456
    One-Electron Energy =               -5124.5223154310815517
    Two-Electron Energy =                1599.4754624904046523
    Total Energy =                      -3149.1028471263070969
  Basis Set: (AUG-CC-PVTZ AUX)
    Blend: AUG-CC-PVTZ-RI
    Molecular point group: c1

    Geometry (in Angstrom), charge = 0, multiplicity = 1:

       Center              X                  Y                   Z               Mass
    ------------   -----------------  -----------------  -----------------  -----------------
         BR           1.908122196099    -0.060988069099    -0.042573311054    78.918337600000
         CL          -3.096190803901    -0.558136069099    -0.097137311054    34.968852682000
         C           -0.780403803901     0.916443930901    -0.255156311054    12.000000000000
         C            0.032831196099    -0.095330069099     0.531417688946    12.000000000000
         C           -2.239582303901     0.824711030901     0.164343688946    12.000000000000
         H           -0.343206803901     1.912988930901    -0.124623311054     1.007825032230
         H           -0.735904803901     0.677843930901    -1.321730311054     1.007825032230
         H            0.041568196099     0.127199930901     1.599509688946     1.007825032230
         H           -0.312821803901    -1.115312069099     0.371458688946     1.007825032230
         H           -2.300653803901     1.183990930901     1.272526688946     1.007825032230
         H           -2.768480803901     1.758279930901    -0.339215311054     1.007825032230

  Basis Set: AUG-CC-PVTZ
    Blend: AUG-CC-PVTZ
  Basis Set: (AUG-CC-PVTZ AUX)
    Blend: AUG-CC-PVTZ-JKFIT
	 Reference Energy          =   -3149.1028471263070969 [Eh]
	 Singles Energy            =      -0.0000000000000000 [Eh]
	 Same-Spin Energy          =      -0.2779656509945323 [Eh]
	 Opposite-Spin Energy      =      -0.8353559492748974 [Eh]
	 Correlation Energy        =      -1.1133216002694297 [Eh]
	 Total Energy              =   -3150.2161687265765977 [Eh]

	 ================> DF-SCS-MP2 Energies <==================
	-----------------------------------------------------------
	 SCS Same-Spin Scale       =       0.3333333333333333 [-]
	 SCS Opposite-Spin Scale   =       1.2000000000000000 [-]
	 SCS Same-Spin Energy      =      -0.0926552169981774 [Eh]
	 SCS Opposite-Spin Energy  =      -1.0024271391298769 [Eh]
	 SCS Correlation Energy    =      -1.0950823561280543 [Eh]
	 SCS Total Energy          =   -3150.1979294824350291 [Eh]
	-----------------------------------------------------------

  Dipole Moment: [D]
     X:    -1.2586      Y:     1.2673      Z:     0.6168     Total:     1.8896

*** Psi4 exiting successfully. Buy a developer a beer!
