                               Psi4 1.4a3.dev225

  ==> Input File <==

--------------------------------------------------------------------------
#psi4
#
memory 32 gb

molecule  {
0 1
 Br        2.0414680    -0.1099760    -0.0581920
 Cl       -2.9628450    -0.6071240    -0.1127560
  C       -0.6470580     0.8674560    -0.2707750
  C        0.1661770    -0.1443180     0.5157990
  C       -2.0991330     0.9043433     0.1805724
  H       -0.2098610     1.8640010    -0.1402420
  H       -0.6025590     0.6288560    -1.3373490
  H        0.1749140     0.0782120     1.5838910
  H       -0.1794760    -1.1643000     0.3558400
  H       -2.1673080     1.1350030     1.2569080
  H       -2.6351350     1.7092920    -0.3548340
units angstrom
no_reorient  #important for SAPT in psi4, default
symmetry c1  #important for SAPT in psi4, default
}

set PROPERTIES_ORIGIN ["COM"]
properties('MP2/aug-cc-pvtz', properties = ['dipole'])
--------------------------------------------------------------------------

    Molecular point group: c1
  Charge       = 0
  Multiplicity = 1
  Basis Set: AUG-CC-PVTZ
    Blend: AUG-CC-PVTZ
  Basis Set: (AUG-CC-PVTZ AUX)
    Blend: AUG-CC-PVTZ-JKFIT

    Orbital Energies [Eh]
    ---------------------

    Doubly Occupied:

       1A   -490.013254     2A   -104.836633     3A    -65.153148
       4A    -58.508411     5A    -58.507083     6A    -58.507076
       7A    -11.308277     8A    -11.298888     9A    -11.258830
      10A    -10.561386    11A     -9.825846    12A     -8.028268
      13A     -8.026422    14A     -8.026388    15A     -7.437190
      16A     -7.430818    17A     -7.430768    18A     -3.180695
      19A     -3.177413    20A     -3.177376    21A     -3.169154
      22A     -3.169154    23A     -1.163531    24A     -1.089138
      25A     -1.001250    26A     -0.897491    27A     -0.821291
      28A     -0.674294    29A     -0.641433    30A     -0.607085
      31A     -0.581959    32A     -0.538997    33A     -0.515535
      34A     -0.488493    35A     -0.447049    36A     -0.443507
      37A     -0.403458    38A     -0.401493

  @DF-RHF Final Energy: -3149.12722772944653

   => Energetics <=

    Nuclear Repulsion Energy =            373.8234896340149476
    One-Electron Energy =               -5120.4044701886368784
    Two-Electron Energy =                1597.4537528251760250
    Total Energy =                      -3149.1272277294465312
  Basis Set: (AUG-CC-PVTZ AUX)
    Blend: AUG-CC-PVTZ-RI
    Molecular point group: c1

    Geometry (in Angstrom), charge = 0, multiplicity = 1:

       Center              X                  Y                   Z               Mass
    ------------   -----------------  -----------------  -----------------  -----------------
         BR           1.907575542238    -0.070886109356    -0.045024145739    78.918337600000
         CL          -3.096737457762    -0.568034109356    -0.099588145739    34.968852682000
         C           -0.780950457762     0.906545890644    -0.257607145739    12.000000000000
         C            0.032284542238    -0.105228109356     0.528966854261    12.000000000000
         C           -2.233025457762     0.943433190644     0.193740254261    12.000000000000
         H           -0.343753457762     1.903090890644    -0.127074145739     1.007825032230
         H           -0.736451457762     0.667945890644    -1.324181145739     1.007825032230
         H            0.041021542238     0.117301890644     1.597058854261     1.007825032230
         H           -0.313368457762    -1.125210109356     0.369007854261     1.007825032230
         H           -2.301200457762     1.174092890644     1.270075854261     1.007825032230
         H           -2.769027457762     1.748381890644    -0.341666145739     1.007825032230

  Basis Set: AUG-CC-PVTZ
    Blend: AUG-CC-PVTZ
  Basis Set: (AUG-CC-PVTZ AUX)
    Blend: AUG-CC-PVTZ-JKFIT
	 Reference Energy          =   -3149.1272277294465312 [Eh]
	 Singles Energy            =      -0.0000000000000000 [Eh]
	 Same-Spin Energy          =      -0.2761308388182891 [Eh]
	 Opposite-Spin Energy      =      -0.8330079277618840 [Eh]
	 Correlation Energy        =      -1.1091387665801733 [Eh]
	 Total Energy              =   -3150.2363664960266760 [Eh]

	 ================> DF-SCS-MP2 Energies <==================
	-----------------------------------------------------------
	 SCS Same-Spin Scale       =       0.3333333333333333 [-]
	 SCS Opposite-Spin Scale   =       1.2000000000000000 [-]
	 SCS Same-Spin Energy      =      -0.0920436129394297 [Eh]
	 SCS Opposite-Spin Energy  =      -0.9996095133142608 [Eh]
	 SCS Correlation Energy    =      -1.0916531262536906 [Eh]
	 SCS Total Energy          =   -3150.2188808557002631 [Eh]
	-----------------------------------------------------------

  Dipole Moment: [D]
     X:    -0.9954      Y:     1.5950      Z:     0.6833     Total:     2.0005

*** Psi4 exiting successfully. Buy a developer a beer!
