                               Psi4 1.4a3.dev225

  ==> Input File <==

--------------------------------------------------------------------------
#psi4
#
memory 32 gb

molecule  {
0 1
 Br        2.0414680    -0.1099760    -0.0581920
 Cl       -2.9628450    -0.6071240    -0.1127560
  C       -0.6470580     0.8674560    -0.2707750
  C        0.1661770    -0.1443180     0.5157990
  C       -2.0809784     1.0326828     0.2089848
  H       -0.2098610     1.8640010    -0.1402420
  H       -0.6025590     0.6288560    -1.3373490
  H        0.1749140     0.0782120     1.5838910
  H       -0.1794760    -1.1643000     0.3558400
  H       -2.1673080     1.1350030     1.2569080
  H       -2.6351350     1.7092920    -0.3548340
units angstrom
no_reorient  #important for SAPT in psi4, default
symmetry c1  #important for SAPT in psi4, default
}

set PROPERTIES_ORIGIN ["COM"]
properties('MP2/aug-cc-pvtz', properties = ['dipole'])
--------------------------------------------------------------------------

    Molecular point group: c1
  Charge       = 0
  Multiplicity = 1
  Basis Set: AUG-CC-PVTZ
    Blend: AUG-CC-PVTZ
  Basis Set: (AUG-CC-PVTZ AUX)
    Blend: AUG-CC-PVTZ-JKFIT

    Orbital Energies [Eh]
    ---------------------

    Doubly Occupied:

       1A   -490.015649     2A   -104.823656     3A    -65.155522
       4A    -58.510794     5A    -58.509452     6A    -58.509442
       7A    -11.312914     8A    -11.301674     9A    -11.263350
      10A    -10.547418    11A     -9.828203    12A     -8.014066
      13A     -8.012517    14A     -8.012494    15A     -7.439579
      16A     -7.433153    17A     -7.433090    18A     -3.183105
      19A     -3.179799    20A     -3.179748    21A     -3.171452
      22A     -3.171451    23A     -1.146375    24A     -1.081577
      25A     -1.003989    26A     -0.909659    27A     -0.829734
      28A     -0.683450    29A     -0.655065    30A     -0.612954
      31A     -0.573508    32A     -0.543218    33A     -0.499253
      34A     -0.484966    35A     -0.444007    36A     -0.440369
      37A     -0.406014    38A     -0.403894

  @DF-RHF Final Energy: -3149.12307687064413

   => Energetics <=

    Nuclear Repulsion Energy =            371.9042474731108427
    One-Electron Energy =               -5116.6015296882878829
    Two-Electron Energy =                1595.5742053445333113
    Total Energy =                      -3149.1230768706441268
  Basis Set: (AUG-CC-PVTZ AUX)
    Blend: AUG-CC-PVTZ-RI
    Molecular point group: c1

    Geometry (in Angstrom), charge = 0, multiplicity = 1:

       Center              X                  Y                   Z               Mass
    ------------   -----------------  -----------------  -----------------  -----------------
         BR           1.906178444724    -0.080762548187    -0.047210638055    78.918337600000
         CL          -3.098134555276    -0.577910548187    -0.101774638055    34.968852682000
         C           -0.782347555276     0.896669451813    -0.259793638055    12.000000000000
         C            0.030887444724    -0.115104548187     0.526780361945    12.000000000000
         C           -2.216267955276     1.061896251813     0.219966161945    12.000000000000
         H           -0.345150555276     1.893214451813    -0.129260638055     1.007825032230
         H           -0.737848555276     0.658069451813    -1.326367638055     1.007825032230
         H            0.039624444724     0.107425451813     1.594872361945     1.007825032230
         H           -0.314765555276    -1.135086548187     0.366821361945     1.007825032230
         H           -2.302597555276     1.164216451813     1.267889361945     1.007825032230
         H           -2.770424555276     1.738505451813    -0.343852638055     1.007825032230

  Basis Set: AUG-CC-PVTZ
    Blend: AUG-CC-PVTZ
  Basis Set: (AUG-CC-PVTZ AUX)
    Blend: AUG-CC-PVTZ-JKFIT
	 Reference Energy          =   -3149.1230768706441268 [Eh]
	 Singles Energy            =      -0.0000000000000000 [Eh]
	 Same-Spin Energy          =      -0.2751036532917888 [Eh]
	 Opposite-Spin Energy      =      -0.8320300626906328 [Eh]
	 Correlation Energy        =      -1.1071337159824217 [Eh]
	 Total Energy              =   -3150.2302105866265265 [Eh]

	 ================> DF-SCS-MP2 Energies <==================
	-----------------------------------------------------------
	 SCS Same-Spin Scale       =       0.3333333333333333 [-]
	 SCS Opposite-Spin Scale   =       1.2000000000000000 [-]
	 SCS Same-Spin Energy      =      -0.0917012177639296 [Eh]
	 SCS Opposite-Spin Energy  =      -0.9984360752287593 [Eh]
	 SCS Correlation Energy    =      -1.0901372929926889 [Eh]
	 SCS Total Energy          =   -3150.2132141636366214 [Eh]
	-----------------------------------------------------------

  Dipole Moment: [D]
     X:    -0.6862      Y:     1.9382      Z:     0.7458     Total:     2.1871

*** Psi4 exiting successfully. Buy a developer a beer!
