                               Psi4 1.4a3.dev225

  ==> Input File <==

--------------------------------------------------------------------------
#psi4
#
memory 32 gb

molecule  {
0 1
 Br        2.0414680    -0.1099760    -0.0581920
 Cl       -2.9628450    -0.6071240    -0.1127560
  C       -0.6470580     0.8674560    -0.2707750
  C        0.1554611    -0.1309859     0.5054344
  C       -2.0963830     0.9300650     0.1865370
  H       -0.2098610     1.8640010    -0.1402420
  H       -0.6025590     0.6288560    -1.3373490
  H        0.1749140     0.0782120     1.5838910
  H       -0.1794760    -1.1643000     0.3558400
  H       -2.1673080     1.1350030     1.2569080
  H       -2.6351350     1.7092920    -0.3548340
units angstrom
no_reorient  #important for SAPT in psi4, default
symmetry c1  #important for SAPT in psi4, default
}

set PROPERTIES_ORIGIN ["COM"]
properties('MP2/aug-cc-pvtz', properties = ['dipole'])
--------------------------------------------------------------------------

    Molecular point group: c1
  Charge       = 0
  Multiplicity = 1
  Basis Set: AUG-CC-PVTZ
    Blend: AUG-CC-PVTZ
  Basis Set: (AUG-CC-PVTZ AUX)
    Blend: AUG-CC-PVTZ-JKFIT

    Orbital Energies [Eh]
    ---------------------

    Doubly Occupied:

       1A   -490.013142     2A   -104.834619     3A    -65.153015
       4A    -58.508280     5A    -58.506950     6A    -58.506941
       7A    -11.309113     8A    -11.300350     9A    -11.258841
      10A    -10.559097    11A     -9.825677    12A     -8.025925
      13A     -8.024149    14A     -8.024117    15A     -7.437006
      16A     -7.430652    17A     -7.430590    18A     -3.180504
      19A     -3.177243    20A     -3.177198    21A     -3.168987
      22A     -3.168986    23A     -1.160406    24A     -1.089106
      25A     -1.001868    26A     -0.900573    27A     -0.822414
      28A     -0.675355    29A     -0.645426    30A     -0.609230
      31A     -0.579177    32A     -0.541733    33A     -0.512207
      34A     -0.485972    35A     -0.446966    36A     -0.444087
      37A     -0.403810    38A     -0.401715

  @DF-RHF Final Energy: -3149.12782406175938

   => Energetics <=

    Nuclear Repulsion Energy =            373.4861145183842837
    One-Electron Energy =               -5119.7450218632729957
    Two-Electron Energy =                1597.1310832831297830
    Total Energy =                      -3149.1278240617593838
  Basis Set: (AUG-CC-PVTZ AUX)
    Blend: AUG-CC-PVTZ-RI
    Molecular point group: c1

    Geometry (in Angstrom), charge = 0, multiplicity = 1:

       Center              X                  Y                   Z               Mass
    ------------   -----------------  -----------------  -----------------  -----------------
         BR           1.908188562579    -0.073891516630    -0.044685541250    78.918337600000
         CL          -3.096124437421    -0.571039516630    -0.099249541250    34.968852682000
         C           -0.780337437421     0.903540483370    -0.257268541250    12.000000000000
         C            0.022181662579    -0.094901416630     0.518940858750    12.000000000000
         C           -2.229662437421     0.966149483370     0.200043458750    12.000000000000
         H           -0.343140437421     1.900085483370    -0.126735541250     1.007825032230
         H           -0.735838437421     0.664940483370    -1.323842541250     1.007825032230
         H            0.041634562579     0.114296483370     1.597397458750     1.007825032230
         H           -0.312755437421    -1.128215516630     0.369346458750     1.007825032230
         H           -2.300587437421     1.171087483370     1.270414458750     1.007825032230
         H           -2.768414437421     1.745376483370    -0.341327541250     1.007825032230

  Basis Set: AUG-CC-PVTZ
    Blend: AUG-CC-PVTZ
  Basis Set: (AUG-CC-PVTZ AUX)
    Blend: AUG-CC-PVTZ-JKFIT
	 Reference Energy          =   -3149.1278240617593838 [Eh]
	 Singles Energy            =      -0.0000000000000000 [Eh]
	 Same-Spin Energy          =      -0.2760045135845641 [Eh]
	 Opposite-Spin Energy      =      -0.8328298088292748 [Eh]
	 Correlation Energy        =      -1.1088343224138391 [Eh]
	 Total Energy              =   -3150.2366583841730971 [Eh]

	 ================> DF-SCS-MP2 Energies <==================
	-----------------------------------------------------------
	 SCS Same-Spin Scale       =       0.3333333333333333 [-]
	 SCS Opposite-Spin Scale   =       1.2000000000000000 [-]
	 SCS Same-Spin Energy      =      -0.0920015045281880 [Eh]
	 SCS Opposite-Spin Energy  =      -0.9993957705951297 [Eh]
	 SCS Correlation Energy    =      -1.0913972751233179 [Eh]
	 SCS Total Energy          =   -3150.2192213368825833 [Eh]
	-----------------------------------------------------------

  Dipole Moment: [D]
     X:    -0.9694      Y:     1.6669      Z:     0.6948     Total:     2.0496

*** Psi4 exiting successfully. Buy a developer a beer!
