                               Psi4 1.4a3.dev225

  ==> Input File <==

--------------------------------------------------------------------------
#psi4
#
memory 32 gb

molecule  {
0 1
 Br        2.0414680    -0.1099760    -0.0581920
 Cl       -2.9628450    -0.6071240    -0.1127560
  C       -0.6470580     0.8674560    -0.2707750
  C        0.1661770    -0.1443180     0.5157990
  C       -2.0963830     0.9300650     0.1865370
  H       -0.2098610     1.8640010    -0.1402420
  H       -0.6025590     0.6288560    -1.3373490
  H        0.1749140     0.0782120     1.5838910
  H       -0.1794760    -1.1643000     0.3558400
  H       -2.1802965     1.1725333     1.4529253
  H       -2.6351350     1.7092920    -0.3548340
units angstrom
no_reorient  #important for SAPT in psi4, default
symmetry c1  #important for SAPT in psi4, default
}

set PROPERTIES_ORIGIN ["COM"]
properties('MP2/aug-cc-pvtz', properties = ['dipole'])
--------------------------------------------------------------------------

    Molecular point group: c1
  Charge       = 0
  Multiplicity = 1
  Basis Set: AUG-CC-PVTZ
    Blend: AUG-CC-PVTZ
  Basis Set: (AUG-CC-PVTZ AUX)
    Blend: AUG-CC-PVTZ-JKFIT

    Orbital Energies [Eh]
    ---------------------

    Doubly Occupied:

       1A   -490.013779     2A   -104.836891     3A    -65.153672
       4A    -58.508935     5A    -58.507606     6A    -58.507598
       7A    -11.329769     8A    -11.299479     9A    -11.261551
      10A    -10.561245    11A     -9.826369    12A     -8.028064
      13A     -8.026275    14A     -8.026248    15A     -7.437717
      16A     -7.431343    17A     -7.431286    18A     -3.181225
      19A     -3.177943    20A     -3.177899    21A     -3.169672
      22A     -3.169672    23A     -1.156884    24A     -1.088532
      25A     -1.000791    26A     -0.893269    27A     -0.812730
      28A     -0.670889    29A     -0.639529    30A     -0.596969
      31A     -0.575941    32A     -0.536569    33A     -0.509292
      34A     -0.488255    35A     -0.448654    36A     -0.438003
      37A     -0.404016    38A     -0.402245

  @DF-RHF Final Energy: -3149.10758113589418

   => Energetics <=

    Nuclear Repulsion Energy =            372.5038045979022741
    One-Electron Energy =               -5117.7691598166793483
    Two-Electron Energy =                1596.1577740828827245
    Total Energy =                      -3149.1075811358941792
  Basis Set: (AUG-CC-PVTZ AUX)
    Blend: AUG-CC-PVTZ-RI
    Molecular point group: c1

    Geometry (in Angstrom), charge = 0, multiplicity = 1:

       Center              X                  Y                   Z               Mass
    ------------   -----------------  -----------------  -----------------  -----------------
         BR           1.907447860997    -0.073108101120    -0.046750043229    78.918337600000
         CL          -3.096865139003    -0.570256101120    -0.101314043229    34.968852682000
         C           -0.781078139003     0.904323898880    -0.259333043229    12.000000000000
         C            0.032156860997    -0.107450101120     0.527240956771    12.000000000000
         C           -2.230403139003     0.966932898880     0.197978956771    12.000000000000
         H           -0.343881139003     1.900868898880    -0.128800043229     1.007825032230
         H           -0.736579139003     0.665723898880    -1.325907043229     1.007825032230
         H            0.040893860997     0.115079898880     1.595332956771     1.007825032230
         H           -0.313496139003    -1.127432101120     0.367281956771     1.007825032230
         H           -2.314316639003     1.209401198880     1.464367256771     1.007825032230
         H           -2.769155139003     1.746159898880    -0.343392043229     1.007825032230

  Basis Set: AUG-CC-PVTZ
    Blend: AUG-CC-PVTZ
  Basis Set: (AUG-CC-PVTZ AUX)
    Blend: AUG-CC-PVTZ-JKFIT
	 Reference Energy          =   -3149.1075811358941792 [Eh]
	 Singles Energy            =      -0.0000000000000000 [Eh]
	 Same-Spin Energy          =      -0.2762289048621334 [Eh]
	 Opposite-Spin Energy      =      -0.8346883923777788 [Eh]
	 Correlation Energy        =      -1.1109172972399122 [Eh]
	 Total Energy              =   -3150.2184984331343003 [Eh]

	 ================> DF-SCS-MP2 Energies <==================
	-----------------------------------------------------------
	 SCS Same-Spin Scale       =       0.3333333333333333 [-]
	 SCS Opposite-Spin Scale   =       1.2000000000000000 [-]
	 SCS Same-Spin Energy      =      -0.0920763016207111 [Eh]
	 SCS Opposite-Spin Energy  =      -1.0016260708533344 [Eh]
	 SCS Correlation Energy    =      -1.0937023724740456 [Eh]
	 SCS Total Energy          =   -3150.2012835083683058 [Eh]
	-----------------------------------------------------------

  Dipole Moment: [D]
     X:    -0.9400      Y:     1.5884      Z:     0.6069     Total:     1.9430

*** Psi4 exiting successfully. Buy a developer a beer!
