                               Psi4 1.4a3.dev225

  ==> Input File <==

--------------------------------------------------------------------------
#psi4
#
memory 32 gb

molecule  {
0 1
 Br        2.0414680    -0.1099760    -0.0581920
 Cl       -2.9628450    -0.6071240    -0.1127560
  C       -0.6470580     0.8674560    -0.2707750
  C        0.1768929    -0.1576501     0.5261636
  C       -2.0963830     0.9300650     0.1865370
  H       -0.2098610     1.8640010    -0.1402420
  H       -0.6025590     0.6288560    -1.3373490
  H        0.1749140     0.0782120     1.5838910
  H       -0.1794760    -1.1643000     0.3558400
  H       -2.1673080     1.1350030     1.2569080
  H       -2.6351350     1.7092920    -0.3548340
units angstrom
no_reorient  #important for SAPT in psi4, default
symmetry c1  #important for SAPT in psi4, default
}

set PROPERTIES_ORIGIN ["COM"]
properties('MP2/aug-cc-pvtz', properties = ['dipole'])
--------------------------------------------------------------------------

    Molecular point group: c1
  Charge       = 0
  Multiplicity = 1
  Basis Set: AUG-CC-PVTZ
    Blend: AUG-CC-PVTZ
  Basis Set: (AUG-CC-PVTZ AUX)
    Blend: AUG-CC-PVTZ-JKFIT

    Orbital Energies [Eh]
    ---------------------

    Doubly Occupied:

       1A   -490.014239     2A   -104.834065     3A    -65.154145
       4A    -58.509410     5A    -58.508077     6A    -58.508072
       7A    -11.308228     8A    -11.298474     9A    -11.260137
      10A    -10.558550    11A     -9.826872    12A     -8.025377
      13A     -8.023604    14A     -8.023573    15A     -7.438244
      16A     -7.431833    17A     -7.431788    18A     -3.181766
      19A     -3.178452    20A     -3.178418    21A     -3.170155
      22A     -3.170154    23A     -1.157920    24A     -1.086785
      25A     -1.001692    26A     -0.899324    27A     -0.823479
      28A     -0.674417    29A     -0.643767    30A     -0.607348
      31A     -0.579367    32A     -0.536709    33A     -0.513249
      34A     -0.490578    35A     -0.446971    36A     -0.443660
      37A     -0.404306    38A     -0.401880

  @DF-RHF Final Energy: -3149.12831177074440

   => Energetics <=

    Nuclear Repulsion Energy =            373.3623728808451574
    One-Electron Energy =               -5119.4912048352807687
    Two-Electron Energy =                1597.0005201836909237
    Total Energy =                      -3149.1283117707444035
  Basis Set: (AUG-CC-PVTZ AUX)
    Blend: AUG-CC-PVTZ-RI
    Molecular point group: c1

    Geometry (in Angstrom), charge = 0, multiplicity = 1:

       Center              X                  Y                   Z               Mass
    ------------   -----------------  -----------------  -----------------  -----------------
         BR           1.906539266285    -0.071839558034    -0.046280768563    78.918337600000
         CL          -3.097773733715    -0.568987558034    -0.100844768563    34.968852682000
         C           -0.781986733715     0.905592441966    -0.258863768563    12.000000000000
         C            0.041964166285    -0.119513658034     0.538074831437    12.000000000000
         C           -2.231311733715     0.968201441966     0.198448231437    12.000000000000
         H           -0.344789733715     1.902137441966    -0.128330768563     1.007825032230
         H           -0.737487733715     0.666992441966    -1.325437768563     1.007825032230
         H            0.039985266285     0.116348441966     1.595802231437     1.007825032230
         H           -0.314404733715    -1.126163558034     0.367751231437     1.007825032230
         H           -2.302236733715     1.173139441966     1.268819231437     1.007825032230
         H           -2.770063733715     1.747428441966    -0.342922768563     1.007825032230

  Basis Set: AUG-CC-PVTZ
    Blend: AUG-CC-PVTZ
  Basis Set: (AUG-CC-PVTZ AUX)
    Blend: AUG-CC-PVTZ-JKFIT
	 Reference Energy          =   -3149.1283117707444035 [Eh]
	 Singles Energy            =      -0.0000000000000000 [Eh]
	 Same-Spin Energy          =      -0.2757595105873074 [Eh]
	 Opposite-Spin Energy      =      -0.8326542625452198 [Eh]
	 Correlation Energy        =      -1.1084137731325272 [Eh]
	 Total Energy              =   -3150.2367255438771281 [Eh]

	 ================> DF-SCS-MP2 Energies <==================
	-----------------------------------------------------------
	 SCS Same-Spin Scale       =       0.3333333333333333 [-]
	 SCS Opposite-Spin Scale   =       1.2000000000000000 [-]
	 SCS Same-Spin Energy      =      -0.0919198368624358 [Eh]
	 SCS Opposite-Spin Energy  =      -0.9991851150542637 [Eh]
	 SCS Correlation Energy    =      -1.0911049519166995 [Eh]
	 SCS Total Energy          =   -3150.2194167226612080 [Eh]
	-----------------------------------------------------------

  Dipole Moment: [D]
     X:    -0.9063      Y:     1.6575      Z:     0.6965     Total:     2.0134

*** Psi4 exiting successfully. Buy a developer a beer!
