                               Psi4 1.4a3.dev225

  ==> Input File <==

--------------------------------------------------------------------------
#psi4
#
memory 32 gb

molecule  {
0 1
 Br        2.0414680    -0.1099760    -0.0581920
 Cl       -2.9103542    -0.6307076    -0.1370714
  C       -0.6470580     0.8674560    -0.2707750
  C        0.1661770    -0.1443180     0.5157990
  C       -2.0963830     0.9300650     0.1865370
  H       -0.2098610     1.8640010    -0.1402420
  H       -0.6025590     0.6288560    -1.3373490
  H        0.1749140     0.0782120     1.5838910
  H       -0.1794760    -1.1643000     0.3558400
  H       -2.1673080     1.1350030     1.2569080
  H       -2.6351350     1.7092920    -0.3548340
units angstrom
no_reorient  #important for SAPT in psi4, default
symmetry c1  #important for SAPT in psi4, default
}

set PROPERTIES_ORIGIN ["COM"]
properties('MP2/aug-cc-pvtz', properties = ['dipole'])
--------------------------------------------------------------------------

    Molecular point group: c1
  Charge       = 0
  Multiplicity = 1
  Basis Set: AUG-CC-PVTZ
    Blend: AUG-CC-PVTZ
  Basis Set: (AUG-CC-PVTZ AUX)
    Blend: AUG-CC-PVTZ-JKFIT

    Orbital Energies [Eh]
    ---------------------

    Doubly Occupied:

       1A   -490.013288     2A   -104.834389     3A    -65.153179
       4A    -58.508443     5A    -58.507113     6A    -58.507105
       7A    -11.308925     8A    -11.298798     9A    -11.258670
      10A    -10.558917    11A     -9.825873    12A     -8.025740
      13A     -8.023967    14A     -8.023938    15A     -7.437222
      16A     -7.430844    17A     -7.430790    18A     -3.180731
      19A     -3.177446    20A     -3.177405    21A     -3.169174
      22A     -3.169173    23A     -1.160067    24A     -1.086789
      25A     -1.001122    26A     -0.900199    27A     -0.822774
      28A     -0.674633    29A     -0.644820    30A     -0.607995
      31A     -0.579353    32A     -0.538503    33A     -0.512758
      34A     -0.487491    35A     -0.447343    36A     -0.444321
      37A     -0.403565    38A     -0.401490

  @DF-RHF Final Energy: -3149.12797289004766

   => Energetics <=

    Nuclear Repulsion Energy =            374.5940032812270601
    One-Electron Energy =               -5121.9752451296881191
    Two-Electron Energy =                1598.2532689584134005
    Total Energy =                      -3149.1279728900481132
  Basis Set: (AUG-CC-PVTZ AUX)
    Blend: AUG-CC-PVTZ-RI
    Molecular point group: c1

    Geometry (in Angstrom), charge = 0, multiplicity = 1:

       Center              X                  Y                   Z               Mass
    ------------   -----------------  -----------------  -----------------  -----------------
         BR           1.895592643261    -0.067576821008    -0.040030329515    78.918337600000
         CL          -3.056229556739    -0.588308421008    -0.118909729515    34.968852682000
         C           -0.792933356739     0.909855178992    -0.252613329515    12.000000000000
         C            0.020301643261    -0.101918821008     0.533960670485    12.000000000000
         C           -2.242258356739     0.972464178992     0.204698670485    12.000000000000
         H           -0.355736356739     1.906400178992    -0.122080329515     1.007825032230
         H           -0.748434356739     0.671255178992    -1.319187329515     1.007825032230
         H            0.029038643261     0.120611178992     1.602052670485     1.007825032230
         H           -0.325351356739    -1.121900821008     0.374001670485     1.007825032230
         H           -2.313183356739     1.177402178992     1.275069670485     1.007825032230
         H           -2.781010356739     1.751691178992    -0.336672329515     1.007825032230

  Basis Set: AUG-CC-PVTZ
    Blend: AUG-CC-PVTZ
  Basis Set: (AUG-CC-PVTZ AUX)
    Blend: AUG-CC-PVTZ-JKFIT
	 Reference Energy          =   -3149.1279728900476584 [Eh]
	 Singles Energy            =      -0.0000000000000000 [Eh]
	 Same-Spin Energy          =      -0.2760235491694110 [Eh]
	 Opposite-Spin Energy      =      -0.8329141801378345 [Eh]
	 Correlation Energy        =      -1.1089377293072453 [Eh]
	 Total Energy              =   -3150.2369106193550579 [Eh]

	 ================> DF-SCS-MP2 Energies <==================
	-----------------------------------------------------------
	 SCS Same-Spin Scale       =       0.3333333333333333 [-]
	 SCS Opposite-Spin Scale   =       1.2000000000000000 [-]
	 SCS Same-Spin Energy      =      -0.0920078497231370 [Eh]
	 SCS Opposite-Spin Energy  =      -0.9994970161654013 [Eh]
	 SCS Correlation Energy    =      -1.0915048658885382 [Eh]
	 SCS Total Energy          =   -3150.2194777559361683 [Eh]
	-----------------------------------------------------------

  Dipole Moment: [D]
     X:    -0.9974      Y:     1.6765      Z:     0.7154     Total:     2.0778

*** Psi4 exiting successfully. Buy a developer a beer!
