                               Psi4 1.4a3.dev225

  ==> Input File <==

--------------------------------------------------------------------------
#psi4
#
memory 32 gb

molecule  {
0 1
 Br        2.0414680    -0.1099760    -0.0581920
 Cl       -2.9628450    -0.6071240    -0.1127560
  C       -0.6470580     0.8674560    -0.2707750
  C        0.1661770    -0.1443180     0.5157990
  C       -2.1047266     0.8271422     0.1618612
  H       -0.2098610     1.8640010    -0.1402420
  H       -0.6025590     0.6288560    -1.3373490
  H        0.1749140     0.0782120     1.5838910
  H       -0.1794760    -1.1643000     0.3558400
  H       -2.1673080     1.1350030     1.2569080
  H       -2.6351350     1.7092920    -0.3548340
units angstrom
no_reorient  #important for SAPT in psi4, default
symmetry c1  #important for SAPT in psi4, default
}

set PROPERTIES_ORIGIN ["COM"]
properties('MP2/aug-cc-pvtz', properties = ['dipole'])
--------------------------------------------------------------------------

    Molecular point group: c1
  Charge       = 0
  Multiplicity = 1
  Basis Set: AUG-CC-PVTZ
    Blend: AUG-CC-PVTZ
  Basis Set: (AUG-CC-PVTZ AUX)
    Blend: AUG-CC-PVTZ-JKFIT

    Orbital Energies [Eh]
    ---------------------

    Doubly Occupied:

       1A   -490.012051     2A   -104.842694     3A    -65.151957
       4A    -58.507214     5A    -58.505895     6A    -58.505889
       7A    -11.308706     8A    -11.297622     9A    -11.257493
      10A    -10.568509    11A     -9.824665    12A     -8.035582
      13A     -8.033476    14A     -8.033432    15A     -7.435990
      16A     -7.429652    17A     -7.429606    18A     -3.179483
      19A     -3.176217    20A     -3.176184    21A     -3.168009
      22A     -3.168008    23A     -1.179735    24A     -1.092354
      25A     -0.999704    26A     -0.890509    27A     -0.816232
      28A     -0.674903    29A     -0.633199    30A     -0.604756
      31A     -0.592791    32A     -0.540260    33A     -0.519973
      34A     -0.489456    35A     -0.445894    36A     -0.438230
      37A     -0.402278    38A     -0.399729

  @DF-RHF Final Energy: -3149.11647219016140

   => Energetics <=

    Nuclear Repulsion Energy =            375.0710025594003127
    One-Electron Energy =               -5122.8382750673681585
    Two-Electron Energy =                1598.6508003178066701
    Total Energy =                      -3149.1164721901614030
  Basis Set: (AUG-CC-PVTZ AUX)
    Blend: AUG-CC-PVTZ-RI
    Molecular point group: c1

    Geometry (in Angstrom), charge = 0, multiplicity = 1:

       Center              X                  Y                   Z               Mass
    ------------   -----------------  -----------------  -----------------  -----------------
         BR           1.908006000891    -0.064945055029    -0.043584214757    78.918337600000
         CL          -3.096306999109    -0.562093055029    -0.098148214757    34.968852682000
         C           -0.780519999109     0.912486944971    -0.256167214757    12.000000000000
         C            0.032715000891    -0.099287055029     0.530406785243    12.000000000000
         C           -2.238188599109     0.872173144971     0.176468985243    12.000000000000
         H           -0.343322999109     1.909031944971    -0.125634214757     1.007825032230
         H           -0.736020999109     0.673886944971    -1.322741214757     1.007825032230
         H            0.041452000891     0.123242944971     1.598498785243     1.007825032230
         H           -0.312937999109    -1.119269055029     0.370447785243     1.007825032230
         H           -2.300769999109     1.180033944971     1.271515785243     1.007825032230
         H           -2.768596999109     1.754322944971    -0.340226214757     1.007825032230

  Basis Set: AUG-CC-PVTZ
    Blend: AUG-CC-PVTZ
  Basis Set: (AUG-CC-PVTZ AUX)
    Blend: AUG-CC-PVTZ-JKFIT
	 Reference Energy          =   -3149.1164721901614030 [Eh]
	 Singles Energy            =      -0.0000000000000000 [Eh]
	 Same-Spin Energy          =      -0.2771243797261477 [Eh]
	 Opposite-Spin Energy      =      -0.8342282165776422 [Eh]
	 Correlation Energy        =      -1.1113525963037900 [Eh]
	 Total Energy              =   -3150.2278247864651348 [Eh]

	 ================> DF-SCS-MP2 Energies <==================
	-----------------------------------------------------------
	 SCS Same-Spin Scale       =       0.3333333333333333 [-]
	 SCS Opposite-Spin Scale   =       1.2000000000000000 [-]
	 SCS Same-Spin Energy      =      -0.0923747932420492 [Eh]
	 SCS Opposite-Spin Energy  =      -1.0010738598931705 [Eh]
	 SCS Correlation Energy    =      -1.0934486531352197 [Eh]
	 SCS Total Energy          =   -3150.2099208432964588 [Eh]
	-----------------------------------------------------------

  Dipole Moment: [D]
     X:    -1.1587      Y:     1.3981      Z:     0.6443     Total:     1.9268

*** Psi4 exiting successfully. Buy a developer a beer!
