                               Psi4 1.4a3.dev225

  ==> Input File <==

--------------------------------------------------------------------------
#psi4
#
memory 32 gb

molecule  {
0 1
 Br        2.0414680    -0.1099760    -0.0581920
 Cl       -2.9628450    -0.6071240    -0.1127560
  C       -0.6470580     0.8674560    -0.2707750
  C        0.1661770    -0.1443180     0.5157990
  C       -2.0963830     0.9300650     0.1865370
  H       -0.2098610     1.8640010    -0.1402420
  H       -0.6025590     0.6288560    -1.3373490
  H        0.1750742     0.0822911     1.6034699
  H       -0.1794760    -1.1643000     0.3558400
  H       -2.1673080     1.1350030     1.2569080
  H       -2.6351350     1.7092920    -0.3548340
units angstrom
no_reorient  #important for SAPT in psi4, default
symmetry c1  #important for SAPT in psi4, default
}

set PROPERTIES_ORIGIN ["COM"]
properties('MP2/aug-cc-pvtz', properties = ['dipole'])
--------------------------------------------------------------------------

    Molecular point group: c1
  Charge       = 0
  Multiplicity = 1
  Basis Set: AUG-CC-PVTZ
    Blend: AUG-CC-PVTZ
  Basis Set: (AUG-CC-PVTZ AUX)
    Blend: AUG-CC-PVTZ-JKFIT

    Orbital Energies [Eh]
    ---------------------

    Doubly Occupied:

       1A   -490.013818     2A   -104.834323     3A    -65.153705
       4A    -58.508971     5A    -58.507638     6A    -58.507630
       7A    -11.308627     8A    -11.301603     9A    -11.259660
      10A    -10.558804    11A     -9.826399    12A     -8.025632
      13A     -8.023858    14A     -8.023826    15A     -7.437754
      16A     -7.431363    17A     -7.431310    18A     -3.181267
      19A     -3.177975    20A     -3.177936    21A     -3.169687
      22A     -3.169687    23A     -1.158993    24A     -1.087239
      25A     -1.001839    26A     -0.899075    27A     -0.821604
      28A     -0.674178    29A     -0.643779    30A     -0.606965
      31A     -0.579130    32A     -0.538722    33A     -0.512567
      34A     -0.488201    35A     -0.446961    36A     -0.443867
      37A     -0.403708    38A     -0.402070

  @DF-RHF Final Energy: -3149.12782860962216

   => Energetics <=

    Nuclear Repulsion Energy =            373.3072529021479227
    One-Electron Energy =               -5119.3894147320552293
    Two-Electron Energy =                1596.9543332202852071
    Total Energy =                      -3149.1278286096217016
  Basis Set: (AUG-CC-PVTZ AUX)
    Blend: AUG-CC-PVTZ-RI
    Molecular point group: c1

    Geometry (in Angstrom), charge = 0, multiplicity = 1:

       Center              X                  Y                   Z               Mass
    ------------   -----------------  -----------------  -----------------  -----------------
         BR           1.907362879036    -0.072891901149    -0.045609696185    78.918337600000
         CL          -3.096950120964    -0.570039901149    -0.100173696185    34.968852682000
         C           -0.781163120964     0.904540098851    -0.258192696185    12.000000000000
         C            0.032071879036    -0.107233901149     0.528381303815    12.000000000000
         C           -2.230488120964     0.967149098851     0.199119303815    12.000000000000
         H           -0.343966120964     1.901085098851    -0.127659696185     1.007825032230
         H           -0.736664120964     0.665940098851    -1.324766696185     1.007825032230
         H            0.040969079036     0.119375198851     1.616052203815     1.007825032230
         H           -0.313581120964    -1.127215901149     0.368422303815     1.007825032230
         H           -2.301413120964     1.172087098851     1.269490303815     1.007825032230
         H           -2.769240120964     1.746376098851    -0.342251696185     1.007825032230

  Basis Set: AUG-CC-PVTZ
    Blend: AUG-CC-PVTZ
  Basis Set: (AUG-CC-PVTZ AUX)
    Blend: AUG-CC-PVTZ-JKFIT
	 Reference Energy          =   -3149.1278286096221564 [Eh]
	 Singles Energy            =      -0.0000000000000000 [Eh]
	 Same-Spin Energy          =      -0.2758976375907972 [Eh]
	 Opposite-Spin Energy      =      -0.8328673529570317 [Eh]
	 Correlation Energy        =      -1.1087649905478290 [Eh]
	 Total Energy              =   -3150.2365936001701812 [Eh]

	 ================> DF-SCS-MP2 Energies <==================
	-----------------------------------------------------------
	 SCS Same-Spin Scale       =       0.3333333333333333 [-]
	 SCS Opposite-Spin Scale   =       1.2000000000000000 [-]
	 SCS Same-Spin Energy      =      -0.0919658791969324 [Eh]
	 SCS Opposite-Spin Energy  =      -0.9994408235484380 [Eh]
	 SCS Correlation Energy    =      -1.0914067027453704 [Eh]
	 SCS Total Energy          =   -3150.2192353123673456 [Eh]
	-----------------------------------------------------------

  Dipole Moment: [D]
     X:    -0.9333      Y:     1.6628      Z:     0.6905     Total:     2.0280

*** Psi4 exiting successfully. Buy a developer a beer!
