                               Psi4 1.4a3.dev225

  ==> Input File <==

--------------------------------------------------------------------------
#psi4
#
memory 32 gb

molecule  {
0 1
 Br        2.0414680    -0.1099760    -0.0581920
 Cl       -2.9628450    -0.6071240    -0.1127560
  C       -0.6470580     0.8674560    -0.2707750
  C        0.1125974    -0.0776577     0.4639759
  C       -2.0963830     0.9300650     0.1865370
  H       -0.2098610     1.8640010    -0.1402420
  H       -0.6025590     0.6288560    -1.3373490
  H        0.1749140     0.0782120     1.5838910
  H       -0.1794760    -1.1643000     0.3558400
  H       -2.1673080     1.1350030     1.2569080
  H       -2.6351350     1.7092920    -0.3548340
units angstrom
no_reorient  #important for SAPT in psi4, default
symmetry c1  #important for SAPT in psi4, default
}

set PROPERTIES_ORIGIN ["COM"]
properties('MP2/aug-cc-pvtz', properties = ['dipole'])
--------------------------------------------------------------------------

    Molecular point group: c1
  Charge       = 0
  Multiplicity = 1
  Basis Set: AUG-CC-PVTZ
    Blend: AUG-CC-PVTZ
  Basis Set: (AUG-CC-PVTZ AUX)
    Blend: AUG-CC-PVTZ-JKFIT

    Orbital Energies [Eh]
    ---------------------

    Doubly Occupied:

       1A   -490.010777     2A   -104.835907     3A    -65.150583
       4A    -58.505847     5A    -58.504523     6A    -58.504507
       7A    -11.311336     8A    -11.304778     9A    -11.255846
      10A    -10.560367    11A     -9.823119    12A     -8.027196
      13A     -8.025413    14A     -8.025379    15A     -7.434363
      16A     -7.428118    17A     -7.428024    18A     -3.177812
      19A     -3.174659    20A     -3.174587    21A     -3.166480
      22A     -3.166479    23A     -1.167130    24A     -1.095927
      25A     -1.001301    26A     -0.904146    27A     -0.819205
      28A     -0.678990    29A     -0.649927    30A     -0.616503
      31A     -0.579997    32A     -0.548548    33A     -0.507161
      34A     -0.476665    35A     -0.447004    36A     -0.444257
      37A     -0.403949    38A     -0.398631

  @DF-RHF Final Energy: -3149.11706528915374

   => Energetics <=

    Nuclear Repulsion Energy =            373.7454604667940430
    One-Electron Energy =               -5120.2541633930350145
    Two-Electron Energy =                1597.3916376370877970
    Total Energy =                      -3149.1170652891532882
  Basis Set: (AUG-CC-PVTZ AUX)
    Blend: AUG-CC-PVTZ-RI
    Molecular point group: c1

    Geometry (in Angstrom), charge = 0, multiplicity = 1:

       Center              X                  Y                   Z               Mass
    ------------   -----------------  -----------------  -----------------  -----------------
         BR           1.911487162863    -0.077995418431    -0.041495078927    78.918337600000
         CL          -3.092825837137    -0.575143418431    -0.096059078927    34.968852682000
         C           -0.777038837137     0.899436581569    -0.254078078927    12.000000000000
         C           -0.017383437137    -0.045677118431     0.480672821073    12.000000000000
         C           -2.226363837137     0.962045581569     0.203233921073    12.000000000000
         H           -0.339841837137     1.895981581569    -0.123545078927     1.007825032230
         H           -0.732539837137     0.660836581569    -1.320652078927     1.007825032230
         H            0.044933162863     0.110192581569     1.600587921073     1.007825032230
         H           -0.309456837137    -1.132319418431     0.372536921073     1.007825032230
         H           -2.297288837137     1.166983581569     1.273604921073     1.007825032230
         H           -2.765115837137     1.741272581569    -0.338137078927     1.007825032230

  Basis Set: AUG-CC-PVTZ
    Blend: AUG-CC-PVTZ
  Basis Set: (AUG-CC-PVTZ AUX)
    Blend: AUG-CC-PVTZ-JKFIT
	 Reference Energy          =   -3149.1170652891537429 [Eh]
	 Singles Energy            =      -0.0000000000000000 [Eh]
	 Same-Spin Energy          =      -0.2768885346222996 [Eh]
	 Opposite-Spin Energy      =      -0.8338520136068736 [Eh]
	 Correlation Energy        =      -1.1107405482291730 [Eh]
	 Total Energy              =   -3150.2278058373831300 [Eh]

	 ================> DF-SCS-MP2 Energies <==================
	-----------------------------------------------------------
	 SCS Same-Spin Scale       =       0.3333333333333333 [-]
	 SCS Opposite-Spin Scale   =       1.2000000000000000 [-]
	 SCS Same-Spin Energy      =      -0.0922961782074332 [Eh]
	 SCS Opposite-Spin Energy  =      -1.0006224163282482 [Eh]
	 SCS Correlation Energy    =      -1.0929185945356814 [Eh]
	 SCS Total Energy          =   -3150.2099838836893468 [Eh]
	-----------------------------------------------------------

  Dipole Moment: [D]
     X:    -1.1139      Y:     1.6948      Z:     0.6836     Total:     2.1402

*** Psi4 exiting successfully. Buy a developer a beer!
