                               Psi4 1.4a3.dev225

  ==> Input File <==

--------------------------------------------------------------------------
#psi4
#
memory 32 gb

molecule  {
0 1
 Br        2.0414680    -0.1099760    -0.0581920
 Cl       -2.9628450    -0.6071240    -0.1127560
  C       -0.6470580     0.8674560    -0.2707750
  C        0.2617834    -0.1425672     0.4865357
  C       -2.0963830     0.9300650     0.1865370
  H       -0.2098610     1.8640010    -0.1402420
  H       -0.6025590     0.6288560    -1.3373490
  H        0.1749140     0.0782120     1.5838910
  H       -0.1794760    -1.1643000     0.3558400
  H       -2.1673080     1.1350030     1.2569080
  H       -2.6351350     1.7092920    -0.3548340
units angstrom
no_reorient  #important for SAPT in psi4, default
symmetry c1  #important for SAPT in psi4, default
}

set PROPERTIES_ORIGIN ["COM"]
properties('MP2/aug-cc-pvtz', properties = ['dipole'])
--------------------------------------------------------------------------

    Molecular point group: c1
  Charge       = 0
  Multiplicity = 1
  Basis Set: AUG-CC-PVTZ
    Blend: AUG-CC-PVTZ
  Basis Set: (AUG-CC-PVTZ AUX)
    Blend: AUG-CC-PVTZ-JKFIT

    Orbital Energies [Eh]
    ---------------------

    Doubly Occupied:

       1A   -490.020844     2A   -104.832345     3A    -65.161112
       4A    -58.516344     5A    -58.515030     6A    -58.515017
       7A    -11.307536     8A    -11.296925     9A    -11.258176
      10A    -10.556821    11A     -9.834466    12A     -8.023650
      13A     -8.021877    14A     -8.021845    15A     -7.446144
      16A     -7.439410    17A     -7.439334    18A     -3.189808
      19A     -3.186167    20A     -3.186104    21A     -3.177608
      22A     -3.177607    23A     -1.155073    24A     -1.095361
      25A     -1.006997    26A     -0.893815    27A     -0.814815
      28A     -0.665011    29A     -0.639152    30A     -0.605624
      31A     -0.571895    32A     -0.527500    33A     -0.515857
      34A     -0.506136    35A     -0.446519    36A     -0.441804
      37A     -0.405185    38A     -0.402593

  @DF-RHF Final Energy: -3149.12104399108102

   => Energetics <=

    Nuclear Repulsion Energy =            375.2525496175227886
    One-Electron Energy =               -5123.1121744854053759
    Two-Electron Energy =                1598.7385808768008246
    Total Energy =                      -3149.1210439910814785
  Basis Set: (AUG-CC-PVTZ AUX)
    Blend: AUG-CC-PVTZ-RI
    Molecular point group: c1

    Geometry (in Angstrom), charge = 0, multiplicity = 1:

       Center              X                  Y                   Z               Mass
    ------------   -----------------  -----------------  -----------------  -----------------
         BR           1.900006469831    -0.073000271136    -0.043231181099    78.918337600000
         CL          -3.104306530169    -0.570148271136    -0.097795181099    34.968852682000
         C           -0.788519530169     0.904431728864    -0.255814181099    12.000000000000
         C            0.120321869831    -0.105591471136     0.501496518901    12.000000000000
         C           -2.237844530169     0.967040728864     0.201497818901    12.000000000000
         H           -0.351322530169     1.900976728864    -0.125281181099     1.007825032230
         H           -0.744020530169     0.665831728864    -1.322388181099     1.007825032230
         H            0.033452469831     0.115187728864     1.598851818901     1.007825032230
         H           -0.320937530169    -1.127324271136     0.370800818901     1.007825032230
         H           -2.308769530169     1.171978728864     1.271868818901     1.007825032230
         H           -2.776596530169     1.746267728864    -0.339873181099     1.007825032230

  Basis Set: AUG-CC-PVTZ
    Blend: AUG-CC-PVTZ
  Basis Set: (AUG-CC-PVTZ AUX)
    Blend: AUG-CC-PVTZ-JKFIT
	 Reference Energy          =   -3149.1210439910810237 [Eh]
	 Singles Energy            =      -0.0000000000000000 [Eh]
	 Same-Spin Energy          =      -0.2767902968315351 [Eh]
	 Opposite-Spin Energy      =      -0.8341123353550257 [Eh]
	 Correlation Energy        =      -1.1109026321865607 [Eh]
	 Total Energy              =   -3150.2319466232675040 [Eh]

	 ================> DF-SCS-MP2 Energies <==================
	-----------------------------------------------------------
	 SCS Same-Spin Scale       =       0.3333333333333333 [-]
	 SCS Opposite-Spin Scale   =       1.2000000000000000 [-]
	 SCS Same-Spin Energy      =      -0.0922634322771784 [Eh]
	 SCS Opposite-Spin Energy  =      -1.0009348024260307 [Eh]
	 SCS Correlation Energy    =      -1.0931982347032090 [Eh]
	 SCS Total Energy          =   -3150.2142422257843464 [Eh]
	-----------------------------------------------------------

  Dipole Moment: [D]
     X:    -0.6314      Y:     1.6298      Z:     0.6458     Total:     1.8634

*** Psi4 exiting successfully. Buy a developer a beer!
