                               Psi4 1.4a3.dev225

  ==> Input File <==

--------------------------------------------------------------------------
#psi4
#
memory 32 gb

molecule  {
0 1
 Br        2.0414680    -0.1099760    -0.0581920
 Cl       -2.9628450    -0.6071240    -0.1127560
  C       -0.6470580     0.8674560    -0.2707750
  C        0.1661770    -0.1443180     0.5157990
  C       -2.0931915     0.9557676     0.1923623
  H       -0.2098610     1.8640010    -0.1402420
  H       -0.6025590     0.6288560    -1.3373490
  H        0.1749140     0.0782120     1.5838910
  H       -0.1794760    -1.1643000     0.3558400
  H       -2.1673080     1.1350030     1.2569080
  H       -2.6351350     1.7092920    -0.3548340
units angstrom
no_reorient  #important for SAPT in psi4, default
symmetry c1  #important for SAPT in psi4, default
}

set PROPERTIES_ORIGIN ["COM"]
properties('MP2/aug-cc-pvtz', properties = ['dipole'])
--------------------------------------------------------------------------

    Molecular point group: c1
  Charge       = 0
  Multiplicity = 1
  Basis Set: AUG-CC-PVTZ
    Blend: AUG-CC-PVTZ
  Basis Set: (AUG-CC-PVTZ AUX)
    Blend: AUG-CC-PVTZ-JKFIT

    Orbital Energies [Eh]
    ---------------------

    Doubly Occupied:

       1A   -490.014155     2A   -104.831891     3A    -65.154040
       4A    -58.509307     5A    -58.507973     6A    -58.507965
       7A    -11.309305     8A    -11.299904     9A    -11.260300
      10A    -10.556139    11A     -9.826731    12A     -8.022916
      13A     -8.021206    14A     -8.021177    15A     -7.438088
      16A     -7.431695    17A     -7.431639    18A     -3.181602
      19A     -3.178310    20A     -3.178268    21A     -3.170016
      22A     -3.170015    23A     -1.155181    24A     -1.086458
      25A     -1.002383    26A     -0.902343    27A     -0.824686
      28A     -0.675882    29A     -0.647629    30A     -0.609250
      31A     -0.577142    32A     -0.539950    33A     -0.509581
      34A     -0.488067    35A     -0.446673    36A     -0.443644
      37A     -0.404403    38A     -0.402503

  @DF-RHF Final Energy: -3149.12854370683499

   => Energetics <=

    Nuclear Repulsion Energy =            373.0327206042124999
    One-Electron Energy =               -5118.8456951921862128
    Two-Electron Energy =                1596.6844308811394058
    Total Energy =                      -3149.1285437068345345
  Basis Set: (AUG-CC-PVTZ AUX)
    Blend: AUG-CC-PVTZ-RI
    Molecular point group: c1

    Geometry (in Angstrom), charge = 0, multiplicity = 1:

       Center              X                  Y                   Z               Mass
    ------------   -----------------  -----------------  -----------------  -----------------
         BR           1.907118310744    -0.074843495456    -0.045931444164    78.918337600000
         CL          -3.097194689256    -0.571991495456    -0.100495444164    34.968852682000
         C           -0.781407689256     0.902588504544    -0.258514444164    12.000000000000
         C            0.031827310744    -0.109185495456     0.528059555836    12.000000000000
         C           -2.227541189256     0.990900104544     0.204622855836    12.000000000000
         H           -0.344210689256     1.899133504544    -0.127981444164     1.007825032230
         H           -0.736908689256     0.663988504544    -1.325088444164     1.007825032230
         H            0.040564310744     0.113344504544     1.596151555836     1.007825032230
         H           -0.313825689256    -1.129167495456     0.368100555836     1.007825032230
         H           -2.301657689256     1.170135504544     1.269168555836     1.007825032230
         H           -2.769484689256     1.744424504544    -0.342573444164     1.007825032230

  Basis Set: AUG-CC-PVTZ
    Blend: AUG-CC-PVTZ
  Basis Set: (AUG-CC-PVTZ AUX)
    Blend: AUG-CC-PVTZ-JKFIT
	 Reference Energy          =   -3149.1285437068349893 [Eh]
	 Singles Energy            =      -0.0000000000000000 [Eh]
	 Same-Spin Energy          =      -0.2756333797019620 [Eh]
	 Opposite-Spin Energy      =      -0.8324746563944304 [Eh]
	 Correlation Energy        =      -1.1081080360963924 [Eh]
	 Total Energy              =   -3150.2366517429313717 [Eh]

	 ================> DF-SCS-MP2 Energies <==================
	-----------------------------------------------------------
	 SCS Same-Spin Scale       =       0.3333333333333333 [-]
	 SCS Opposite-Spin Scale   =       1.2000000000000000 [-]
	 SCS Same-Spin Energy      =      -0.0918777932339873 [Eh]
	 SCS Opposite-Spin Energy  =      -0.9989695876733165 [Eh]
	 SCS Correlation Energy    =      -1.0908473809073038 [Eh]
	 SCS Total Energy          =   -3150.2193910877422240 [Eh]
	-----------------------------------------------------------

  Dipole Moment: [D]
     X:    -0.8771      Y:     1.7296      Z:     0.7085     Total:     2.0646

*** Psi4 exiting successfully. Buy a developer a beer!
