                               Psi4 1.4a3.dev225

  ==> Input File <==

--------------------------------------------------------------------------
#psi4
#
memory 32 gb

molecule  {
0 1
 Br        2.0414680    -0.1099760    -0.0581920
 Cl       -2.9628450    -0.6071240    -0.1127560
  C       -0.6470580     0.8674560    -0.2707750
  C        0.1661770    -0.1443180     0.5157990
  C       -2.0895594     0.9814433     0.1980465
  H       -0.2098610     1.8640010    -0.1402420
  H       -0.6025590     0.6288560    -1.3373490
  H        0.1749140     0.0782120     1.5838910
  H       -0.1794760    -1.1643000     0.3558400
  H       -2.1673080     1.1350030     1.2569080
  H       -2.6351350     1.7092920    -0.3548340
units angstrom
no_reorient  #important for SAPT in psi4, default
symmetry c1  #important for SAPT in psi4, default
}

set PROPERTIES_ORIGIN ["COM"]
properties('MP2/aug-cc-pvtz', properties = ['dipole'])
--------------------------------------------------------------------------

    Molecular point group: c1
  Charge       = 0
  Multiplicity = 1
  Basis Set: AUG-CC-PVTZ
    Blend: AUG-CC-PVTZ
  Basis Set: (AUG-CC-PVTZ AUX)
    Blend: AUG-CC-PVTZ-JKFIT

    Orbital Energies [Eh]
    ---------------------

    Doubly Occupied:

       1A   -490.014634     2A   -104.829295     3A    -65.154516
       4A    -58.509784     5A    -58.508448     6A    -58.508439
       7A    -11.310231     8A    -11.300462     9A    -11.261207
      10A    -10.553347    11A     -9.827203    12A     -8.020077
      13A     -8.018426    14A     -8.018399    15A     -7.438566
      16A     -7.432162    17A     -7.432104    18A     -3.182085
      19A     -3.178788    20A     -3.178743    21A     -3.170476
      22A     -3.170476    23A     -1.151758    24A     -1.084938
      25A     -1.002946    26A     -0.904789    27A     -0.826377
      28A     -0.677630    29A     -0.650495    30A     -0.610437
      31A     -0.575503    32A     -0.540866    33A     -0.505947
      34A     -0.487655    35A     -0.446091    36A     -0.442910
      37A     -0.404917    38A     -0.402978

  @DF-RHF Final Energy: -3149.12763802155632

   => Energetics <=

    Nuclear Repulsion Energy =            372.6491291698173995
    One-Electron Energy =               -5118.0853226517265284
    Two-Electron Energy =                1596.3085554603524088
    Total Energy =                      -3149.1276380215567769
  Basis Set: (AUG-CC-PVTZ AUX)
    Blend: AUG-CC-PVTZ-RI
    Molecular point group: c1

    Geometry (in Angstrom), charge = 0, multiplicity = 1:

       Center              X                  Y                   Z               Mass
    ------------   -----------------  -----------------  -----------------  -----------------
         BR           1.906838800434    -0.076819383476    -0.046368874990    78.918337600000
         CL          -3.097474199566    -0.573967383476    -0.100932874990    34.968852682000
         C           -0.781687199566     0.900612616524    -0.258951874990    12.000000000000
         C            0.031547800434    -0.111161383476     0.527622125010    12.000000000000
         C           -2.224188599566     1.014599916524     0.209869625010    12.000000000000
         H           -0.344490199566     1.897157616524    -0.128418874990     1.007825032230
         H           -0.737188199566     0.662012616524    -1.325525874990     1.007825032230
         H            0.040284800434     0.111368616524     1.595714125010     1.007825032230
         H           -0.314105199566    -1.131143383476     0.367663125010     1.007825032230
         H           -2.301937199566     1.168159616524     1.268731125010     1.007825032230
         H           -2.769764199566     1.742448616524    -0.343010874990     1.007825032230

  Basis Set: AUG-CC-PVTZ
    Blend: AUG-CC-PVTZ
  Basis Set: (AUG-CC-PVTZ AUX)
    Blend: AUG-CC-PVTZ-JKFIT
	 Reference Energy          =   -3149.1276380215563222 [Eh]
	 Singles Energy            =      -0.0000000000000000 [Eh]
	 Same-Spin Energy          =      -0.2754296696529891 [Eh]
	 Opposite-Spin Energy      =      -0.8322827857855563 [Eh]
	 Correlation Energy        =      -1.1077124554385454 [Eh]
	 Total Energy              =   -3150.2353504769948813 [Eh]

	 ================> DF-SCS-MP2 Energies <==================
	-----------------------------------------------------------
	 SCS Same-Spin Scale       =       0.3333333333333333 [-]
	 SCS Opposite-Spin Scale   =       1.2000000000000000 [-]
	 SCS Same-Spin Energy      =      -0.0918098898843297 [Eh]
	 SCS Opposite-Spin Energy  =      -0.9987393429426674 [Eh]
	 SCS Correlation Energy    =      -1.0905492328269970 [Eh]
	 SCS Total Energy          =   -3150.2181872543833379 [Eh]
	-----------------------------------------------------------

  Dipole Moment: [D]
     X:    -0.8152      Y:     1.7982      Z:     0.7210     Total:     2.1019

*** Psi4 exiting successfully. Buy a developer a beer!
