                               Psi4 1.4a3.dev225

  ==> Input File <==

--------------------------------------------------------------------------
#psi4
#
memory 32 gb

molecule  {
0 1
 Br        2.0414680    -0.1099760    -0.0581920
 Cl       -2.9628450    -0.6071240    -0.1127560
  C       -0.6470580     0.8674560    -0.2707750
  C        0.1661770    -0.1443180     0.5157990
  C       -2.0963830     0.9300650     0.1865370
  H       -0.2098610     1.8640010    -0.1402420
  H       -0.6025590     0.6288560    -1.3373490
  H        0.1749140     0.0782120     1.5838910
  H       -0.1794760    -1.1643000     0.3558400
  H       -2.1640609     1.1256204     1.2079037
  H       -2.6351350     1.7092920    -0.3548340
units angstrom
no_reorient  #important for SAPT in psi4, default
symmetry c1  #important for SAPT in psi4, default
}

set PROPERTIES_ORIGIN ["COM"]
properties('MP2/aug-cc-pvtz', properties = ['dipole'])
--------------------------------------------------------------------------

    Molecular point group: c1
  Charge       = 0
  Multiplicity = 1
  Basis Set: AUG-CC-PVTZ
    Blend: AUG-CC-PVTZ
  Basis Set: (AUG-CC-PVTZ AUX)
    Blend: AUG-CC-PVTZ-JKFIT

    Orbital Energies [Eh]
    ---------------------

    Doubly Occupied:

       1A   -490.013704     2A   -104.833931     3A    -65.153593
       4A    -58.508857     5A    -58.507526     6A    -58.507519
       7A    -11.302907     8A    -11.299389     9A    -11.259143
      10A    -10.558430    11A     -9.826286    12A     -8.025259
      13A     -8.023488    14A     -8.023455    15A     -7.437637
      16A     -7.431253    17A     -7.431200    18A     -3.181148
      19A     -3.177859    20A     -3.177821    21A     -3.169581
      22A     -3.169580    23A     -1.160349    24A     -1.087781
      25A     -1.002483    26A     -0.902918    27A     -0.826396
      28A     -0.676620    29A     -0.646623    30A     -0.610813
      31A     -0.579683    32A     -0.539891    33A     -0.513473
      34A     -0.488339    35A     -0.446726    36A     -0.444939
      37A     -0.403918    38A     -0.401986

  @DF-RHF Final Energy: -3149.12761404182402

   => Energetics <=

    Nuclear Repulsion Energy =            373.6838964076418392
    One-Electron Energy =               -5120.1180190929699165
    Two-Electron Energy =                1597.3065086435044577
    Total Energy =                      -3149.1276140418240175
  Basis Set: (AUG-CC-PVTZ AUX)
    Blend: AUG-CC-PVTZ-RI
    Molecular point group: c1

    Geometry (in Angstrom), charge = 0, multiplicity = 1:

       Center              X                  Y                   Z               Mass
    ------------   -----------------  -----------------  -----------------  -----------------
         BR           1.907342927953    -0.072804896223    -0.045166432987    78.918337600000
         CL          -3.096970072047    -0.569952896223    -0.099730432987    34.968852682000
         C           -0.781183072047     0.904627103777    -0.257749432987    12.000000000000
         C            0.032051927953    -0.107146896223     0.528824567013    12.000000000000
         C           -2.230508072047     0.967236103777     0.199562567013    12.000000000000
         H           -0.343986072047     1.901172103777    -0.127216432987     1.007825032230
         H           -0.736684072047     0.666027103777    -1.324323432987     1.007825032230
         H            0.040788927953     0.115383103777     1.596916567013     1.007825032230
         H           -0.313601072047    -1.127128896223     0.368865567013     1.007825032230
         H           -2.298185972047     1.162791503777     1.220929267013     1.007825032230
         H           -2.769260072047     1.746463103777    -0.341808432987     1.007825032230

  Basis Set: AUG-CC-PVTZ
    Blend: AUG-CC-PVTZ
  Basis Set: (AUG-CC-PVTZ AUX)
    Blend: AUG-CC-PVTZ-JKFIT
	 Reference Energy          =   -3149.1276140418240175 [Eh]
	 Singles Energy            =      -0.0000000000000000 [Eh]
	 Same-Spin Energy          =      -0.2757984708004786 [Eh]
	 Opposite-Spin Energy      =      -0.8323861081231944 [Eh]
	 Correlation Energy        =      -1.1081845789236731 [Eh]
	 Total Energy              =   -3150.2357986207475733 [Eh]

	 ================> DF-SCS-MP2 Energies <==================
	-----------------------------------------------------------
	 SCS Same-Spin Scale       =       0.3333333333333333 [-]
	 SCS Opposite-Spin Scale   =       1.2000000000000000 [-]
	 SCS Same-Spin Energy      =      -0.0919328236001595 [Eh]
	 SCS Opposite-Spin Energy  =      -0.9988633297478332 [Eh]
	 SCS Correlation Energy    =      -1.0907961533479928 [Eh]
	 SCS Total Energy          =   -3150.2184101951720550 [Eh]
	-----------------------------------------------------------

  Dipole Moment: [D]
     X:    -0.9358      Y:     1.6745      Z:     0.7079     Total:     2.0447

*** Psi4 exiting successfully. Buy a developer a beer!
