                               Psi4 1.4a3.dev225

  ==> Input File <==

--------------------------------------------------------------------------
#psi4
#
memory 32 gb

molecule  {
0 1
 Br        2.0414680    -0.1099760    -0.0581920
 Cl       -2.9628450    -0.6071240    -0.1127560
  C       -0.6470580     0.8674560    -0.2707750
  C        0.1661770    -0.1443180     0.5157990
  C       -2.0963830     0.9300650     0.1865370
  H       -0.2098610     1.8640010    -0.1402420
  H       -0.6025590     0.6288560    -1.3373490
  H        0.1765156     0.1190034     1.7796804
  H       -0.1794760    -1.1643000     0.3558400
  H       -2.1673080     1.1350030     1.2569080
  H       -2.6351350     1.7092920    -0.3548340
units angstrom
no_reorient  #important for SAPT in psi4, default
symmetry c1  #important for SAPT in psi4, default
}

set PROPERTIES_ORIGIN ["COM"]
properties('MP2/aug-cc-pvtz', properties = ['dipole'])
--------------------------------------------------------------------------

    Molecular point group: c1
  Charge       = 0
  Multiplicity = 1
  Basis Set: AUG-CC-PVTZ
    Blend: AUG-CC-PVTZ
  Basis Set: (AUG-CC-PVTZ AUX)
    Blend: AUG-CC-PVTZ-JKFIT

    Orbital Energies [Eh]
    ---------------------

    Doubly Occupied:

       1A   -490.015478     2A   -104.834262     3A    -65.155329
       4A    -58.510608     5A    -58.509251     6A    -58.509244
       7A    -11.320131     8A    -11.308436     9A    -11.261413
      10A    -10.558742    11A     -9.828009    12A     -8.025570
      13A     -8.023798    14A     -8.023763    15A     -7.439401
      16A     -7.432927    17A     -7.432879    18A     -3.182956
      19A     -3.179615    20A     -3.179581    21A     -3.171209
      22A     -3.171208    23A     -1.158449    24A     -1.083851
      25A     -1.002454    26A     -0.894608    27A     -0.812127
      28A     -0.670648    29A     -0.638947    30A     -0.597175
      31A     -0.576990    32A     -0.532867    33A     -0.508566
      34A     -0.486803    35A     -0.446919    36A     -0.443761
      37A     -0.403506    38A     -0.400996

  @DF-RHF Final Energy: -3149.10734226985778

   => Energetics <=

    Nuclear Repulsion Energy =            372.3396290739572123
    One-Electron Energy =               -5117.4289889847495942
    Two-Electron Energy =                1595.9820176409346004
    Total Energy =                      -3149.1073422698573268
  Basis Set: (AUG-CC-PVTZ AUX)
    Blend: AUG-CC-PVTZ-RI
    Molecular point group: c1

    Geometry (in Angstrom), charge = 0, multiplicity = 1:

       Center              X                  Y                   Z               Mass
    ------------   -----------------  -----------------  -----------------  -----------------
         BR           1.907353563058    -0.073129178084    -0.046748570278    78.918337600000
         CL          -3.096959436942    -0.570277178084    -0.101312570278    34.968852682000
         C           -0.781172436942     0.904302821916    -0.259331570278    12.000000000000
         C            0.032062563058    -0.107471178084     0.527242429722    12.000000000000
         C           -2.230497436942     0.966911821916     0.197980429722    12.000000000000
         H           -0.343975436942     1.900847821916    -0.128798570278     1.007825032230
         H           -0.736673436942     0.665702821916    -1.325905570278     1.007825032230
         H            0.042401163058     0.155850221916     1.791123829722     1.007825032230
         H           -0.313590436942    -1.127453178084     0.367283429722     1.007825032230
         H           -2.301422436942     1.171849821916     1.268351429722     1.007825032230
         H           -2.769249436942     1.746138821916    -0.343390570278     1.007825032230

  Basis Set: AUG-CC-PVTZ
    Blend: AUG-CC-PVTZ
  Basis Set: (AUG-CC-PVTZ AUX)
    Blend: AUG-CC-PVTZ-JKFIT
	 Reference Energy          =   -3149.1073422698577815 [Eh]
	 Singles Energy            =      -0.0000000000000000 [Eh]
	 Same-Spin Energy          =      -0.2762257941568922 [Eh]
	 Opposite-Spin Energy      =      -0.8346646091959407 [Eh]
	 Correlation Energy        =      -1.1108904033528328 [Eh]
	 Total Energy              =   -3150.2182326732104229 [Eh]

	 ================> DF-SCS-MP2 Energies <==================
	-----------------------------------------------------------
	 SCS Same-Spin Scale       =       0.3333333333333333 [-]
	 SCS Opposite-Spin Scale   =       1.2000000000000000 [-]
	 SCS Same-Spin Energy      =      -0.0920752647189641 [Eh]
	 SCS Opposite-Spin Energy  =      -1.0015975310351288 [Eh]
	 SCS Correlation Energy    =      -1.0936727957540928 [Eh]
	 SCS Total Energy          =   -3150.2010150656119549 [Eh]
	-----------------------------------------------------------

  Dipole Moment: [D]
     X:    -0.8896      Y:     1.6697      Z:     0.6107     Total:     1.9880

*** Psi4 exiting successfully. Buy a developer a beer!
