                               Psi4 1.4a3.dev225

  ==> Input File <==

--------------------------------------------------------------------------
#psi4
#
memory 32 gb

molecule  {
0 1
 Br        2.0414680    -0.1099760    -0.0581920
 Cl       -2.9628450    -0.6071240    -0.1127560
  C       -0.6470580     0.8674560    -0.2707750
  C        0.2139802    -0.1434426     0.5011673
  C       -2.0963830     0.9300650     0.1865370
  H       -0.2098610     1.8640010    -0.1402420
  H       -0.6025590     0.6288560    -1.3373490
  H        0.1749140     0.0782120     1.5838910
  H       -0.1794760    -1.1643000     0.3558400
  H       -2.1673080     1.1350030     1.2569080
  H       -2.6351350     1.7092920    -0.3548340
units angstrom
no_reorient  #important for SAPT in psi4, default
symmetry c1  #important for SAPT in psi4, default
}

set PROPERTIES_ORIGIN ["COM"]
properties('MP2/aug-cc-pvtz', properties = ['dipole'])
--------------------------------------------------------------------------

    Molecular point group: c1
  Charge       = 0
  Multiplicity = 1
  Basis Set: AUG-CC-PVTZ
    Blend: AUG-CC-PVTZ
  Basis Set: (AUG-CC-PVTZ AUX)
    Blend: AUG-CC-PVTZ-JKFIT

    Orbital Energies [Eh]
    ---------------------

    Doubly Occupied:

       1A   -490.017532     2A   -104.833241     3A    -65.157580
       4A    -58.512835     5A    -58.511506     6A    -58.511495
       7A    -11.307966     8A    -11.297691     9A    -11.258665
      10A    -10.557719    11A     -9.830561    12A     -8.024547
      13A     -8.022774    14A     -8.022742    15A     -7.442072
      16A     -7.435510    17A     -7.435446    18A     -3.185663
      19A     -3.182203    20A     -3.182153    21A     -3.173765
      22A     -3.173764    23A     -1.156855    24A     -1.090627
      25A     -1.004770    26A     -0.896975    27A     -0.818917
      28A     -0.669592    29A     -0.641441    30A     -0.606866
      31A     -0.575398    32A     -0.533000    33A     -0.511119
      34A     -0.500520    35A     -0.446766    36A     -0.442778
      37A     -0.405078    38A     -0.402841

  @DF-RHF Final Energy: -3149.12656533572681

   => Energetics <=

    Nuclear Repulsion Energy =            374.3029452849974632
    One-Electron Energy =               -5121.2970726065323106
    Two-Electron Energy =                1597.8675619858072423
    Total Energy =                      -3149.1265653357272640
  Basis Set: (AUG-CC-PVTZ AUX)
    Blend: AUG-CC-PVTZ-RI
    Molecular point group: c1

    Geometry (in Angstrom), charge = 0, multiplicity = 1:

       Center              X                  Y                   Z               Mass
    ------------   -----------------  -----------------  -----------------  -----------------
         BR           1.903685192132    -0.072932904234    -0.044357164155    78.918337600000
         CL          -3.100627807868    -0.570080904234    -0.098921164155    34.968852682000
         C           -0.784840807868     0.904499095766    -0.256940164155    12.000000000000
         C            0.076197392132    -0.106399504234     0.515002135845    12.000000000000
         C           -2.234165807868     0.967108095766     0.200371835845    12.000000000000
         H           -0.347643807868     1.901044095766    -0.126407164155     1.007825032230
         H           -0.740341807868     0.665899095766    -1.323514164155     1.007825032230
         H            0.037131192132     0.115255095766     1.597725835845     1.007825032230
         H           -0.317258807868    -1.127256904234     0.369674835845     1.007825032230
         H           -2.305090807868     1.172046095766     1.270742835845     1.007825032230
         H           -2.772917807868     1.746335095766    -0.340999164155     1.007825032230

  Basis Set: AUG-CC-PVTZ
    Blend: AUG-CC-PVTZ
  Basis Set: (AUG-CC-PVTZ AUX)
    Blend: AUG-CC-PVTZ-JKFIT
	 Reference Energy          =   -3149.1265653357268093 [Eh]
	 Singles Energy            =      -0.0000000000000000 [Eh]
	 Same-Spin Energy          =      -0.2762493775240634 [Eh]
	 Opposite-Spin Energy      =      -0.8333046785090726 [Eh]
	 Correlation Energy        =      -1.1095540560331361 [Eh]
	 Total Energy              =   -3150.2361193917599849 [Eh]

	 ================> DF-SCS-MP2 Energies <==================
	-----------------------------------------------------------
	 SCS Same-Spin Scale       =       0.3333333333333333 [-]
	 SCS Opposite-Spin Scale   =       1.2000000000000000 [-]
	 SCS Same-Spin Energy      =      -0.0920831258413544 [Eh]
	 SCS Opposite-Spin Energy  =      -0.9999656142108871 [Eh]
	 SCS Correlation Energy    =      -1.0920487400522416 [Eh]
	 SCS Total Energy          =   -3150.2186140757789872 [Eh]
	-----------------------------------------------------------

  Dipole Moment: [D]
     X:    -0.7784      Y:     1.6449      Z:     0.6712     Total:     1.9396

*** Psi4 exiting successfully. Buy a developer a beer!
