                               Psi4 1.4a3.dev225

  ==> Input File <==

--------------------------------------------------------------------------
#psi4
#
memory 32 gb

molecule  {
0 1
 Br        2.0414680    -0.1099760    -0.0581920
 Cl       -2.9628450    -0.6071240    -0.1127560
  C       -0.6470580     0.8674560    -0.2707750
  C        0.1661770    -0.1443180     0.5157990
  C       -2.0706504     1.0837209     0.2193386
  H       -0.2098610     1.8640010    -0.1402420
  H       -0.6025590     0.6288560    -1.3373490
  H        0.1749140     0.0782120     1.5838910
  H       -0.1794760    -1.1643000     0.3558400
  H       -2.1673080     1.1350030     1.2569080
  H       -2.6351350     1.7092920    -0.3548340
units angstrom
no_reorient  #important for SAPT in psi4, default
symmetry c1  #important for SAPT in psi4, default
}

set PROPERTIES_ORIGIN ["COM"]
properties('MP2/aug-cc-pvtz', properties = ['dipole'])
--------------------------------------------------------------------------

    Molecular point group: c1
  Charge       = 0
  Multiplicity = 1
  Basis Set: AUG-CC-PVTZ
    Blend: AUG-CC-PVTZ
  Basis Set: (AUG-CC-PVTZ AUX)
    Blend: AUG-CC-PVTZ-JKFIT

    Orbital Energies [Eh]
    ---------------------

    Doubly Occupied:

       1A   -490.016729     2A   -104.817462     3A    -65.156595
       4A    -58.511870     5A    -58.510523     6A    -58.510512
       7A    -11.316677     8A    -11.303004     9A    -11.265907
      10A    -10.541055    11A     -9.829269    12A     -8.007634
      13A     -8.006170    14A     -8.006151    15A     -7.440657
      16A     -7.434210    17A     -7.434142    18A     -3.184193
      19A     -3.180877    20A     -3.180819    21A     -3.172495
      22A     -3.172494    23A     -1.142797    24A     -1.077939
      25A     -1.004792    26A     -0.914412    27A     -0.833039
      28A     -0.691863    29A     -0.658100    30A     -0.615579
      31A     -0.572776    32A     -0.545913    33A     -0.496297
      34A     -0.477425    35A     -0.440828    36A     -0.436810
      37A     -0.407176    38A     -0.404773

  @DF-RHF Final Energy: -3149.11540280717236

   => Energetics <=

    Nuclear Repulsion Energy =            371.1870148969017009
    One-Electron Energy =               -5115.1649071290576103
    Two-Electron Energy =                1594.8624894249837780
    Total Energy =                      -3149.1154028071719040
  Basis Set: (AUG-CC-PVTZ AUX)
    Blend: AUG-CC-PVTZ-RI
    Molecular point group: c1

    Geometry (in Angstrom), charge = 0, multiplicity = 1:

       Center              X                  Y                   Z               Mass
    ------------   -----------------  -----------------  -----------------  -----------------
         BR           1.905383647641    -0.084690214047    -0.048007420592    78.918337600000
         CL          -3.098929352359    -0.581838214047    -0.102571420592    34.968852682000
         C           -0.783142352359     0.892741785953    -0.260590420592    12.000000000000
         C            0.030092647641    -0.119032214047     0.525983579408    12.000000000000
         C           -2.206734752359     1.109006685953     0.229523179408    12.000000000000
         H           -0.345945352359     1.889286785953    -0.130057420592     1.007825032230
         H           -0.738643352359     0.654141785953    -1.327164420592     1.007825032230
         H            0.038829647641     0.103497785953     1.594075579408     1.007825032230
         H           -0.315560352359    -1.139014214047     0.366024579408     1.007825032230
         H           -2.303392352359     1.160288785953     1.267092579408     1.007825032230
         H           -2.771219352359     1.734577785953    -0.344649420592     1.007825032230

  Basis Set: AUG-CC-PVTZ
    Blend: AUG-CC-PVTZ
  Basis Set: (AUG-CC-PVTZ AUX)
    Blend: AUG-CC-PVTZ-JKFIT
	 Reference Energy          =   -3149.1154028071723587 [Eh]
	 Singles Energy            =      -0.0000000000000000 [Eh]
	 Same-Spin Energy          =      -0.2748741669815554 [Eh]
	 Opposite-Spin Energy      =      -0.8319248249231244 [Eh]
	 Correlation Energy        =      -1.1067989919046797 [Eh]
	 Total Energy              =   -3150.2222017990770837 [Eh]

	 ================> DF-SCS-MP2 Energies <==================
	-----------------------------------------------------------
	 SCS Same-Spin Scale       =       0.3333333333333333 [-]
	 SCS Opposite-Spin Scale   =       1.2000000000000000 [-]
	 SCS Same-Spin Energy      =      -0.0916247223271851 [Eh]
	 SCS Opposite-Spin Energy  =      -0.9983097899077492 [Eh]
	 SCS Correlation Energy    =      -1.0899345122349344 [Eh]
	 SCS Total Energy          =   -3150.2053373194071355 [Eh]
	-----------------------------------------------------------

  Dipole Moment: [D]
     X:    -0.5514      Y:     2.0808      Z:     0.7701     Total:     2.2862

*** Psi4 exiting successfully. Buy a developer a beer!
