                               Psi4 1.4a3.dev225

  ==> Input File <==

--------------------------------------------------------------------------
#psi4
#
memory 32 gb

molecule  {
0 1
 Br        2.0414680    -0.1099760    -0.0581920
 Cl       -2.9886985    -0.5946280    -0.1004597
  C       -0.6470580     0.8674560    -0.2707750
  C        0.1661770    -0.1443180     0.5157990
  C       -2.0963830     0.9300650     0.1865370
  H       -0.2098610     1.8640010    -0.1402420
  H       -0.6025590     0.6288560    -1.3373490
  H        0.1749140     0.0782120     1.5838910
  H       -0.1794760    -1.1643000     0.3558400
  H       -2.1673080     1.1350030     1.2569080
  H       -2.6351350     1.7092920    -0.3548340
units angstrom
no_reorient  #important for SAPT in psi4, default
symmetry c1  #important for SAPT in psi4, default
}

set PROPERTIES_ORIGIN ["COM"]
properties('MP2/aug-cc-pvtz', properties = ['dipole'])
--------------------------------------------------------------------------

    Molecular point group: c1
  Charge       = 0
  Multiplicity = 1
  Basis Set: AUG-CC-PVTZ
    Blend: AUG-CC-PVTZ
  Basis Set: (AUG-CC-PVTZ AUX)
    Blend: AUG-CC-PVTZ-JKFIT

    Orbital Energies [Eh]
    ---------------------

    Doubly Occupied:

       1A   -490.013892     2A   -104.834300     3A    -65.153782
       4A    -58.509046     5A    -58.507715     6A    -58.507708
       7A    -11.308517     8A    -11.299660     9A    -11.259931
      10A    -10.558762    11A     -9.826476    12A     -8.025591
      13A     -8.023816    14A     -8.023782    15A     -7.437827
      16A     -7.431443    17A     -7.431390    18A     -3.181337
      19A     -3.178049    20A     -3.178010    21A     -3.169771
      22A     -3.169770    23A     -1.158673    24A     -1.088374
      25A     -1.002143    26A     -0.899769    27A     -0.823095
      28A     -0.674912    29A     -0.644435    30A     -0.608224
      31A     -0.579236    32A     -0.539695    33A     -0.512884
      34A     -0.488690    35A     -0.446784    36A     -0.443593
      37A     -0.404086    38A     -0.402257

  @DF-RHF Final Energy: -3149.12847604490298

   => Energetics <=

    Nuclear Repulsion Energy =            372.8587505513208953
    One-Electron Energy =               -5118.4795988471360033
    Two-Electron Energy =                1596.4923722509124673
    Total Energy =                      -3149.1284760449029818
  Basis Set: (AUG-CC-PVTZ AUX)
    Blend: AUG-CC-PVTZ-RI
    Molecular point group: c1

    Geometry (in Angstrom), charge = 0, multiplicity = 1:

       Center              X                  Y                   Z               Mass
    ------------   -----------------  -----------------  -----------------  -----------------
         BR           1.913161664880    -0.075667815151    -0.048240649204    78.918337600000
         CL          -3.117004835120    -0.560319815151    -0.090508349204    34.968852682000
         C           -0.775364335120     0.901764184849    -0.260823649204    12.000000000000
         C            0.037870664880    -0.110009815151     0.525750350796    12.000000000000
         C           -2.224689335120     0.964373184849     0.196488350796    12.000000000000
         H           -0.338167335120     1.898309184849    -0.130290649204     1.007825032230
         H           -0.730865335120     0.663164184849    -1.327397649204     1.007825032230
         H            0.046607664880     0.112520184849     1.593842350796     1.007825032230
         H           -0.307782335120    -1.129991815151     0.365791350796     1.007825032230
         H           -2.295614335120     1.169311184849     1.266859350796     1.007825032230
         H           -2.763441335120     1.743600184849    -0.344882649204     1.007825032230

  Basis Set: AUG-CC-PVTZ
    Blend: AUG-CC-PVTZ
  Basis Set: (AUG-CC-PVTZ AUX)
    Blend: AUG-CC-PVTZ-JKFIT
	 Reference Energy          =   -3149.1284760449029818 [Eh]
	 Singles Energy            =      -0.0000000000000000 [Eh]
	 Same-Spin Energy          =      -0.2757993965598975 [Eh]
	 Opposite-Spin Energy      =      -0.8326340102095124 [Eh]
	 Correlation Energy        =      -1.1084334067694099 [Eh]
	 Total Energy              =   -3150.2369094516725454 [Eh]

	 ================> DF-SCS-MP2 Energies <==================
	-----------------------------------------------------------
	 SCS Same-Spin Scale       =       0.3333333333333333 [-]
	 SCS Opposite-Spin Scale   =       1.2000000000000000 [-]
	 SCS Same-Spin Energy      =      -0.0919331321866325 [Eh]
	 SCS Opposite-Spin Energy  =      -0.9991608122514148 [Eh]
	 SCS Correlation Energy    =      -1.0910939444380474 [Eh]
	 SCS Total Energy          =   -3150.2195699893409255 [Eh]
	-----------------------------------------------------------

  Dipole Moment: [D]
     X:    -0.9074      Y:     1.6539      Z:     0.6860     Total:     2.0073

*** Psi4 exiting successfully. Buy a developer a beer!
