                               Psi4 1.4a3.dev225

  ==> Input File <==

--------------------------------------------------------------------------
#psi4
#
memory 32 gb

molecule  {
0 1
 Br        2.0414680    -0.1099760    -0.0581920
 Cl       -3.0142801    -0.5816675    -0.0880760
  C       -0.6470580     0.8674560    -0.2707750
  C        0.1661770    -0.1443180     0.5157990
  C       -2.0963830     0.9300650     0.1865370
  H       -0.2098610     1.8640010    -0.1402420
  H       -0.6025590     0.6288560    -1.3373490
  H        0.1749140     0.0782120     1.5838910
  H       -0.1794760    -1.1643000     0.3558400
  H       -2.1673080     1.1350030     1.2569080
  H       -2.6351350     1.7092920    -0.3548340
units angstrom
no_reorient  #important for SAPT in psi4, default
symmetry c1  #important for SAPT in psi4, default
}

set PROPERTIES_ORIGIN ["COM"]
properties('MP2/aug-cc-pvtz', properties = ['dipole'])
--------------------------------------------------------------------------

    Molecular point group: c1
  Charge       = 0
  Multiplicity = 1
  Basis Set: AUG-CC-PVTZ
    Blend: AUG-CC-PVTZ
  Basis Set: (AUG-CC-PVTZ AUX)
    Blend: AUG-CC-PVTZ-JKFIT

    Orbital Energies [Eh]
    ---------------------

    Doubly Occupied:

       1A   -490.014086     2A   -104.834258     3A    -65.153975
       4A    -58.509240     5A    -58.507908     6A    -58.507901
       7A    -11.308377     8A    -11.299934     9A    -11.260356
      10A    -10.558703    11A     -9.826669    12A     -8.025534
      13A     -8.023757    14A     -8.023721    15A     -7.438021
      16A     -7.431635    17A     -7.431583    18A     -3.181532
      19A     -3.178242    20A     -3.178204    21A     -3.169963
      22A     -3.169962    23A     -1.158272    24A     -1.088880
      25A     -1.002464    26A     -0.899640    27A     -0.823201
      28A     -0.675015    29A     -0.644335    30A     -0.608341
      31A     -0.579177    32A     -0.540082    33A     -0.512917
      34A     -0.489077    35A     -0.446580    36A     -0.443267
      37A     -0.404253    38A     -0.402496

  @DF-RHF Final Energy: -3149.12840435319049

   => Energetics <=

    Nuclear Repulsion Energy =            372.3061798230378372
    One-Electron Energy =               -5117.3660559110621762
    Two-Electron Energy =                1595.9314717348333943
    Total Energy =                      -3149.1284043531904899
  Basis Set: (AUG-CC-PVTZ AUX)
    Blend: AUG-CC-PVTZ-RI
    Molecular point group: c1

    Geometry (in Angstrom), charge = 0, multiplicity = 1:

       Center              X                  Y                   Z               Mass
    ------------   -----------------  -----------------  -----------------  -----------------
         BR           1.918898440669    -0.078574258947    -0.051017743301    78.918337600000
         CL          -3.136849659331    -0.550265758947    -0.080901743301    34.968852682000
         C           -0.769627559331     0.898857741053    -0.263600743301    12.000000000000
         C            0.043607440669    -0.112916258947     0.522973256699    12.000000000000
         C           -2.218952559331     0.961466741053     0.193711256699    12.000000000000
         H           -0.332430559331     1.895402741053    -0.133067743301     1.007825032230
         H           -0.725128559331     0.660257741053    -1.330174743301     1.007825032230
         H            0.052344440669     0.109613741053     1.591065256699     1.007825032230
         H           -0.302045559331    -1.132898258947     0.363014256699     1.007825032230
         H           -2.289877559331     1.166404741053     1.264082256699     1.007825032230
         H           -2.757704559331     1.740693741053    -0.347659743301     1.007825032230

  Basis Set: AUG-CC-PVTZ
    Blend: AUG-CC-PVTZ
  Basis Set: (AUG-CC-PVTZ AUX)
    Blend: AUG-CC-PVTZ-JKFIT
	 Reference Energy          =   -3149.1284043531904899 [Eh]
	 Singles Energy            =      -0.0000000000000000 [Eh]
	 Same-Spin Energy          =      -0.2757394269438636 [Eh]
	 Opposite-Spin Energy      =      -0.8325644081182981 [Eh]
	 Correlation Energy        =      -1.1083038350621617 [Eh]
	 Total Energy              =   -3150.2367081882525781 [Eh]

	 ================> DF-SCS-MP2 Energies <==================
	-----------------------------------------------------------
	 SCS Same-Spin Scale       =       0.3333333333333333 [-]
	 SCS Opposite-Spin Scale   =       1.2000000000000000 [-]
	 SCS Same-Spin Energy      =      -0.0919131423146212 [Eh]
	 SCS Opposite-Spin Energy  =      -0.9990772897419578 [Eh]
	 SCS Correlation Energy    =      -1.0909904320565789 [Eh]
	 SCS Total Energy          =   -3150.2193947852470046 [Eh]
	-----------------------------------------------------------

  Dipole Moment: [D]
     X:    -0.8778      Y:     1.6454      Z:     0.6759     Total:     1.9836

*** Psi4 exiting successfully. Buy a developer a beer!
