                               Psi4 1.4a3.dev225

  ==> Input File <==

--------------------------------------------------------------------------
#psi4
#
memory 32 gb

molecule  {
0 1
 Br        2.0414680    -0.1099760    -0.0581920
 Cl       -2.9628450    -0.6071240    -0.1127560
  C       -0.6470580     0.8674560    -0.2707750
  C        0.1661770    -0.1443180     0.5157990
  C       -2.0963830     0.9300650     0.1865370
  H       -0.2098610     1.8640010    -0.1402420
  H       -0.6025590     0.6288560    -1.3373490
  H        0.1749140     0.0782120     1.5838910
  H       -0.1794760    -1.1643000     0.3558400
  H       -2.1673080     1.1350030     1.2569080
  H       -2.6252597     1.6950089    -0.3449107
units angstrom
no_reorient  #important for SAPT in psi4, default
symmetry c1  #important for SAPT in psi4, default
}

set PROPERTIES_ORIGIN ["COM"]
properties('MP2/aug-cc-pvtz', properties = ['dipole'])
--------------------------------------------------------------------------

    Molecular point group: c1
  Charge       = 0
  Multiplicity = 1
  Basis Set: AUG-CC-PVTZ
    Blend: AUG-CC-PVTZ
  Basis Set: (AUG-CC-PVTZ AUX)
    Blend: AUG-CC-PVTZ-JKFIT

    Orbital Energies [Eh]
    ---------------------

    Doubly Occupied:

       1A   -490.013624     2A   -104.834195     3A    -65.153514
       4A    -58.508778     5A    -58.507448     6A    -58.507441
       7A    -11.306417     8A    -11.299318     9A    -11.259417
      10A    -10.558683    11A     -9.826209    12A     -8.025512
      13A     -8.023738    14A     -8.023706    15A     -7.437559
      16A     -7.431178    17A     -7.431126    18A     -3.181067
      19A     -3.177781    20A     -3.177742    21A     -3.169508
      22A     -3.169508    23A     -1.159556    24A     -1.087803
      25A     -1.002074    26A     -0.901371    27A     -0.823634
      28A     -0.675175    29A     -0.647197    30A     -0.608148
      31A     -0.579244    32A     -0.539861    33A     -0.512929
      34A     -0.488261    35A     -0.447325    36A     -0.443956
      37A     -0.403865    38A     -0.401990

  @DF-RHF Final Energy: -3149.12854211225658

   => Energetics <=

    Nuclear Repulsion Energy =            373.5326823865466963
    One-Electron Energy =               -5119.8307295511194752
    Two-Electron Energy =                1597.1695050523157988
    Total Energy =                      -3149.1285421122565822
  Basis Set: (AUG-CC-PVTZ AUX)
    Blend: AUG-CC-PVTZ-RI
    Molecular point group: c1

    Geometry (in Angstrom), charge = 0, multiplicity = 1:

       Center              X                  Y                   Z               Mass
    ------------   -----------------  -----------------  -----------------  -----------------
         BR           1.907300088932    -0.072773223579    -0.045547290638    78.918337600000
         CL          -3.097012911068    -0.569921223579    -0.100111290638    34.968852682000
         C           -0.781225911068     0.904658776421    -0.258130290638    12.000000000000
         C            0.032009088932    -0.107115223579     0.528443709362    12.000000000000
         C           -2.230550911068     0.967267776421     0.199181709362    12.000000000000
         H           -0.344028911068     1.901203776421    -0.127597290638     1.007825032230
         H           -0.736726911068     0.666058776421    -1.324704290638     1.007825032230
         H            0.040746088932     0.115414776421     1.596535709362     1.007825032230
         H           -0.313643911068    -1.127097223579     0.368484709362     1.007825032230
         H           -2.301475911068     1.172205776421     1.269552709362     1.007825032230
         H           -2.759427611068     1.732211676421    -0.332265990638     1.007825032230

  Basis Set: AUG-CC-PVTZ
    Blend: AUG-CC-PVTZ
  Basis Set: (AUG-CC-PVTZ AUX)
    Blend: AUG-CC-PVTZ-JKFIT
	 Reference Energy          =   -3149.1285421122565822 [Eh]
	 Singles Energy            =      -0.0000000000000000 [Eh]
	 Same-Spin Energy          =      -0.2758375097660813 [Eh]
	 Opposite-Spin Energy      =      -0.8325683058772869 [Eh]
	 Correlation Energy        =      -1.1084058156433683 [Eh]
	 Total Energy              =   -3150.2369479279000188 [Eh]

	 ================> DF-SCS-MP2 Energies <==================
	-----------------------------------------------------------
	 SCS Same-Spin Scale       =       0.3333333333333333 [-]
	 SCS Opposite-Spin Scale   =       1.2000000000000000 [-]
	 SCS Same-Spin Energy      =      -0.0919458365886938 [Eh]
	 SCS Opposite-Spin Energy  =      -0.9990819670527442 [Eh]
	 SCS Correlation Energy    =      -1.0910278036414380 [Eh]
	 SCS Total Energy          =   -3150.2195699158978641 [Eh]
	-----------------------------------------------------------

  Dipole Moment: [D]
     X:    -0.9402      Y:     1.6688      Z:     0.6964     Total:     2.0381

*** Psi4 exiting successfully. Buy a developer a beer!
