                               Psi4 1.4a3.dev225

  ==> Input File <==

--------------------------------------------------------------------------
#psi4
#
memory 32 gb

molecule  {
0 1
 Br        2.0414680    -0.1099760    -0.0581920
 Cl       -2.9628450    -0.6071240    -0.1127560
  C       -0.6470580     0.8674560    -0.2707750
  C        0.1661770    -0.1443180     0.5157990
  C       -2.0963830     0.9300650     0.1865370
  H       -0.2098610     1.8640010    -0.1402420
  H       -0.6025590     0.6288560    -1.3373490
  H        0.1749140     0.0782120     1.5838910
  H       -0.1794760    -1.1643000     0.3558400
  H       -2.1608137     1.1162378     1.1588994
  H       -2.6351350     1.7092920    -0.3548340
units angstrom
no_reorient  #important for SAPT in psi4, default
symmetry c1  #important for SAPT in psi4, default
}

set PROPERTIES_ORIGIN ["COM"]
properties('MP2/aug-cc-pvtz', properties = ['dipole'])
--------------------------------------------------------------------------

    Molecular point group: c1
  Charge       = 0
  Multiplicity = 1
  Basis Set: AUG-CC-PVTZ
    Blend: AUG-CC-PVTZ
  Basis Set: (AUG-CC-PVTZ AUX)
    Blend: AUG-CC-PVTZ-JKFIT

    Orbital Energies [Eh]
    ---------------------

    Doubly Occupied:

       1A   -490.013722     2A   -104.833618     3A    -65.153610
       4A    -58.508875     5A    -58.507543     6A    -58.507536
       7A    -11.299409     8A    -11.297050     9A    -11.258838
      10A    -10.558128    11A     -9.826302    12A     -8.024958
      13A     -8.023191    14A     -8.023158    15A     -7.437654
      16A     -7.431267    17A     -7.431216    18A     -3.181165
      19A     -3.177875    20A     -3.177838    21A     -3.169595
      22A     -3.169594    23A     -1.161951    24A     -1.087738
      25A     -1.003389    26A     -0.906688    27A     -0.830001
      28A     -0.678854    29A     -0.648811    30A     -0.613143
      31A     -0.580004    32A     -0.540435    33A     -0.514038
      34A     -0.488394    35A     -0.446564    36A     -0.445868
      37A     -0.403929    38A     -0.401976

  @DF-RHF Final Energy: -3149.12267943001598

   => Energetics <=

    Nuclear Repulsion Energy =            373.9586779799587930
    One-Electron Energy =               -5120.6348662705677270
    Two-Electron Energy =                1597.5535088605920464
    Total Energy =                      -3149.1226794300164329
  Basis Set: (AUG-CC-PVTZ AUX)
    Blend: AUG-CC-PVTZ-RI
    Molecular point group: c1

    Geometry (in Angstrom), charge = 0, multiplicity = 1:

       Center              X                  Y                   Z               Mass
    ------------   -----------------  -----------------  -----------------  -----------------
         BR           1.907321940827    -0.072744255115    -0.044849711068    78.918337600000
         CL          -3.096991059173    -0.569892255115    -0.099413711068    34.968852682000
         C           -0.781204059173     0.904687744885    -0.257432711068    12.000000000000
         C            0.032030940827    -0.107086255115     0.529141288932    12.000000000000
         C           -2.230529059173     0.967296744885     0.199879288932    12.000000000000
         H           -0.344007059173     1.901232744885    -0.126899711068     1.007825032230
         H           -0.736705059173     0.666087744885    -1.324006711068     1.007825032230
         H            0.040767940827     0.115443744885     1.597233288932     1.007825032230
         H           -0.313622059173    -1.127068255115     0.369182288932     1.007825032230
         H           -2.294959759173     1.153469544885     1.172241688932     1.007825032230
         H           -2.769281059173     1.746523744885    -0.341491711068     1.007825032230

  Basis Set: AUG-CC-PVTZ
    Blend: AUG-CC-PVTZ
  Basis Set: (AUG-CC-PVTZ AUX)
    Blend: AUG-CC-PVTZ-JKFIT
	 Reference Energy          =   -3149.1226794300159781 [Eh]
	 Singles Energy            =      -0.0000000000000000 [Eh]
	 Same-Spin Energy          =      -0.2757477540871259 [Eh]
	 Opposite-Spin Energy      =      -0.8321493660286752 [Eh]
	 Correlation Energy        =      -1.1078971201158010 [Eh]
	 Total Energy              =   -3150.2305765501319001 [Eh]

	 ================> DF-SCS-MP2 Energies <==================
	-----------------------------------------------------------
	 SCS Same-Spin Scale       =       0.3333333333333333 [-]
	 SCS Opposite-Spin Scale   =       1.2000000000000000 [-]
	 SCS Same-Spin Energy      =      -0.0919159180290419 [Eh]
	 SCS Opposite-Spin Energy  =      -0.9985792392344102 [Eh]
	 SCS Correlation Energy    =      -1.0904951572634520 [Eh]
	 SCS Total Energy          =   -3150.2131745872793545 [Eh]
	-----------------------------------------------------------

  Dipole Moment: [D]
     X:    -0.9342      Y:     1.6847      Z:     0.7159     Total:     2.0551

*** Psi4 exiting successfully. Buy a developer a beer!
