                               Psi4 1.4a3.dev225

  ==> Input File <==

--------------------------------------------------------------------------
#psi4
#
memory 32 gb

molecule  {
0 1
 Br        2.0414680    -0.1099760    -0.0581920
 Cl       -2.9628450    -0.6071240    -0.1127560
  C       -0.6470580     0.8674560    -0.2707750
  C        0.1661770    -0.1443180     0.5157990
  C       -2.0963830     0.9300650     0.1865370
  H       -0.2098610     1.8640010    -0.1402420
  H       -0.6025590     0.6288560    -1.3373490
  H        0.1749140     0.0782120     1.5838910
  H       -0.1794760    -1.1643000     0.3558400
  H       -2.1673080     1.1350030     1.2569080
  H       -2.6845113     1.7807077    -0.4044503
units angstrom
no_reorient  #important for SAPT in psi4, default
symmetry c1  #important for SAPT in psi4, default
}

set PROPERTIES_ORIGIN ["COM"]
properties('MP2/aug-cc-pvtz', properties = ['dipole'])
--------------------------------------------------------------------------

    Molecular point group: c1
  Charge       = 0
  Multiplicity = 1
  Basis Set: AUG-CC-PVTZ
    Blend: AUG-CC-PVTZ
  Basis Set: (AUG-CC-PVTZ AUX)
    Blend: AUG-CC-PVTZ-JKFIT

    Orbital Energies [Eh]
    ---------------------

    Doubly Occupied:

       1A   -490.014128     2A   -104.835261     3A    -65.154012
       4A    -58.509279     5A    -58.507945     6A    -58.507937
       7A    -11.319399     8A    -11.299793     9A    -11.260077
      10A    -10.559690    11A     -9.826702    12A     -8.026514
      13A     -8.024733    14A     -8.024703    15A     -7.438060
      16A     -7.431663    17A     -7.431610    18A     -3.181574
      19A     -3.178280    20A     -3.178240    21A     -3.169985
      22A     -3.169984    23A     -1.157529    24A     -1.088252
      25A     -1.000968    26A     -0.894117    27A     -0.820244
      28A     -0.673960    29A     -0.631520    30A     -0.607860
      31A     -0.579627    32A     -0.536243    33A     -0.512397
      34A     -0.488527    35A     -0.446116    36A     -0.442454
      37A     -0.404236    38A     -0.402137

  @DF-RHF Final Energy: -3149.12140329390741

   => Energetics <=

    Nuclear Repulsion Energy =            372.9135429130741386
    One-Electron Energy =               -5118.5983821615072884
    Two-Electron Energy =                1596.5634359545260850
    Total Energy =                      -3149.1214032939074059
  Basis Set: (AUG-CC-PVTZ AUX)
    Blend: AUG-CC-PVTZ-RI
    Molecular point group: c1

    Geometry (in Angstrom), charge = 0, multiplicity = 1:

       Center              X                  Y                   Z               Mass
    ------------   -----------------  -----------------  -----------------  -----------------
         BR           1.907683040641    -0.073327107389    -0.045162477542    78.918337600000
         CL          -3.096629959359    -0.570475107389    -0.099726477542    34.968852682000
         C           -0.780842959359     0.904104892611    -0.257745477542    12.000000000000
         C            0.032392040641    -0.107669107389     0.528828522458    12.000000000000
         C           -2.230167959359     0.966713892611     0.199566522458    12.000000000000
         H           -0.343645959359     1.900649892611    -0.127212477542     1.007825032230
         H           -0.736343959359     0.665504892611    -1.324319477542     1.007825032230
         H            0.041129040641     0.114860892611     1.596920522458     1.007825032230
         H           -0.313260959359    -1.127651107389     0.368869522458     1.007825032230
         H           -2.301092959359     1.171651892611     1.269937522458     1.007825032230
         H           -2.818296259359     1.817356592611    -0.391420777542     1.007825032230

  Basis Set: AUG-CC-PVTZ
    Blend: AUG-CC-PVTZ
  Basis Set: (AUG-CC-PVTZ AUX)
    Blend: AUG-CC-PVTZ-JKFIT
	 Reference Energy          =   -3149.1214032939074059 [Eh]
	 Singles Energy            =      -0.0000000000000000 [Eh]
	 Same-Spin Energy          =      -0.2760376826378754 [Eh]
	 Opposite-Spin Energy      =      -0.8336169180453632 [Eh]
	 Correlation Energy        =      -1.1096546006832386 [Eh]
	 Total Energy              =   -3150.2310578945907764 [Eh]

	 ================> DF-SCS-MP2 Energies <==================
	-----------------------------------------------------------
	 SCS Same-Spin Scale       =       0.3333333333333333 [-]
	 SCS Opposite-Spin Scale   =       1.2000000000000000 [-]
	 SCS Same-Spin Energy      =      -0.0920125608792918 [Eh]
	 SCS Opposite-Spin Energy  =      -1.0003403016544359 [Eh]
	 SCS Correlation Energy    =      -1.0923528625337278 [Eh]
	 SCS Total Energy          =   -3150.2137561564409225 [Eh]
	-----------------------------------------------------------

  Dipole Moment: [D]
     X:    -0.9163      Y:     1.6162      Z:     0.6974     Total:     1.9845

*** Psi4 exiting successfully. Buy a developer a beer!
