                               Psi4 1.4a3.dev225

  ==> Input File <==

--------------------------------------------------------------------------
#psi4
#
memory 32 gb

molecule  {
0 1
 Br        2.0414680    -0.1099760    -0.0581920
 Cl       -2.9628450    -0.6071240    -0.1127560
  C       -0.6470580     0.8674560    -0.2707750
  C        0.1661770    -0.1443180     0.5157990
  C       -2.0963830     0.9300650     0.1865370
  H       -0.2098610     1.8640010    -0.1402420
  H       -0.6025590     0.6288560    -1.3373490
  H        0.1749140     0.0782120     1.5838910
  H       -0.1794760    -1.1643000     0.3558400
  H       -2.1660091     1.1312500     1.2373063
  H       -2.6351350     1.7092920    -0.3548340
units angstrom
no_reorient  #important for SAPT in psi4, default
symmetry c1  #important for SAPT in psi4, default
}

set PROPERTIES_ORIGIN ["COM"]
properties('MP2/aug-cc-pvtz', properties = ['dipole'])
--------------------------------------------------------------------------

    Molecular point group: c1
  Charge       = 0
  Multiplicity = 1
  Basis Set: AUG-CC-PVTZ
    Blend: AUG-CC-PVTZ
  Basis Set: (AUG-CC-PVTZ AUX)
    Blend: AUG-CC-PVTZ-JKFIT

    Orbital Energies [Eh]
    ---------------------

    Doubly Occupied:

       1A   -490.013697     2A   -104.834163     3A    -65.153587
       4A    -58.508851     5A    -58.507520     6A    -58.507513
       7A    -11.306373     8A    -11.299382     9A    -11.259355
      10A    -10.558652    11A     -9.826280    12A     -8.025480
      13A     -8.023707    14A     -8.023675    15A     -7.437631
      16A     -7.431248    17A     -7.431195    18A     -3.181141
      19A     -3.177853    20A     -3.177814    21A     -3.169576
      22A     -3.169576    23A     -1.159563    24A     -1.087823
      25A     -1.002056    26A     -0.901027    27A     -0.824321
      28A     -0.675487    29A     -0.645354    30A     -0.609240
      31A     -0.579456    32A     -0.539543    33A     -0.513105
      34A     -0.488312    35A     -0.446867    36A     -0.444321
      37A     -0.403915    38A     -0.401999

  @DF-RHF Final Energy: -3149.12852732333067

   => Energetics <=

    Nuclear Repulsion Energy =            373.5263414221057019
    One-Electron Energy =               -5119.8164200663295560
    Two-Electron Energy =                1597.1615513208932953
    Total Energy =                      -3149.1285273233306725
  Basis Set: (AUG-CC-PVTZ AUX)
    Blend: AUG-CC-PVTZ-RI
    Molecular point group: c1

    Geometry (in Angstrom), charge = 0, multiplicity = 1:

       Center              X                  Y                   Z               Mass
    ------------   -----------------  -----------------  -----------------  -----------------
         BR           1.907355519453    -0.072841281147    -0.045356466268    78.918337600000
         CL          -3.096957480547    -0.569989281147    -0.099920466268    34.968852682000
         C           -0.781170480547     0.904590718853    -0.257939466268    12.000000000000
         C            0.032064519453    -0.107183281147     0.528634533732    12.000000000000
         C           -2.230495480547     0.967199718853     0.199372533732    12.000000000000
         H           -0.343973480547     1.901135718853    -0.127406466268     1.007825032230
         H           -0.736671480547     0.665990718853    -1.324513466268     1.007825032230
         H            0.040801519453     0.115346718853     1.596726533732     1.007825032230
         H           -0.313588480547    -1.127165281147     0.368675533732     1.007825032230
         H           -2.300121580547     1.168384718853     1.250141833732     1.007825032230
         H           -2.769247480547     1.746426718853    -0.341998466268     1.007825032230

  Basis Set: AUG-CC-PVTZ
    Blend: AUG-CC-PVTZ
  Basis Set: (AUG-CC-PVTZ AUX)
    Blend: AUG-CC-PVTZ-JKFIT
	 Reference Energy          =   -3149.1285273233306725 [Eh]
	 Singles Energy            =      -0.0000000000000000 [Eh]
	 Same-Spin Energy          =      -0.2758375240828911 [Eh]
	 Opposite-Spin Energy      =      -0.8325734172460062 [Eh]
	 Correlation Energy        =      -1.1084109413288972 [Eh]
	 Total Energy              =   -3150.2369382646597842 [Eh]

	 ================> DF-SCS-MP2 Energies <==================
	-----------------------------------------------------------
	 SCS Same-Spin Scale       =       0.3333333333333333 [-]
	 SCS Opposite-Spin Scale   =       1.2000000000000000 [-]
	 SCS Same-Spin Energy      =      -0.0919458413609637 [Eh]
	 SCS Opposite-Spin Energy  =      -0.9990881006952074 [Eh]
	 SCS Correlation Energy    =      -1.0910339420561710 [Eh]
	 SCS Total Energy          =   -3150.2195612653868011 [Eh]
	-----------------------------------------------------------

  Dipole Moment: [D]
     X:    -0.9367      Y:     1.6672      Z:     0.7012     Total:     2.0368

*** Psi4 exiting successfully. Buy a developer a beer!
