                               Psi4 1.4a3.dev225

  ==> Input File <==

--------------------------------------------------------------------------
#psi4
#
memory 32 gb

molecule  {
0 1
 Br        2.0414680    -0.1099760    -0.0581920
 Cl       -2.8024627    -0.6721438    -0.1844901
  C       -0.6470580     0.8674560    -0.2707750
  C        0.1661770    -0.1443180     0.5157990
  C       -2.0963830     0.9300650     0.1865370
  H       -0.2098610     1.8640010    -0.1402420
  H       -0.6025590     0.6288560    -1.3373490
  H        0.1749140     0.0782120     1.5838910
  H       -0.1794760    -1.1643000     0.3558400
  H       -2.1673080     1.1350030     1.2569080
  H       -2.6351350     1.7092920    -0.3548340
units angstrom
no_reorient  #important for SAPT in psi4, default
symmetry c1  #important for SAPT in psi4, default
}

set PROPERTIES_ORIGIN ["COM"]
properties('MP2/aug-cc-pvtz', properties = ['dipole'])
--------------------------------------------------------------------------

    Molecular point group: c1
  Charge       = 0
  Multiplicity = 1
  Basis Set: AUG-CC-PVTZ
    Blend: AUG-CC-PVTZ
  Basis Set: (AUG-CC-PVTZ AUX)
    Blend: AUG-CC-PVTZ-JKFIT

    Orbital Energies [Eh]
    ---------------------

    Doubly Occupied:

       1A   -490.012430     2A   -104.834399     3A    -65.152322
       4A    -58.507585     5A    -58.506258     6A    -58.506250
       7A    -11.309439     8A    -11.297557     9A    -11.257040
      10A    -10.559058    11A     -9.825017    12A     -8.025868
      13A     -8.024097    14A     -8.024071    15A     -7.436362
      16A     -7.429994    17A     -7.429937    18A     -3.179869
      19A     -3.176589    20A     -3.176545    21A     -3.168326
      22A     -3.168326    23A     -1.162422    24A     -1.084506
      25A     -0.999609    26A     -0.900893    27A     -0.822351
      28A     -0.674351    29A     -0.645531    30A     -0.607983
      31A     -0.579379    32A     -0.536855    33A     -0.512599
      34A     -0.485827    35A     -0.448167    36A     -0.444350
      37A     -0.402825    38A     -0.400339

  @DF-RHF Final Energy: -3149.12547545101597

   => Energetics <=

    Nuclear Repulsion Energy =            377.0969729549972271
    One-Electron Energy =               -5127.0142463821030105
    Two-Electron Energy =                1600.7917979760898106
    Total Energy =                      -3149.1254754510164275
  Basis Set: (AUG-CC-PVTZ AUX)
    Blend: AUG-CC-PVTZ-RI
    Molecular point group: c1

    Geometry (in Angstrom), charge = 0, multiplicity = 1:

       Center              X                  Y                   Z               Mass
    ------------   -----------------  -----------------  -----------------  -----------------
         BR           1.871397544243    -0.058284587960    -0.029396496991    78.918337600000
         CL          -2.972533155757    -0.620452387960    -0.155694596991    34.968852682000
         C           -0.817128455757     0.919147412040    -0.241979496991    12.000000000000
         C           -0.003893455757    -0.092626587960     0.544594503009    12.000000000000
         C           -2.266453455757     0.981756412040     0.215332503009    12.000000000000
         H           -0.379931455757     1.915692412040    -0.111446496991     1.007825032230
         H           -0.772629455757     0.680547412040    -1.308553496991     1.007825032230
         H            0.004843544243     0.129903412040     1.612686503009     1.007825032230
         H           -0.349546455757    -1.112608587960     0.384635503009     1.007825032230
         H           -2.337378455757     1.186694412040     1.285703503009     1.007825032230
         H           -2.805205455757     1.760983412040    -0.326038496991     1.007825032230

  Basis Set: AUG-CC-PVTZ
    Blend: AUG-CC-PVTZ
  Basis Set: (AUG-CC-PVTZ AUX)
    Blend: AUG-CC-PVTZ-JKFIT
	 Reference Energy          =   -3149.1254754510159728 [Eh]
	 Singles Energy            =      -0.0000000000000000 [Eh]
	 Same-Spin Energy          =      -0.2764365730464486 [Eh]
	 Opposite-Spin Energy      =      -0.8334702761987166 [Eh]
	 Correlation Energy        =      -1.1099068492451654 [Eh]
	 Total Energy              =   -3150.2353823002613353 [Eh]

	 ================> DF-SCS-MP2 Energies <==================
	-----------------------------------------------------------
	 SCS Same-Spin Scale       =       0.3333333333333333 [-]
	 SCS Opposite-Spin Scale   =       1.2000000000000000 [-]
	 SCS Same-Spin Energy      =      -0.0921455243488162 [Eh]
	 SCS Opposite-Spin Energy  =      -1.0001643314384598 [Eh]
	 SCS Correlation Energy    =      -1.0923098557872761 [Eh]
	 SCS Total Energy          =   -3150.2177853068033073 [Eh]
	-----------------------------------------------------------

  Dipole Moment: [D]
     X:    -1.1196      Y:     1.7000      Z:     0.7522     Total:     2.1701

*** Psi4 exiting successfully. Buy a developer a beer!
