                               Psi4 1.4a3.dev225

  ==> Input File <==

--------------------------------------------------------------------------
#psi4
#
memory 32 gb

molecule  {
0 1
 Br        2.0414680    -0.1099760    -0.0581920
 Cl       -2.9628450    -0.6071240    -0.1127560
  C       -0.6470580     0.8674560    -0.2707750
  C        0.1661770    -0.1443180     0.5157990
  C       -2.0963830     0.9300650     0.1865370
  H       -0.2098610     1.8640010    -0.1402420
  H       -0.6025590     0.6288560    -1.3373490
  H        0.1749140     0.0782120     1.5838910
  H       -0.1794760    -1.1643000     0.3558400
  H       -2.1705551     1.1443856     1.3059123
  H       -2.6351350     1.7092920    -0.3548340
units angstrom
no_reorient  #important for SAPT in psi4, default
symmetry c1  #important for SAPT in psi4, default
}

set PROPERTIES_ORIGIN ["COM"]
properties('MP2/aug-cc-pvtz', properties = ['dipole'])
--------------------------------------------------------------------------

    Molecular point group: c1
  Charge       = 0
  Multiplicity = 1
  Basis Set: AUG-CC-PVTZ
    Blend: AUG-CC-PVTZ
  Basis Set: (AUG-CC-PVTZ AUX)
    Blend: AUG-CC-PVTZ-JKFIT

    Orbital Energies [Eh]
    ---------------------

    Doubly Occupied:

       1A   -490.013696     2A   -104.834835     3A    -65.153587
       4A    -58.508851     5A    -58.507521     6A    -58.507513
       7A    -11.314238     8A    -11.299381     9A    -11.259931
      10A    -10.559292    11A     -9.826282    12A     -8.026118
      13A     -8.024340    14A     -8.024309    15A     -7.437632
      16A     -7.431251    17A     -7.431198    18A     -3.181141
      19A     -3.177855    20A     -3.177815    21A     -3.169581
      22A     -3.169580    23A     -1.158173    24A     -1.087969
      25A     -1.001337    26A     -0.897537    27A     -0.819877
      28A     -0.673396    29A     -0.642744    30A     -0.605188
      31A     -0.578764    32A     -0.538669    33A     -0.512137
      34A     -0.488268    35A     -0.447293    36A     -0.442695
      37A     -0.403923    38A     -0.402047

  @DF-RHF Final Energy: -3149.12614047407988

   => Energetics <=

    Nuclear Repulsion Energy =            373.1775418350665063
    One-Electron Energy =               -5119.1354355960656903
    Two-Electron Energy =                1596.8317532869198203
    Total Energy =                      -3149.1261404740798753
  Basis Set: (AUG-CC-PVTZ AUX)
    Blend: AUG-CC-PVTZ-RI
    Molecular point group: c1

    Geometry (in Angstrom), charge = 0, multiplicity = 1:

       Center              X                  Y                   Z               Mass
    ------------   -----------------  -----------------  -----------------  -----------------
         BR           1.907384900912    -0.072926178441    -0.045799876825    78.918337600000
         CL          -3.096928099088    -0.570074178441    -0.100363876825    34.968852682000
         C           -0.781141099088     0.904505821559    -0.258382876825    12.000000000000
         C            0.032093900912    -0.107268178441     0.528191123175    12.000000000000
         C           -2.230466099088     0.967114821559     0.198929123175    12.000000000000
         H           -0.343944099088     1.901050821559    -0.127849876825     1.007825032230
         H           -0.736642099088     0.665905821559    -1.324956876825     1.007825032230
         H            0.040830900912     0.115261821559     1.596283123175     1.007825032230
         H           -0.313559099088    -1.127250178441     0.368232123175     1.007825032230
         H           -2.304638199088     1.181435421559     1.318304423175     1.007825032230
         H           -2.769218099088     1.746341821559    -0.342441876825     1.007825032230

  Basis Set: AUG-CC-PVTZ
    Blend: AUG-CC-PVTZ
  Basis Set: (AUG-CC-PVTZ AUX)
    Blend: AUG-CC-PVTZ-JKFIT
	 Reference Energy          =   -3149.1261404740798753 [Eh]
	 Singles Energy            =      -0.0000000000000000 [Eh]
	 Same-Spin Energy          =      -0.2759475030070525 [Eh]
	 Opposite-Spin Energy      =      -0.8331222419692572 [Eh]
	 Correlation Energy        =      -1.1090697449763096 [Eh]
	 Total Energy              =   -3150.2352102190561709 [Eh]

	 ================> DF-SCS-MP2 Energies <==================
	-----------------------------------------------------------
	 SCS Same-Spin Scale       =       0.3333333333333333 [-]
	 SCS Opposite-Spin Scale   =       1.2000000000000000 [-]
	 SCS Same-Spin Energy      =      -0.0919825010023508 [Eh]
	 SCS Opposite-Spin Energy  =      -0.9997466903631086 [Eh]
	 SCS Correlation Energy    =      -1.0917291913654594 [Eh]
	 SCS Total Energy          =   -3150.2178696654455052 [Eh]
	-----------------------------------------------------------

  Dipole Moment: [D]
     X:    -0.9384      Y:     1.6469      Z:     0.6799     Total:     2.0137

*** Psi4 exiting successfully. Buy a developer a beer!
