                               Psi4 1.4a3.dev225

  ==> Input File <==

--------------------------------------------------------------------------
#psi4
#
memory 32 gb

molecule  {
0 1
 Br        2.0414680    -0.1099760    -0.0581920
 Cl       -2.9628450    -0.6071240    -0.1127560
  C       -0.6470580     0.8674560    -0.2707750
  C        0.1661770    -0.1443180     0.5157990
  C       -2.1014408     0.8786104     0.1744703
  H       -0.2098610     1.8640010    -0.1402420
  H       -0.6025590     0.6288560    -1.3373490
  H        0.1749140     0.0782120     1.5838910
  H       -0.1794760    -1.1643000     0.3558400
  H       -2.1673080     1.1350030     1.2569080
  H       -2.6351350     1.7092920    -0.3548340
units angstrom
no_reorient  #important for SAPT in psi4, default
symmetry c1  #important for SAPT in psi4, default
}

set PROPERTIES_ORIGIN ["COM"]
properties('MP2/aug-cc-pvtz', properties = ['dipole'])
--------------------------------------------------------------------------

    Molecular point group: c1
  Charge       = 0
  Multiplicity = 1
  Basis Set: AUG-CC-PVTZ
    Blend: AUG-CC-PVTZ
  Basis Set: (AUG-CC-PVTZ AUX)
    Blend: AUG-CC-PVTZ-JKFIT

    Orbital Energies [Eh]
    ---------------------

    Doubly Occupied:

       1A   -490.012834     2A   -104.838786     3A    -65.152732
       4A    -58.507992     5A    -58.506667     6A    -58.506661
       7A    -11.308165     8A    -11.298432     9A    -11.258268
      10A    -10.563851    11A     -9.825432    12A     -8.030792
      13A     -8.028868    14A     -8.028830    15A     -7.436771
      16A     -7.430410    17A     -7.430361    18A     -3.180272
      19A     -3.176995    20A     -3.176960    21A     -3.168753
      22A     -3.168752    23A     -1.168452    24A     -1.090307
      25A     -1.000705    26A     -0.895111    27A     -0.819595
      28A     -0.674198    29A     -0.638433    30A     -0.606145
      31A     -0.585152    32A     -0.539074    33A     -0.517573
      34A     -0.488732    35A     -0.446911    36A     -0.442437
      37A     -0.403033    38A     -0.400946

  @DF-RHF Final Energy: -3149.12487146480180

   => Energetics <=

    Nuclear Repulsion Energy =            374.2310416919095815
    One-Electron Energy =               -5121.2030505748880387
    Two-Electron Energy =                1597.8471374181765441
    Total Energy =                      -3149.1248714648017994
  Basis Set: (AUG-CC-PVTZ AUX)
    Blend: AUG-CC-PVTZ-RI
    Molecular point group: c1

    Geometry (in Angstrom), charge = 0, multiplicity = 1:

       Center              X                  Y                   Z               Mass
    ------------   -----------------  -----------------  -----------------  -----------------
         BR           1.907753140293    -0.068905819478    -0.044554555181    78.918337600000
         CL          -3.096559859707    -0.566053819478    -0.099118555181    34.968852682000
         C           -0.780772859707     0.908526180522    -0.257137555181    12.000000000000
         C            0.032462140293    -0.103247819478     0.529436444819    12.000000000000
         C           -2.235155659707     0.919680580522     0.188107744819    12.000000000000
         H           -0.343575859707     1.905071180522    -0.126604555181     1.007825032230
         H           -0.736273859707     0.669926180522    -1.323711555181     1.007825032230
         H            0.041199140293     0.119282180522     1.597528444819     1.007825032230
         H           -0.313190859707    -1.123229819478     0.369477444819     1.007825032230
         H           -2.301022859707     1.176073180522     1.270545444819     1.007825032230
         H           -2.768849859707     1.750362180522    -0.341196555181     1.007825032230

  Basis Set: AUG-CC-PVTZ
    Blend: AUG-CC-PVTZ
  Basis Set: (AUG-CC-PVTZ AUX)
    Blend: AUG-CC-PVTZ-JKFIT
	 Reference Energy          =   -3149.1248714648017994 [Eh]
	 Singles Energy            =      -0.0000000000000000 [Eh]
	 Same-Spin Energy          =      -0.2764276914443720 [Eh]
	 Opposite-Spin Energy      =      -0.8333557369697665 [Eh]
	 Correlation Energy        =      -1.1097834284141386 [Eh]
	 Total Energy              =   -3150.2346548932159749 [Eh]

	 ================> DF-SCS-MP2 Energies <==================
	-----------------------------------------------------------
	 SCS Same-Spin Scale       =       0.3333333333333333 [-]
	 SCS Opposite-Spin Scale   =       1.2000000000000000 [-]
	 SCS Same-Spin Energy      =      -0.0921425638147906 [Eh]
	 SCS Opposite-Spin Energy  =      -1.0000268843637197 [Eh]
	 SCS Correlation Energy    =      -1.0921694481785102 [Eh]
	 SCS Total Energy          =   -3150.2170409129803375 [Eh]
	-----------------------------------------------------------

  Dipole Moment: [D]
     X:    -1.0517      Y:     1.5289      Z:     0.6705     Total:     1.9731

*** Psi4 exiting successfully. Buy a developer a beer!
