                               Psi4 1.4a3.dev225

  ==> Input File <==

--------------------------------------------------------------------------
#psi4
#
memory 32 gb

molecule  {
0 1
 Br        2.0414680    -0.1099760    -0.0581920
 Cl       -2.9628450    -0.6071240    -0.1127560
  C       -0.6470580     0.8674560    -0.2707750
  C        0.1661770    -0.1443180     0.5157990
  C       -2.0963830     0.9300650     0.1865370
  H       -0.2098610     1.8640010    -0.1402420
  H       -0.6025590     0.6288560    -1.3373490
  H        0.1733124     0.0374206     1.3881016
  H       -0.1794760    -1.1643000     0.3558400
  H       -2.1673080     1.1350030     1.2569080
  H       -2.6351350     1.7092920    -0.3548340
units angstrom
no_reorient  #important for SAPT in psi4, default
symmetry c1  #important for SAPT in psi4, default
}

set PROPERTIES_ORIGIN ["COM"]
properties('MP2/aug-cc-pvtz', properties = ['dipole'])
--------------------------------------------------------------------------

    Molecular point group: c1
  Charge       = 0
  Multiplicity = 1
  Basis Set: AUG-CC-PVTZ
    Blend: AUG-CC-PVTZ
  Basis Set: (AUG-CC-PVTZ AUX)
    Blend: AUG-CC-PVTZ-JKFIT

    Orbital Energies [Eh]
    ---------------------

    Doubly Occupied:

       1A   -490.013098     2A   -104.834489     3A    -65.152998
       4A    -58.508254     5A    -58.506941     6A    -58.506933
       7A    -11.308938     8A    -11.276445     9A    -11.258464
      10A    -10.558971    11A     -9.825679    12A     -8.025798
      13A     -8.024022    14A     -8.023992    15A     -7.436998
      16A     -7.430678    17A     -7.430626    18A     -3.180479
      19A     -3.177227    20A     -3.177187    21A     -3.169042
      22A     -3.169041    23A     -1.161153    24A     -1.097887
      25A     -1.001997    26A     -0.914383    27A     -0.838948
      28A     -0.684838    29A     -0.652768    30A     -0.616990
      31A     -0.580431    32A     -0.543852    33A     -0.514726
      34A     -0.489303    35A     -0.447175    36A     -0.444063
      37A     -0.406001    38A     -0.401677

  @DF-RHF Final Energy: -3149.09455077910570

   => Energetics <=

    Nuclear Repulsion Energy =            374.7321753908989876
    One-Electron Energy =               -5122.0684763252329503
    Two-Electron Energy =                1598.2417501552286012
    Total Energy =                      -3149.0945507791052478
  Basis Set: (AUG-CC-PVTZ AUX)
    Blend: AUG-CC-PVTZ-RI
    Molecular point group: c1

    Geometry (in Angstrom), charge = 0, multiplicity = 1:

       Center              X                  Y                   Z               Mass
    ------------   -----------------  -----------------  -----------------  -----------------
         BR           1.907374265806    -0.072601896580    -0.044217739534    78.918337600000
         CL          -3.096938734194    -0.569749896580    -0.098781739534    34.968852682000
         C           -0.781151734194     0.904830103420    -0.256800739534    12.000000000000
         C            0.032083265806    -0.106943896580     0.529773260466    12.000000000000
         C           -2.230476734194     0.967439103420     0.200511260466    12.000000000000
         H           -0.343954734194     1.901375103420    -0.126267739534     1.007825032230
         H           -0.736652734194     0.666230103420    -1.323374739534     1.007825032230
         H            0.039218665806     0.074794703420     1.402075860466     1.007825032230
         H           -0.313569734194    -1.126925896580     0.369814260466     1.007825032230
         H           -2.301401734194     1.172377103420     1.270882260466     1.007825032230
         H           -2.769228734194     1.746666103420    -0.340859739534     1.007825032230

  Basis Set: AUG-CC-PVTZ
    Blend: AUG-CC-PVTZ
  Basis Set: (AUG-CC-PVTZ AUX)
    Blend: AUG-CC-PVTZ-JKFIT
	 Reference Energy          =   -3149.0945507791057025 [Eh]
	 Singles Energy            =      -0.0000000000000000 [Eh]
	 Same-Spin Energy          =      -0.2757057867634810 [Eh]
	 Opposite-Spin Energy      =      -0.8320053901603348 [Eh]
	 Correlation Energy        =      -1.1077111769238157 [Eh]
	 Total Energy              =   -3150.2022619560293606 [Eh]

	 ================> DF-SCS-MP2 Energies <==================
	-----------------------------------------------------------
	 SCS Same-Spin Scale       =       0.3333333333333333 [-]
	 SCS Opposite-Spin Scale   =       1.2000000000000000 [-]
	 SCS Same-Spin Energy      =      -0.0919019289211603 [Eh]
	 SCS Opposite-Spin Energy  =      -0.9984064681924018 [Eh]
	 SCS Correlation Energy    =      -1.0903083971135621 [Eh]
	 SCS Total Energy          =   -3150.1848591762191063 [Eh]
	-----------------------------------------------------------

  Dipole Moment: [D]
     X:    -0.9619      Y:     1.6505      Z:     0.7142     Total:     2.0395

*** Psi4 exiting successfully. Buy a developer a beer!
