                               Psi4 1.4a3.dev225

  ==> Input File <==

--------------------------------------------------------------------------
#psi4
#
memory 32 gb

molecule  {
0 1
 Br        2.0414680    -0.1099760    -0.0581920
 Cl       -2.9628450    -0.6071240    -0.1127560
  C       -0.6470580     0.8674560    -0.2707750
  C        0.2197566    -0.2109783     0.5676221
  C       -2.0963830     0.9300650     0.1865370
  H       -0.2098610     1.8640010    -0.1402420
  H       -0.6025590     0.6288560    -1.3373490
  H        0.1749140     0.0782120     1.5838910
  H       -0.1794760    -1.1643000     0.3558400
  H       -2.1673080     1.1350030     1.2569080
  H       -2.6351350     1.7092920    -0.3548340
units angstrom
no_reorient  #important for SAPT in psi4, default
symmetry c1  #important for SAPT in psi4, default
}

set PROPERTIES_ORIGIN ["COM"]
properties('MP2/aug-cc-pvtz', properties = ['dipole'])
--------------------------------------------------------------------------

    Molecular point group: c1
  Charge       = 0
  Multiplicity = 1
  Basis Set: AUG-CC-PVTZ
    Blend: AUG-CC-PVTZ
  Basis Set: (AUG-CC-PVTZ AUX)
    Blend: AUG-CC-PVTZ-JKFIT

    Orbital Energies [Eh]
    ---------------------

    Doubly Occupied:

       1A   -490.016383     2A   -104.833083     3A    -65.156350
       4A    -58.511615     5A    -58.510277     6A    -58.510273
       7A    -11.306783     8A    -11.295614     9A    -11.262271
      10A    -10.557576    11A     -9.829204    12A     -8.024402
      13A     -8.022635    14A     -8.022604    15A     -7.440667
      16A     -7.434133    17A     -7.434118    18A     -3.184240
      19A     -3.180820    20A     -3.180805    21A     -3.172423
      22A     -3.172422    23A     -1.154080    24A     -1.084082
      25A     -1.000696    26A     -0.897766    27A     -0.824688
      28A     -0.674220    29A     -0.641457    30A     -0.607009
      31A     -0.578632    32A     -0.527050    33A     -0.512168
      34A     -0.498604    35A     -0.446804    36A     -0.442682
      37A     -0.406779    38A     -0.398931

  @DF-RHF Final Energy: -3149.12157914429781

   => Energetics <=

    Nuclear Repulsion Energy =            373.1101633412103524
    One-Electron Energy =               -5118.9547893536046104
    Two-Electron Energy =                1596.7230468680968443
    Total Energy =                      -3149.1215791442978116
  Basis Set: (AUG-CC-PVTZ AUX)
    Blend: AUG-CC-PVTZ-RI
    Molecular point group: c1

    Geometry (in Angstrom), charge = 0, multiplicity = 1:

       Center              X                  Y                   Z               Mass
    ------------   -----------------  -----------------  -----------------  -----------------
         BR           1.903240666002    -0.067735656232    -0.049471230886    78.918337600000
         CL          -3.101072333998    -0.564883656232    -0.104035230886    34.968852682000
         C           -0.785285333998     0.909696343768    -0.262054230886    12.000000000000
         C            0.081529266002    -0.168737956232     0.576342869114    12.000000000000
         C           -2.234610333998     0.972305343768     0.195257769114    12.000000000000
         H           -0.348088333998     1.906241343768    -0.131521230886     1.007825032230
         H           -0.740786333998     0.671096343768    -1.328628230886     1.007825032230
         H            0.036686666002     0.120452343768     1.592611769114     1.007825032230
         H           -0.317703333998    -1.122059656232     0.364560769114     1.007825032230
         H           -2.305535333998     1.177243343768     1.265628769114     1.007825032230
         H           -2.773362333998     1.751532343768    -0.346113230886     1.007825032230

  Basis Set: AUG-CC-PVTZ
    Blend: AUG-CC-PVTZ
  Basis Set: (AUG-CC-PVTZ AUX)
    Blend: AUG-CC-PVTZ-JKFIT
	 Reference Energy          =   -3149.1215791442978116 [Eh]
	 Singles Energy            =      -0.0000000000000000 [Eh]
	 Same-Spin Energy          =      -0.2756192747145668 [Eh]
	 Opposite-Spin Energy      =      -0.8329206573140490 [Eh]
	 Correlation Energy        =      -1.1085399320286158 [Eh]
	 Total Energy              =   -3150.2301190763264458 [Eh]

	 ================> DF-SCS-MP2 Energies <==================
	-----------------------------------------------------------
	 SCS Same-Spin Scale       =       0.3333333333333333 [-]
	 SCS Opposite-Spin Scale   =       1.2000000000000000 [-]
	 SCS Same-Spin Energy      =      -0.0918730915715223 [Eh]
	 SCS Opposite-Spin Energy  =      -0.9995047887768587 [Eh]
	 SCS Correlation Energy    =      -1.0913778803483809 [Eh]
	 SCS Total Energy          =   -3150.2129570246461299 [Eh]
	-----------------------------------------------------------

  Dipole Moment: [D]
     X:    -0.7930      Y:     1.6458      Z:     0.6933     Total:     1.9540

*** Psi4 exiting successfully. Buy a developer a beer!
