                               Psi4 1.4a3.dev225

  ==> Input File <==

--------------------------------------------------------------------------
#psi4
#
memory 32 gb

molecule  {
0 1
 Br        2.0414680    -0.1099760    -0.0581920
 Cl       -2.9628450    -0.6071240    -0.1127560
  C       -0.6470580     0.8674560    -0.2707750
  C        0.2733362    -0.2776386     0.6194452
  C       -2.0963830     0.9300650     0.1865370
  H       -0.2098610     1.8640010    -0.1402420
  H       -0.6025590     0.6288560    -1.3373490
  H        0.1749140     0.0782120     1.5838910
  H       -0.1794760    -1.1643000     0.3558400
  H       -2.1673080     1.1350030     1.2569080
  H       -2.6351350     1.7092920    -0.3548340
units angstrom
no_reorient  #important for SAPT in psi4, default
symmetry c1  #important for SAPT in psi4, default
}

set PROPERTIES_ORIGIN ["COM"]
properties('MP2/aug-cc-pvtz', properties = ['dipole'])
--------------------------------------------------------------------------

    Molecular point group: c1
  Charge       = 0
  Multiplicity = 1
  Basis Set: AUG-CC-PVTZ
    Blend: AUG-CC-PVTZ
  Basis Set: (AUG-CC-PVTZ AUX)
    Blend: AUG-CC-PVTZ-JKFIT

    Orbital Energies [Eh]
    ---------------------

    Doubly Occupied:

       1A   -490.019107     2A   -104.832035     3A    -65.159130
       4A    -58.514402     5A    -58.513054     6A    -58.513042
       7A    -11.305424     8A    -11.293993     9A    -11.264138
      10A    -10.556535    11A     -9.832135    12A     -8.023360
      13A     -8.021597    14A     -8.021567    15A     -7.443718
      16A     -7.437038    17A     -7.437001    18A     -3.187364
      19A     -3.183817    20A     -3.183800    21A     -3.175249
      22A     -3.175248    23A     -1.150673    24A     -1.083427
      25A     -0.998818    26A     -0.897050    27A     -0.824970
      28A     -0.676500    29A     -0.639927    30A     -0.609231
      31A     -0.575790    32A     -0.523615    33A     -0.511878
      34A     -0.496582    35A     -0.446320    36A     -0.441433
      37A     -0.409801    38A     -0.391280

  @DF-RHF Final Energy: -3149.10252607529992

   => Energetics <=

    Nuclear Repulsion Energy =            372.7542988892677158
    One-Electron Energy =               -5118.1735570765931698
    Two-Electron Energy =                1596.3167321120261022
    Total Energy =                      -3149.1025260752994654
  Basis Set: (AUG-CC-PVTZ AUX)
    Blend: AUG-CC-PVTZ-RI
    Molecular point group: c1

    Geometry (in Angstrom), charge = 0, multiplicity = 1:

       Center              X                  Y                   Z               Mass
    ------------   -----------------  -----------------  -----------------  -----------------
         BR           1.899117417571    -0.062605775133    -0.053459306865    78.918337600000
         CL          -3.105195582429    -0.559753775133    -0.108023306865    34.968852682000
         C           -0.789408582429     0.914826224867    -0.266042306865    12.000000000000
         C            0.130985617571    -0.230268375133     0.624177893135    12.000000000000
         C           -2.238733582429     0.977435224867     0.191269693135    12.000000000000
         H           -0.352211582429     1.911371224867    -0.135509306865     1.007825032230
         H           -0.744909582429     0.676226224867    -1.332616306865     1.007825032230
         H            0.032563417571     0.125582224867     1.588623693135     1.007825032230
         H           -0.321826582429    -1.116929775133     0.360572693135     1.007825032230
         H           -2.309658582429     1.182373224867     1.261640693135     1.007825032230
         H           -2.777485582429     1.756662224867    -0.350101306865     1.007825032230

  Basis Set: AUG-CC-PVTZ
    Blend: AUG-CC-PVTZ
  Basis Set: (AUG-CC-PVTZ AUX)
    Blend: AUG-CC-PVTZ-JKFIT
	 Reference Energy          =   -3149.1025260752999202 [Eh]
	 Singles Energy            =      -0.0000000000000000 [Eh]
	 Same-Spin Energy          =      -0.2760211924663964 [Eh]
	 Opposite-Spin Energy      =      -0.8343223649833752 [Eh]
	 Correlation Energy        =      -1.1103435574497715 [Eh]
	 Total Energy              =   -3150.2128696327495163 [Eh]

	 ================> DF-SCS-MP2 Energies <==================
	-----------------------------------------------------------
	 SCS Same-Spin Scale       =       0.3333333333333333 [-]
	 SCS Opposite-Spin Scale   =       1.2000000000000000 [-]
	 SCS Same-Spin Energy      =      -0.0920070641554655 [Eh]
	 SCS Opposite-Spin Energy  =      -1.0011868379800501 [Eh]
	 SCS Correlation Energy    =      -1.0931939021355157 [Eh]
	 SCS Total Energy          =   -3150.1957199774356013 [Eh]
	-----------------------------------------------------------

  Dipole Moment: [D]
     X:    -0.6715      Y:     1.6431      Z:     0.6777     Total:     1.9000

*** Psi4 exiting successfully. Buy a developer a beer!
