                               Psi4 1.4a3.dev225

  ==> Input File <==

--------------------------------------------------------------------------
#psi4
#
memory 32 gb

molecule  {
0 1
 Br        2.0414680    -0.1099760    -0.0581920
 Cl       -2.9628450    -0.6071240    -0.1127560
  C       -0.6470580     0.8674560    -0.2707750
  C        0.3573899    -0.1408163     0.4572724
  C       -2.0963830     0.9300650     0.1865370
  H       -0.2098610     1.8640010    -0.1402420
  H       -0.6025590     0.6288560    -1.3373490
  H        0.1749140     0.0782120     1.5838910
  H       -0.1794760    -1.1643000     0.3558400
  H       -2.1673080     1.1350030     1.2569080
  H       -2.6351350     1.7092920    -0.3548340
units angstrom
no_reorient  #important for SAPT in psi4, default
symmetry c1  #important for SAPT in psi4, default
}

set PROPERTIES_ORIGIN ["COM"]
properties('MP2/aug-cc-pvtz', properties = ['dipole'])
--------------------------------------------------------------------------

    Molecular point group: c1
  Charge       = 0
  Multiplicity = 1
  Basis Set: AUG-CC-PVTZ
    Blend: AUG-CC-PVTZ
  Basis Set: (AUG-CC-PVTZ AUX)
    Blend: AUG-CC-PVTZ-JKFIT

    Orbital Energies [Eh]
    ---------------------

    Doubly Occupied:

       1A   -490.026038     2A   -104.831049     3A    -65.166965
       4A    -58.522101     5A    -58.520865     6A    -58.520846
       7A    -11.307308     8A    -11.297931     9A    -11.258140
      10A    -10.555521    11A     -9.841392    12A     -8.022350
      13A     -8.020577    14A     -8.020545    15A     -7.453449
      16A     -7.446351    17A     -7.446248    18A     -3.197239
      19A     -3.193175    20A     -3.193086    21A     -3.184488
      22A     -3.184486    23A     -1.153084    24A     -1.111167
      25A     -1.009103    26A     -0.886919    27A     -0.806456
      28A     -0.657945    29A     -0.636816    30A     -0.603430
      31A     -0.566651    32A     -0.540201    33A     -0.517748
      34A     -0.503739    35A     -0.446003    36A     -0.440324
      37A     -0.401453    38A     -0.398298

  @DF-RHF Final Energy: -3149.09678115470706

   => Energetics <=

    Nuclear Repulsion Energy =            377.3999442917041165
    One-Electron Energy =               -5127.2144787430497672
    Two-Electron Energy =                1600.7177532966391027
    Total Energy =                      -3149.0967811547070596
  Basis Set: (AUG-CC-PVTZ AUX)
    Blend: AUG-CC-PVTZ-RI
    Molecular point group: c1

    Geometry (in Angstrom), charge = 0, multiplicity = 1:

       Center              X                  Y                   Z               Mass
    ------------   -----------------  -----------------  -----------------  -----------------
         BR           1.892649017534    -0.073135012636    -0.040979207292    78.918337600000
         CL          -3.111663982466    -0.570283012636    -0.095543207292    34.968852682000
         C           -0.795876982466     0.904296987364    -0.253562207292    12.000000000000
         C            0.208570917534    -0.103975312636     0.474485192708    12.000000000000
         C           -2.245201982466     0.966905987364     0.203749792708    12.000000000000
         H           -0.358679982466     1.900841987364    -0.123029207292     1.007825032230
         H           -0.751377982466     0.665696987364    -1.320136207292     1.007825032230
         H            0.026095017534     0.115052987364     1.601103792708     1.007825032230
         H           -0.328294982466    -1.127459012636     0.373052792708     1.007825032230
         H           -2.316126982466     1.171843987364     1.274120792708     1.007825032230
         H           -2.783953982466     1.746132987364    -0.337621207292     1.007825032230

  Basis Set: AUG-CC-PVTZ
    Blend: AUG-CC-PVTZ
  Basis Set: (AUG-CC-PVTZ AUX)
    Blend: AUG-CC-PVTZ-JKFIT
	 Reference Energy          =   -3149.0967811547070596 [Eh]
	 Singles Energy            =      -0.0000000000000000 [Eh]
	 Same-Spin Energy          =      -0.2784349784518508 [Eh]
	 Opposite-Spin Energy      =      -0.8365218464727331 [Eh]
	 Correlation Energy        =      -1.1149568249245840 [Eh]
	 Total Energy              =   -3150.2117379796318346 [Eh]

	 ================> DF-SCS-MP2 Energies <==================
	-----------------------------------------------------------
	 SCS Same-Spin Scale       =       0.3333333333333333 [-]
	 SCS Opposite-Spin Scale   =       1.2000000000000000 [-]
	 SCS Same-Spin Energy      =      -0.0928116594839503 [Eh]
	 SCS Opposite-Spin Energy  =      -1.0038262157672797 [Eh]
	 SCS Correlation Energy    =      -1.0966378752512300 [Eh]
	 SCS Total Energy          =   -3150.1934190299584770 [Eh]
	-----------------------------------------------------------

  Dipole Moment: [D]
     X:    -0.3666      Y:     1.6052      Z:     0.5915     Total:     1.7495

*** Psi4 exiting successfully. Buy a developer a beer!
