                               Psi4 1.4a3.dev225

  ==> Input File <==

--------------------------------------------------------------------------
#psi4
#
memory 32 gb

molecule  {
0 1
 Br        2.0414680    -0.1099760    -0.0581920
 Cl       -2.9628450    -0.6071240    -0.1127560
  C       -0.6470580     0.8674560    -0.2707750
  C        0.1661770    -0.1443180     0.5157990
  C       -2.0963830     0.9300650     0.1865370
  H       -0.2098610     1.8640010    -0.1402420
  H       -0.6025590     0.6288560    -1.3373490
  H        0.1749140     0.0782120     1.5838910
  H       -0.1794760    -1.1643000     0.3558400
  H       -2.1543195     1.0974727     1.0608907
  H       -2.6351350     1.7092920    -0.3548340
units angstrom
no_reorient  #important for SAPT in psi4, default
symmetry c1  #important for SAPT in psi4, default
}

set PROPERTIES_ORIGIN ["COM"]
properties('MP2/aug-cc-pvtz', properties = ['dipole'])
--------------------------------------------------------------------------

    Molecular point group: c1
  Charge       = 0
  Multiplicity = 1
  Basis Set: AUG-CC-PVTZ
    Blend: AUG-CC-PVTZ
  Basis Set: (AUG-CC-PVTZ AUX)
    Blend: AUG-CC-PVTZ-JKFIT

    Orbital Energies [Eh]
    ---------------------

    Doubly Occupied:

       1A   -490.013779     2A   -104.833264     3A    -65.153665
       4A    -58.508931     5A    -58.507598     6A    -58.507591
       7A    -11.299472     8A    -11.285462     9A    -11.258409
      10A    -10.557777    11A     -9.826355    12A     -8.024607
      13A     -8.022848    14A     -8.022815    15A     -7.437709
      16A     -7.431318    17A     -7.431268    18A     -3.181221
      19A     -3.177929    20A     -3.177893    21A     -3.169645
      22A     -3.169644    23A     -1.166453    24A     -1.087745
      25A     -1.006141    26A     -0.916796    27A     -0.837271
      28A     -0.684537    29A     -0.652883    30A     -0.616743
      31A     -0.580535    32A     -0.541413    33A     -0.515056
      34A     -0.488545    35A     -0.447647    36A     -0.446282
      37A     -0.403973    38A     -0.401991

  @DF-RHF Final Energy: -3149.09476313032656

   => Energetics <=

    Nuclear Repulsion Energy =            374.5622255448815849
    One-Electron Energy =               -5121.7275647929764091
    Two-Electron Energy =                1598.0705761177682689
    Total Energy =                      -3149.0947631303265553
  Basis Set: (AUG-CC-PVTZ AUX)
    Blend: AUG-CC-PVTZ-RI
    Molecular point group: c1

    Geometry (in Angstrom), charge = 0, multiplicity = 1:

       Center              X                  Y                   Z               Mass
    ------------   -----------------  -----------------  -----------------  -----------------
         BR           1.907279967867    -0.072622973544    -0.044216266584    78.918337600000
         CL          -3.097033032133    -0.569770973544    -0.098780266584    34.968852682000
         C           -0.781246032133     0.904809026456    -0.256799266584    12.000000000000
         C            0.031988967867    -0.106964973544     0.529774733416    12.000000000000
         C           -2.230571032133     0.967418026456     0.200512733416    12.000000000000
         H           -0.344049032133     1.901354026456    -0.126266266584     1.007825032230
         H           -0.736747032133     0.666209026456    -1.323373266584     1.007825032230
         H            0.040725967867     0.115565026456     1.597866733416     1.007825032230
         H           -0.313664032133    -1.126946973544     0.369815733416     1.007825032230
         H           -2.288507532133     1.134825726456     1.074866433416     1.007825032230
         H           -2.769323032133     1.746645026456    -0.340858266584     1.007825032230

  Basis Set: AUG-CC-PVTZ
    Blend: AUG-CC-PVTZ
  Basis Set: (AUG-CC-PVTZ AUX)
    Blend: AUG-CC-PVTZ-JKFIT
	 Reference Energy          =   -3149.0947631303265553 [Eh]
	 Singles Energy            =      -0.0000000000000000 [Eh]
	 Same-Spin Energy          =      -0.2757126401271668 [Eh]
	 Opposite-Spin Energy      =      -0.8319975874020160 [Eh]
	 Correlation Energy        =      -1.1077102275291828 [Eh]
	 Total Energy              =   -3150.2024733578555242 [Eh]

	 ================> DF-SCS-MP2 Energies <==================
	-----------------------------------------------------------
	 SCS Same-Spin Scale       =       0.3333333333333333 [-]
	 SCS Opposite-Spin Scale   =       1.2000000000000000 [-]
	 SCS Same-Spin Energy      =      -0.0919042133757223 [Eh]
	 SCS Opposite-Spin Energy  =      -0.9983971048824192 [Eh]
	 SCS Correlation Energy    =      -1.0903013182581414 [Eh]
	 SCS Total Energy          =   -3150.1850644485848534 [Eh]
	-----------------------------------------------------------

  Dipole Moment: [D]
     X:    -0.9311      Y:     1.6980      Z:     0.7201     Total:     2.0661

*** Psi4 exiting successfully. Buy a developer a beer!
