                               Psi4 1.4a3.dev225

  ==> Input File <==

--------------------------------------------------------------------------
#psi4
#
memory 32 gb

molecule  {
0 1
 Br        2.0414680    -0.1099760    -0.0581920
 Cl       -3.1137341    -0.5252624    -0.0377428
  C       -0.6470580     0.8674560    -0.2707750
  C        0.1661770    -0.1443180     0.5157990
  C       -2.0963830     0.9300650     0.1865370
  H       -0.2098610     1.8640010    -0.1402420
  H       -0.6025590     0.6288560    -1.3373490
  H        0.1749140     0.0782120     1.5838910
  H       -0.1794760    -1.1643000     0.3558400
  H       -2.1673080     1.1350030     1.2569080
  H       -2.6351350     1.7092920    -0.3548340
units angstrom
no_reorient  #important for SAPT in psi4, default
symmetry c1  #important for SAPT in psi4, default
}

set PROPERTIES_ORIGIN ["COM"]
properties('MP2/aug-cc-pvtz', properties = ['dipole'])
--------------------------------------------------------------------------

    Molecular point group: c1
  Charge       = 0
  Multiplicity = 1
  Basis Set: AUG-CC-PVTZ
    Blend: AUG-CC-PVTZ
  Basis Set: (AUG-CC-PVTZ AUX)
    Blend: AUG-CC-PVTZ-JKFIT

    Orbital Energies [Eh]
    ---------------------

    Doubly Occupied:

       1A   -490.014825     2A   -104.834042     3A    -65.154713
       4A    -58.509979     5A    -58.508645     6A    -58.508638
       7A    -11.307797     8A    -11.300969     9A    -11.262072
      10A    -10.558441    11A     -9.827406    12A     -8.025276
      13A     -8.023489    14A     -8.023446    15A     -7.438760
      16A     -7.432369    17A     -7.432318    18A     -3.182272
      19A     -3.178980    20A     -3.178943    21A     -3.170695
      22A     -3.170694    23A     -1.156949    24A     -1.090801
      25A     -1.003652    26A     -0.899173    27A     -0.823603
      28A     -0.675470    29A     -0.644064    30A     -0.608998
      31A     -0.578836    32A     -0.541576    33A     -0.512950
      34A     -0.490548    35A     -0.445563    36A     -0.441734
      37A     -0.404892    38A     -0.403368

  @DF-RHF Final Energy: -3149.12700187722066

   => Energetics <=

    Nuclear Repulsion Energy =            370.2195402928783778
    One-Electron Energy =               -5113.1591902440450212
    Two-Electron Energy =                1593.8126480739465478
    Total Energy =                      -3149.1270018772202093
  Basis Set: (AUG-CC-PVTZ AUX)
    Blend: AUG-CC-PVTZ-RI
    Molecular point group: c1

    Geometry (in Angstrom), charge = 0, multiplicity = 1:

       Center              X                  Y                   Z               Mass
    ------------   -----------------  -----------------  -----------------  -----------------
         BR           1.941201396674    -0.091223327499    -0.062305164070    78.918337600000
         CL          -3.214000703326    -0.506509727499    -0.041855964070    34.968852682000
         C           -0.747324603326     0.886208672501    -0.274888164070    12.000000000000
         C            0.065910396674    -0.125565327499     0.511685835930    12.000000000000
         C           -2.196649603326     0.948817672501     0.182423835930    12.000000000000
         H           -0.310127603326     1.882753672501    -0.144355164070     1.007825032230
         H           -0.702825603326     0.647608672501    -1.341462164070     1.007825032230
         H            0.074647396674     0.096964672501     1.579777835930     1.007825032230
         H           -0.279742603326    -1.145547327499     0.351726835930     1.007825032230
         H           -2.267574603326     1.153755672501     1.252794835930     1.007825032230
         H           -2.735401603326     1.728044672501    -0.358947164070     1.007825032230

  Basis Set: AUG-CC-PVTZ
    Blend: AUG-CC-PVTZ
  Basis Set: (AUG-CC-PVTZ AUX)
    Blend: AUG-CC-PVTZ-JKFIT
	 Reference Energy          =   -3149.1270018772206640 [Eh]
	 Singles Energy            =      -0.0000000000000000 [Eh]
	 Same-Spin Energy          =      -0.2755668209343567 [Eh]
	 Opposite-Spin Energy      =      -0.8323960033288100 [Eh]
	 Correlation Energy        =      -1.1079628242631667 [Eh]
	 Total Energy              =   -3150.2349647014839320 [Eh]

	 ================> DF-SCS-MP2 Energies <==================
	-----------------------------------------------------------
	 SCS Same-Spin Scale       =       0.3333333333333333 [-]
	 SCS Opposite-Spin Scale   =       1.2000000000000000 [-]
	 SCS Same-Spin Energy      =      -0.0918556069781189 [Eh]
	 SCS Opposite-Spin Energy  =      -0.9988752039945720 [Eh]
	 SCS Correlation Energy    =      -1.0907308109726908 [Eh]
	 SCS Total Energy          =   -3150.2177326881933368 [Eh]
	-----------------------------------------------------------

  Dipole Moment: [D]
     X:    -0.7617      Y:     1.6070      Z:     0.6340     Total:     1.8880

*** Psi4 exiting successfully. Buy a developer a beer!
