                               Psi4 1.4a3.dev225

  ==> Input File <==

--------------------------------------------------------------------------
#psi4
#
memory 32 gb

molecule  {
0 1
 Br        2.0414680    -0.1099760    -0.0581920
 Cl       -2.9628450    -0.6071240    -0.1127560
  C       -0.6470580     0.8674560    -0.2707750
  C       -0.0250359    -0.1478197     0.5743256
  C       -2.0963830     0.9300650     0.1865370
  H       -0.2098610     1.8640010    -0.1402420
  H       -0.6025590     0.6288560    -1.3373490
  H        0.1749140     0.0782120     1.5838910
  H       -0.1794760    -1.1643000     0.3558400
  H       -2.1673080     1.1350030     1.2569080
  H       -2.6351350     1.7092920    -0.3548340
units angstrom
no_reorient  #important for SAPT in psi4, default
symmetry c1  #important for SAPT in psi4, default
}

set PROPERTIES_ORIGIN ["COM"]
properties('MP2/aug-cc-pvtz', properties = ['dipole'])
--------------------------------------------------------------------------

    Molecular point group: c1
  Charge       = 0
  Multiplicity = 1
  Basis Set: AUG-CC-PVTZ
    Blend: AUG-CC-PVTZ
  Basis Set: (AUG-CC-PVTZ AUX)
    Blend: AUG-CC-PVTZ-JKFIT

    Orbital Energies [Eh]
    ---------------------

    Doubly Occupied:

       1A   -489.993462     2A   -104.840972     3A    -65.133164
       4A    -58.488359     5A    -58.487144     6A    -58.487141
       7A    -11.315150     8A    -11.314421     9A    -11.266327
      10A    -10.565483    11A     -9.805334    12A     -8.032305
      13A     -8.030518    14A     -8.030486    15A     -7.416046
      16A     -7.410514    17A     -7.410497    18A     -3.159164
      19A     -3.156526    20A     -3.156517    21A     -3.149294
      22A     -3.149293    23A     -1.172779    24A     -1.090189
      25A     -0.986498    26A     -0.908453    27A     -0.838686
      28A     -0.698888    29A     -0.664727    30A     -0.614206
      31A     -0.594554    32A     -0.563581    33A     -0.523600
      34A     -0.458129    35A     -0.451116    36A     -0.428888
      37A     -0.392096    38A     -0.390723

  @DF-RHF Final Energy: -3149.10916563561295

   => Energetics <=

    Nuclear Repulsion Energy =            370.4633106809870355
    One-Electron Energy =               -5113.9944856075935604
    Two-Electron Energy =                1594.4220092909940831
    Total Energy =                      -3149.1091656356124986
  Basis Set: (AUG-CC-PVTZ AUX)
    Blend: AUG-CC-PVTZ-RI
    Molecular point group: c1

    Geometry (in Angstrom), charge = 0, multiplicity = 1:

       Center              X                  Y                   Z               Mass
    ------------   -----------------  -----------------  -----------------  -----------------
         BR           1.922078811330    -0.072596062027    -0.049987102521    78.918337600000
         CL          -3.082234188670    -0.569744062027    -0.104551102521    34.968852682000
         C           -0.766447188670     0.904835937973    -0.262570102521    12.000000000000
         C           -0.144425088670    -0.110439762027     0.582530497479    12.000000000000
         C           -2.215772188670     0.967444937973     0.194741897479    12.000000000000
         H           -0.329250188670     1.901380937973    -0.132037102521     1.007825032230
         H           -0.721948188670     0.666235937973    -1.329144102521     1.007825032230
         H            0.055524811330     0.115591937973     1.592095897479     1.007825032230
         H           -0.298865188670    -1.126920062027     0.364044897479     1.007825032230
         H           -2.286697188670     1.172382937973     1.265112897479     1.007825032230
         H           -2.754524188670     1.746671937973    -0.346629102521     1.007825032230

  Basis Set: AUG-CC-PVTZ
    Blend: AUG-CC-PVTZ
  Basis Set: (AUG-CC-PVTZ AUX)
    Blend: AUG-CC-PVTZ-JKFIT
	 Reference Energy          =   -3149.1091656356129533 [Eh]
	 Singles Energy            =      -0.0000000000000000 [Eh]
	 Same-Spin Energy          =      -0.2755208446778460 [Eh]
	 Opposite-Spin Energy      =      -0.8319400562828447 [Eh]
	 Correlation Energy        =      -1.1074609009606906 [Eh]
	 Total Energy              =   -3150.2166265365735853 [Eh]

	 ================> DF-SCS-MP2 Energies <==================
	-----------------------------------------------------------
	 SCS Same-Spin Scale       =       0.3333333333333333 [-]
	 SCS Opposite-Spin Scale   =       1.2000000000000000 [-]
	 SCS Same-Spin Energy      =      -0.0918402815592820 [Eh]
	 SCS Opposite-Spin Energy  =      -0.9983280675394136 [Eh]
	 SCS Correlation Energy    =      -1.0901683490986955 [Eh]
	 SCS Total Energy          =   -3150.1993339847117568 [Eh]
	-----------------------------------------------------------

  Dipole Moment: [D]
     X:    -1.6776      Y:     1.7468      Z:     0.7839     Total:     2.5456

*** Psi4 exiting successfully. Buy a developer a beer!
