                               Psi4 1.4a3.dev225

  ==> Input File <==

--------------------------------------------------------------------------
#psi4
#
memory 32 gb

molecule  {
0 1
 Br        2.0414680    -0.1099760    -0.0581920
 Cl       -2.9628450    -0.6071240    -0.1127560
  C       -0.6470580     0.8674560    -0.2707750
  C        0.1661770    -0.1443180     0.5157990
  C       -2.0963830     0.9300650     0.1865370
  H       -0.2098610     1.8640010    -0.1402420
  H       -0.6025590     0.6288560    -1.3373490
  H        0.1747538     0.0741329     1.5643121
  H       -0.1794760    -1.1643000     0.3558400
  H       -2.1673080     1.1350030     1.2569080
  H       -2.6351350     1.7092920    -0.3548340
units angstrom
no_reorient  #important for SAPT in psi4, default
symmetry c1  #important for SAPT in psi4, default
}

set PROPERTIES_ORIGIN ["COM"]
properties('MP2/aug-cc-pvtz', properties = ['dipole'])
--------------------------------------------------------------------------

    Molecular point group: c1
  Charge       = 0
  Multiplicity = 1
  Basis Set: AUG-CC-PVTZ
    Blend: AUG-CC-PVTZ
  Basis Set: (AUG-CC-PVTZ AUX)
    Blend: AUG-CC-PVTZ-JKFIT

    Orbital Energies [Eh]
    ---------------------

    Doubly Occupied:

       1A   -490.013583     2A   -104.834350     3A    -65.153475
       4A    -58.508739     5A    -58.507410     6A    -58.507403
       7A    -11.308683     8A    -11.297128     9A    -11.259364
      10A    -10.558831    11A     -9.826169    12A     -8.025659
      13A     -8.023884    14A     -8.023853    15A     -7.437516
      16A     -7.431141    17A     -7.431088    18A     -3.181022
      19A     -3.177739    20A     -3.177700    21A     -3.169474
      22A     -3.169474    23A     -1.159230    24A     -1.088535
      25A     -1.001795    26A     -0.900825    27A     -0.824433
      28A     -0.675512    29A     -0.645356    30A     -0.609257
      31A     -0.579428    32A     -0.539860    33A     -0.513102
      34A     -0.488390    35A     -0.446990    36A     -0.443901
      37A     -0.404126    38A     -0.401951

  @DF-RHF Final Energy: -3149.12853347177042

   => Energetics <=

    Nuclear Repulsion Energy =            373.5431252050067314
    One-Electron Energy =               -5119.8505605284917692
    Two-Electron Energy =                1597.1789018517144996
    Total Energy =                      -3149.1285334717704245
  Basis Set: (AUG-CC-PVTZ AUX)
    Blend: AUG-CC-PVTZ-RI
    Molecular point group: c1

    Geometry (in Angstrom), charge = 0, multiplicity = 1:

       Center              X                  Y                   Z               Mass
    ------------   -----------------  -----------------  -----------------  -----------------
         BR           1.907364949828    -0.072839173515    -0.045356613628    78.918337600000
         CL          -3.096948050172    -0.569987173515    -0.099920613628    34.968852682000
         C           -0.781161050172     0.904592826485    -0.257939613628    12.000000000000
         C            0.032073949828    -0.107181173515     0.528634386372    12.000000000000
         C           -2.230486050172     0.967201826485     0.199372386372    12.000000000000
         H           -0.343964050172     1.901137826485    -0.127406613628     1.007825032230
         H           -0.736662050172     0.665992826485    -1.324513613628     1.007825032230
         H            0.040650749828     0.111269726485     1.577147486372     1.007825032230
         H           -0.313579050172    -1.127163173515     0.368675386372     1.007825032230
         H           -2.301411050172     1.172139826485     1.269743386372     1.007825032230
         H           -2.769238050172     1.746428826485    -0.341998613628     1.007825032230

  Basis Set: AUG-CC-PVTZ
    Blend: AUG-CC-PVTZ
  Basis Set: (AUG-CC-PVTZ AUX)
    Blend: AUG-CC-PVTZ-JKFIT
	 Reference Energy          =   -3149.1285334717704245 [Eh]
	 Singles Energy            =      -0.0000000000000000 [Eh]
	 Same-Spin Energy          =      -0.2758374454345009 [Eh]
	 Opposite-Spin Energy      =      -0.8325754342887073 [Eh]
	 Correlation Energy        =      -1.1084128797232082 [Eh]
	 Total Energy              =   -3150.2369463514937706 [Eh]

	 ================> DF-SCS-MP2 Energies <==================
	-----------------------------------------------------------
	 SCS Same-Spin Scale       =       0.3333333333333333 [-]
	 SCS Opposite-Spin Scale   =       1.2000000000000000 [-]
	 SCS Same-Spin Energy      =      -0.0919458151448336 [Eh]
	 SCS Opposite-Spin Energy  =      -0.9990905211464487 [Eh]
	 SCS Correlation Energy    =      -1.0910363362912823 [Eh]
	 SCS Total Energy          =   -3150.2195698080618058 [Eh]
	-----------------------------------------------------------

  Dipole Moment: [D]
     X:    -0.9408      Y:     1.6609      Z:     0.7007     Total:     2.0334

*** Psi4 exiting successfully. Buy a developer a beer!
