                               Psi4 1.4a3.dev225

  ==> Input File <==

--------------------------------------------------------------------------
#psi4
#
memory 32 gb

molecule  {
0 1
 Br        2.0414680    -0.1099760    -0.0581920
 Cl       -2.8568717    -0.6523897    -0.1609924
  C       -0.6470580     0.8674560    -0.2707750
  C        0.1661770    -0.1443180     0.5157990
  C       -2.0963830     0.9300650     0.1865370
  H       -0.2098610     1.8640010    -0.1402420
  H       -0.6025590     0.6288560    -1.3373490
  H        0.1749140     0.0782120     1.5838910
  H       -0.1794760    -1.1643000     0.3558400
  H       -2.1673080     1.1350030     1.2569080
  H       -2.6351350     1.7092920    -0.3548340
units angstrom
no_reorient  #important for SAPT in psi4, default
symmetry c1  #important for SAPT in psi4, default
}

set PROPERTIES_ORIGIN ["COM"]
properties('MP2/aug-cc-pvtz', properties = ['dipole'])
--------------------------------------------------------------------------

    Molecular point group: c1
  Charge       = 0
  Multiplicity = 1
  Basis Set: AUG-CC-PVTZ
    Blend: AUG-CC-PVTZ
  Basis Set: (AUG-CC-PVTZ AUX)
    Blend: AUG-CC-PVTZ-JKFIT

    Orbital Energies [Eh]
    ---------------------

    Doubly Occupied:

       1A   -490.012867     2A   -104.834411     3A    -65.152758
       4A    -58.508022     5A    -58.506693     6A    -58.506685
       7A    -11.309187     8A    -11.298191     9A    -11.257846
      10A    -10.558998    11A     -9.825453    12A     -8.025815
      13A     -8.024044    14A     -8.024017    15A     -7.436800
      16A     -7.430426    17A     -7.430371    18A     -3.180308
      19A     -3.177025    20A     -3.176983    21A     -3.168757
      22A     -3.168757    23A     -1.161168    24A     -1.085673
      25A     -1.000388    26A     -0.900526    27A     -0.822560
      28A     -0.674478    29A     -0.645147    30A     -0.607946
      31A     -0.579382    32A     -0.537686    33A     -0.512669
      34A     -0.486665    35A     -0.447732    36A     -0.444497
      37A     -0.403201    38A     -0.400934

  @DF-RHF Final Energy: -3149.12700047666340

   => Energetics <=

    Nuclear Repulsion Energy =            375.8176660731143102
    One-Electron Energy =               -5124.4392025418392222
    Two-Electron Energy =                1599.4945359920616283
    Total Energy =                      -3149.1270004766633974
  Basis Set: (AUG-CC-PVTZ AUX)
    Blend: AUG-CC-PVTZ-RI
    Molecular point group: c1

    Geometry (in Angstrom), charge = 0, multiplicity = 1:

       Center              X                  Y                   Z               Mass
    ------------   -----------------  -----------------  -----------------  -----------------
         BR           1.883598979411    -0.062714523641    -0.034665949897    78.918337600000
         CL          -3.014740720589    -0.605128223641    -0.137466349897    34.968852682000
         C           -0.804927020589     0.914717476359    -0.247248949897    12.000000000000
         C            0.008307979411    -0.097056523641     0.539325050103    12.000000000000
         C           -2.254252020589     0.977326476359     0.210063050103    12.000000000000
         H           -0.367730020589     1.911262476359    -0.116715949897     1.007825032230
         H           -0.760428020589     0.676117476359    -1.313822949897     1.007825032230
         H            0.017044979411     0.125473476359     1.607417050103     1.007825032230
         H           -0.337345020589    -1.117038523641     0.379366050103     1.007825032230
         H           -2.325177020589     1.182264476359     1.280434050103     1.007825032230
         H           -2.793004020589     1.756553476359    -0.331307949897     1.007825032230

  Basis Set: AUG-CC-PVTZ
    Blend: AUG-CC-PVTZ
  Basis Set: (AUG-CC-PVTZ AUX)
    Blend: AUG-CC-PVTZ-JKFIT
	 Reference Energy          =   -3149.1270004766633974 [Eh]
	 Singles Energy            =      -0.0000000000000000 [Eh]
	 Same-Spin Energy          =      -0.2762126885214110 [Eh]
	 Opposite-Spin Energy      =      -0.8331645682311810 [Eh]
	 Correlation Energy        =      -1.1093772567525919 [Eh]
	 Total Energy              =   -3150.2363777334157930 [Eh]

	 ================> DF-SCS-MP2 Energies <==================
	-----------------------------------------------------------
	 SCS Same-Spin Scale       =       0.3333333333333333 [-]
	 SCS Opposite-Spin Scale   =       1.2000000000000000 [-]
	 SCS Same-Spin Energy      =      -0.0920708961738037 [Eh]
	 SCS Opposite-Spin Energy  =      -0.9997974818774171 [Eh]
	 SCS Correlation Energy    =      -1.0918683780512208 [Eh]
	 SCS Total Energy          =   -3150.2188688547144011 [Eh]
	-----------------------------------------------------------

  Dipole Moment: [D]
     X:    -1.0582      Y:     1.6892      Z:     0.7342     Total:     2.1242

*** Psi4 exiting successfully. Buy a developer a beer!
