                               Psi4 1.4a3.dev225

  ==> Input File <==

--------------------------------------------------------------------------
#psi4
#
memory 32 gb

molecule  {
0 1
 Br        2.0414680    -0.1099760    -0.0581920
 Cl       -2.9628450    -0.6071240    -0.1127560
  C       -0.6470580     0.8674560    -0.2707750
  C        0.1661770    -0.1443180     0.5157990
  C       -2.0963830     0.9300650     0.1865370
  H       -0.2098610     1.8640010    -0.1402420
  H       -0.6025590     0.6288560    -1.3373490
  H        0.1749140     0.0782120     1.5838910
  H       -0.1794760    -1.1643000     0.3558400
  H       -2.1673080     1.1350030     1.2569080
  H       -2.6351350     1.7092920    -0.3548340
units angstrom
no_reorient  #important for SAPT in psi4, default
symmetry c1  #important for SAPT in psi4, default
}

set PROPERTIES_ORIGIN ["COM"]
properties('MP2/aug-cc-pvtz', properties = ['dipole'])
--------------------------------------------------------------------------

    Molecular point group: c1
  Charge       = 0
  Multiplicity = 1
  Basis Set: AUG-CC-PVTZ
    Blend: AUG-CC-PVTZ
  Basis Set: (AUG-CC-PVTZ AUX)
    Blend: AUG-CC-PVTZ-JKFIT

    Orbital Energies [Eh]
    ---------------------

    Doubly Occupied:

       1A   -490.013695     2A   -104.834336     3A    -65.153585
       4A    -58.508849     5A    -58.507518     6A    -58.507511
       7A    -11.308655     8A    -11.299379     9A    -11.259508
      10A    -10.558817    11A     -9.826279    12A     -8.025645
      13A     -8.023871    14A     -8.023839    15A     -7.437629
      16A     -7.431247    17A     -7.431194    18A     -3.181139
      19A     -3.177852    20A     -3.177812    21A     -3.169575
      22A     -3.169575    23A     -1.159105    24A     -1.087858
      25A     -1.001813    26A     -0.899905    27A     -0.822989
      28A     -0.674814    29A     -0.644550    30A     -0.608128
      31A     -0.579285    32A     -0.539303    33A     -0.512846
      34A     -0.488297    35A     -0.446975    36A     -0.443884
      37A     -0.403915    38A     -0.402010

  @DF-RHF Final Energy: -3149.12843036161939

   => Energetics <=

    Nuclear Repulsion Energy =            373.4241028968196474
    One-Electron Energy =               -5119.6186986059037736
    Two-Electron Energy =                1597.0661653474646755
    Total Energy =                      -3149.1284303616193938
  Basis Set: (AUG-CC-PVTZ AUX)
    Blend: AUG-CC-PVTZ-RI
    Molecular point group: c1

    Geometry (in Angstrom), charge = 0, multiplicity = 1:

       Center              X                  Y                   Z               Mass
    ------------   -----------------  -----------------  -----------------  -----------------
         BR           1.907363914432    -0.072865537332    -0.045483154906    78.918337600000
         CL          -3.096949085568    -0.570013537332    -0.100047154906    34.968852682000
         C           -0.781162085568     0.904566462668    -0.258066154906    12.000000000000
         C            0.032072914432    -0.107207537332     0.528507845094    12.000000000000
         C           -2.230487085568     0.967175462668     0.199245845094    12.000000000000
         H           -0.343965085568     1.901111462668    -0.127533154906     1.007825032230
         H           -0.736663085568     0.665966462668    -1.324640154906     1.007825032230
         H            0.040809914432     0.115322462668     1.596599845094     1.007825032230
         H           -0.313580085568    -1.127189537332     0.368548845094     1.007825032230
         H           -2.301412085568     1.172113462668     1.269616845094     1.007825032230
         H           -2.769239085568     1.746402462668    -0.342125154906     1.007825032230

  Basis Set: AUG-CC-PVTZ
    Blend: AUG-CC-PVTZ
  Basis Set: (AUG-CC-PVTZ AUX)
    Blend: AUG-CC-PVTZ-JKFIT
	 Reference Energy          =   -3149.1284303616193938 [Eh]
	 Singles Energy            =      -0.0000000000000000 [Eh]
	 Same-Spin Energy          =      -0.2758665630602214 [Eh]
	 Opposite-Spin Energy      =      -0.8327152514395508 [Eh]
	 Correlation Energy        =      -1.1085818144997721 [Eh]
	 Total Energy              =   -3150.2370121761191513 [Eh]

	 ================> DF-SCS-MP2 Energies <==================
	-----------------------------------------------------------
	 SCS Same-Spin Scale       =       0.3333333333333333 [-]
	 SCS Opposite-Spin Scale   =       1.2000000000000000 [-]
	 SCS Same-Spin Energy      =      -0.0919555210200738 [Eh]
	 SCS Opposite-Spin Energy  =      -0.9992583017274610 [Eh]
	 SCS Correlation Energy    =      -1.0912138227475348 [Eh]
	 SCS Total Energy          =   -3150.2196441843670982 [Eh]
	-----------------------------------------------------------

  Dipole Moment: [D]
     X:    -0.9372      Y:     1.6619      Z:     0.6960     Total:     2.0309

*** Psi4 exiting successfully. Buy a developer a beer!
