                               Psi4 1.4a3.dev225

  ==> Input File <==

--------------------------------------------------------------------------
#psi4
#
memory 32 gb

molecule  {
0 1
 Br        2.0414680    -0.1099760    -0.0581920
 Cl       -2.9628450    -0.6071240    -0.1127560
  C       -0.6470580     0.8674560    -0.2707750
  C        0.1470557    -0.1446682     0.5216517
  C       -2.0963830     0.9300650     0.1865370
  H       -0.2098610     1.8640010    -0.1402420
  H       -0.6025590     0.6288560    -1.3373490
  H        0.1749140     0.0782120     1.5838910
  H       -0.1794760    -1.1643000     0.3558400
  H       -2.1673080     1.1350030     1.2569080
  H       -2.6351350     1.7092920    -0.3548340
units angstrom
no_reorient  #important for SAPT in psi4, default
symmetry c1  #important for SAPT in psi4, default
}

set PROPERTIES_ORIGIN ["COM"]
properties('MP2/aug-cc-pvtz', properties = ['dipole'])
--------------------------------------------------------------------------

    Molecular point group: c1
  Charge       = 0
  Multiplicity = 1
  Basis Set: AUG-CC-PVTZ
    Blend: AUG-CC-PVTZ
  Basis Set: (AUG-CC-PVTZ AUX)
    Blend: AUG-CC-PVTZ-JKFIT

    Orbital Energies [Eh]
    ---------------------

    Doubly Occupied:

       1A   -490.012012     2A   -104.834835     3A    -65.151853
       4A    -58.507118     5A    -58.505790     6A    -58.505784
       7A    -11.309009     8A    -11.300318     9A    -11.259946
      10A    -10.559317    11A     -9.824454    12A     -8.026144
      13A     -8.024369    14A     -8.024338    15A     -7.435741
      16A     -7.429433    17A     -7.429384    18A     -3.179216
      19A     -3.175996    20A     -3.175961    21A     -3.167796
      22A     -3.167796    23A     -1.160137    24A     -1.087238
      25A     -1.000459    26A     -0.901006    27A     -0.824609
      28A     -0.677058    29A     -0.646026    30A     -0.608637
      31A     -0.580911    32A     -0.541896    33A     -0.513795
      34A     -0.483279    35A     -0.447023    36A     -0.444337
      37A     -0.403197    38A     -0.401407

  @DF-RHF Final Energy: -3149.12826975833013

   => Energetics <=

    Nuclear Repulsion Energy =            373.0905344619333164
    One-Electron Energy =               -5118.9823611290230474
    Two-Electron Energy =                1596.7635569087599379
    Total Energy =                      -3149.1282697583301342
  Basis Set: (AUG-CC-PVTZ AUX)
    Blend: AUG-CC-PVTZ-RI
    Molecular point group: c1

    Geometry (in Angstrom), charge = 0, multiplicity = 1:

       Center              X                  Y                   Z               Mass
    ------------   -----------------  -----------------  -----------------  -----------------
         BR           1.908835404892    -0.072838587493    -0.045933552746    78.918337600000
         CL          -3.095477595108    -0.569986587493    -0.100497552746    34.968852682000
         C           -0.779690595108     0.904593412507    -0.258516552746    12.000000000000
         C            0.014423104892    -0.107530787493     0.533910147254    12.000000000000
         C           -2.229015595108     0.967202412507     0.198795447254    12.000000000000
         H           -0.342493595108     1.901138412507    -0.127983552746     1.007825032230
         H           -0.735191595108     0.665993412507    -1.325090552746     1.007825032230
         H            0.042281404892     0.115349412507     1.596149447254     1.007825032230
         H           -0.312108595108    -1.127162587493     0.368098447254     1.007825032230
         H           -2.299940595108     1.172140412507     1.269166447254     1.007825032230
         H           -2.767767595108     1.746429412507    -0.342575552746     1.007825032230

  Basis Set: AUG-CC-PVTZ
    Blend: AUG-CC-PVTZ
  Basis Set: (AUG-CC-PVTZ AUX)
    Blend: AUG-CC-PVTZ-JKFIT
	 Reference Energy          =   -3149.1282697583301342 [Eh]
	 Singles Energy            =      -0.0000000000000000 [Eh]
	 Same-Spin Energy          =      -0.2757529192284013 [Eh]
	 Opposite-Spin Energy      =      -0.8325338876746464 [Eh]
	 Correlation Energy        =      -1.1082868069030478 [Eh]
	 Total Energy              =   -3150.2365565652330588 [Eh]

	 ================> DF-SCS-MP2 Energies <==================
	-----------------------------------------------------------
	 SCS Same-Spin Scale       =       0.3333333333333333 [-]
	 SCS Opposite-Spin Scale   =       1.2000000000000000 [-]
	 SCS Same-Spin Energy      =      -0.0919176397428004 [Eh]
	 SCS Opposite-Spin Energy  =      -0.9990406652095757 [Eh]
	 SCS Correlation Energy    =      -1.0909583049523761 [Eh]
	 SCS Total Energy          =   -3150.2192280632825714 [Eh]
	-----------------------------------------------------------

  Dipole Moment: [D]
     X:    -1.0041      Y:     1.6692      Z:     0.7057     Total:     2.0718

*** Psi4 exiting successfully. Buy a developer a beer!
