                               Psi4 1.4a3.dev225

  ==> Input File <==

--------------------------------------------------------------------------
#psi4
#
memory 32 gb

molecule  {
0 1
 Br        2.0414680    -0.1099760    -0.0581920
 Cl       -2.9628450    -0.6071240    -0.1127560
  C       -0.6470580     0.8674560    -0.2707750
  C        0.1661770    -0.1443180     0.5157990
  C       -2.0963830     0.9300650     0.1865370
  H       -0.2098610     1.8640010    -0.1402420
  H       -0.6025590     0.6288560    -1.3373490
  H        0.1749140     0.0782120     1.5838910
  H       -0.1794760    -1.1643000     0.3558400
  H       -2.1673080     1.1350030     1.2569080
  H       -2.5363824     1.5664606    -0.2556013
units angstrom
no_reorient  #important for SAPT in psi4, default
symmetry c1  #important for SAPT in psi4, default
}

set PROPERTIES_ORIGIN ["COM"]
properties('MP2/aug-cc-pvtz', properties = ['dipole'])
--------------------------------------------------------------------------

    Molecular point group: c1
  Charge       = 0
  Multiplicity = 1
  Basis Set: AUG-CC-PVTZ
    Blend: AUG-CC-PVTZ
  Basis Set: (AUG-CC-PVTZ AUX)
    Blend: AUG-CC-PVTZ-JKFIT

    Orbital Energies [Eh]
    ---------------------

    Doubly Occupied:

       1A   -490.013205     2A   -104.833550     3A    -65.153104
       4A    -58.508365     5A    -58.507039     6A    -58.507032
       7A    -11.299070     8A    -11.285884     9A    -11.258945
      10A    -10.558061    11A     -9.825805    12A     -8.024892
      13A     -8.023130    14A     -8.023097    15A     -7.437145
      16A     -7.430782    17A     -7.430730    18A     -3.180649
      19A     -3.177370    20A     -3.177332    21A     -3.169120
      22A     -3.169120    23A     -1.166315    24A     -1.087676
      25A     -1.006497    26A     -0.919936    27A     -0.830321
      28A     -0.685655    29A     -0.664213    30A     -0.608459
      31A     -0.579248    32A     -0.544111    33A     -0.513700
      34A     -0.488133    35A     -0.450767    36A     -0.444064
      37A     -0.403611    38A     -0.401937

  @DF-RHF Final Energy: -3149.09467652784906

   => Energetics <=

    Nuclear Repulsion Energy =            374.6336821175242449
    One-Electron Energy =               -5121.8805799523715905
    Two-Electron Energy =                1598.1522213069981717
    Total Energy =                      -3149.0946765278486055
  Basis Set: (AUG-CC-PVTZ AUX)
    Blend: AUG-CC-PVTZ-RI
    Molecular point group: c1

    Geometry (in Angstrom), charge = 0, multiplicity = 1:

       Center              X                  Y                   Z               Mass
    ------------   -----------------  -----------------  -----------------  -----------------
         BR           1.906725662014    -0.071942397217    -0.046124510281    78.918337600000
         CL          -3.097587337986    -0.569090397217    -0.100688510281    34.968852682000
         C           -0.781800337986     0.905489602783    -0.258707510281    12.000000000000
         C            0.031434662014    -0.106284397217     0.527866489719    12.000000000000
         C           -2.231125337986     0.968098602783     0.198604489719    12.000000000000
         H           -0.344603337986     1.902034602783    -0.128174510281     1.007825032230
         H           -0.737301337986     0.666889602783    -1.325281510281     1.007825032230
         H            0.040171662014     0.116245602783     1.595958489719     1.007825032230
         H           -0.314218337986    -1.126266397217     0.367907489719     1.007825032230
         H           -2.302050337986     1.173036602783     1.268975489719     1.007825032230
         H           -2.671124737986     1.604494202783    -0.243533810281     1.007825032230

  Basis Set: AUG-CC-PVTZ
    Blend: AUG-CC-PVTZ
  Basis Set: (AUG-CC-PVTZ AUX)
    Blend: AUG-CC-PVTZ-JKFIT
	 Reference Energy          =   -3149.0946765278490602 [Eh]
	 Singles Energy            =      -0.0000000000000000 [Eh]
	 Same-Spin Energy          =      -0.2757144503028823 [Eh]
	 Opposite-Spin Energy      =      -0.8319433987516486 [Eh]
	 Correlation Energy        =      -1.1076578490545308 [Eh]
	 Total Energy              =   -3150.2023343769037638 [Eh]

	 ================> DF-SCS-MP2 Energies <==================
	-----------------------------------------------------------
	 SCS Same-Spin Scale       =       0.3333333333333333 [-]
	 SCS Opposite-Spin Scale   =       1.2000000000000000 [-]
	 SCS Same-Spin Energy      =      -0.0919048167676274 [Eh]
	 SCS Opposite-Spin Energy  =      -0.9983320785019782 [Eh]
	 SCS Correlation Energy    =      -1.0902368952696058 [Eh]
	 SCS Total Energy          =   -3150.1849134231188145 [Eh]
	-----------------------------------------------------------

  Dipole Moment: [D]
     X:    -0.9502      Y:     1.6995      Z:     0.7096     Total:     2.0724

*** Psi4 exiting successfully. Buy a developer a beer!
