                               Psi4 1.4a3.dev225

  ==> Input File <==

--------------------------------------------------------------------------
#psi4
#
memory 32 gb

molecule  {
0 1
 Br        2.0414680    -0.1099760    -0.0581920
 Cl       -2.9628450    -0.6071240    -0.1127560
  C       -0.6470580     0.8674560    -0.2707750
  C        0.1852983    -0.1439678     0.5099463
  C       -2.0963830     0.9300650     0.1865370
  H       -0.2098610     1.8640010    -0.1402420
  H       -0.6025590     0.6288560    -1.3373490
  H        0.1749140     0.0782120     1.5838910
  H       -0.1794760    -1.1643000     0.3558400
  H       -2.1673080     1.1350030     1.2569080
  H       -2.6351350     1.7092920    -0.3548340
units angstrom
no_reorient  #important for SAPT in psi4, default
symmetry c1  #important for SAPT in psi4, default
}

set PROPERTIES_ORIGIN ["COM"]
properties('MP2/aug-cc-pvtz', properties = ['dipole'])
--------------------------------------------------------------------------

    Molecular point group: c1
  Charge       = 0
  Multiplicity = 1
  Basis Set: AUG-CC-PVTZ
    Blend: AUG-CC-PVTZ
  Basis Set: (AUG-CC-PVTZ AUX)
    Blend: AUG-CC-PVTZ-JKFIT

    Orbital Energies [Eh]
    ---------------------

    Doubly Occupied:

       1A   -490.015293     2A   -104.833873     3A    -65.155240
       4A    -58.510502     5A    -58.509170     6A    -58.509162
       7A    -11.308347     8A    -11.298591     9A    -11.259127
      10A    -10.558353    11A     -9.828039    12A     -8.025181
      13A     -8.023407    14A     -8.023375    15A     -7.439453
      16A     -7.432998    17A     -7.432941    18A     -3.182996
      19A     -3.179641    20A     -3.179597    21A     -3.171295
      22A     -3.171294    23A     -1.158149    24A     -1.088746
      25A     -1.003075    26A     -0.898763    27A     -0.821364
      28A     -0.672654    29A     -0.643206    30A     -0.607622
      31A     -0.577694    32A     -0.536736    33A     -0.511987
      34A     -0.493320    35A     -0.446902    36A     -0.443430
      37A     -0.404495    38A     -0.402463

  @DF-RHF Final Energy: -3149.12808923263265

   => Energetics <=

    Nuclear Repulsion Energy =            373.7676843376189026
    One-Electron Energy =               -5120.2745865868919282
    Two-Electron Energy =                1597.3788130166406063
    Total Energy =                      -3149.1280892326331013
  Basis Set: (AUG-CC-PVTZ AUX)
    Blend: AUG-CC-PVTZ-RI
    Molecular point group: c1

    Geometry (in Angstrom), charge = 0, multiplicity = 1:

       Center              X                  Y                   Z               Mass
    ------------   -----------------  -----------------  -----------------  -----------------
         BR           1.905892423973    -0.072892487171    -0.045032757067    78.918337600000
         CL          -3.098420576027    -0.570040487171    -0.099596757067    34.968852682000
         C           -0.782633576027     0.904539512829    -0.257615757067    12.000000000000
         C            0.049722723973    -0.106884287171     0.523105542933    12.000000000000
         C           -2.231958576027     0.967148512829     0.199696242933    12.000000000000
         H           -0.345436576027     1.901084512829    -0.127082757067     1.007825032230
         H           -0.738134576027     0.665939512829    -1.324189757067     1.007825032230
         H            0.039338423973     0.115295512829     1.597050242933     1.007825032230
         H           -0.315051576027    -1.127216487171     0.368999242933     1.007825032230
         H           -2.302883576027     1.172086512829     1.270067242933     1.007825032230
         H           -2.770710576027     1.746375512829    -0.341674757067     1.007825032230

  Basis Set: AUG-CC-PVTZ
    Blend: AUG-CC-PVTZ
  Basis Set: (AUG-CC-PVTZ AUX)
    Blend: AUG-CC-PVTZ-JKFIT
	 Reference Energy          =   -3149.1280892326326466 [Eh]
	 Singles Energy            =      -0.0000000000000000 [Eh]
	 Same-Spin Energy          =      -0.2760021031296067 [Eh]
	 Opposite-Spin Energy      =      -0.8329267793448960 [Eh]
	 Correlation Energy        =      -1.1089288824745027 [Eh]
	 Total Energy              =   -3150.2370181151072757 [Eh]

	 ================> DF-SCS-MP2 Energies <==================
	-----------------------------------------------------------
	 SCS Same-Spin Scale       =       0.3333333333333333 [-]
	 SCS Opposite-Spin Scale   =       1.2000000000000000 [-]
	 SCS Same-Spin Energy      =      -0.0920007010432022 [Eh]
	 SCS Opposite-Spin Energy  =      -0.9995121352138752 [Eh]
	 SCS Correlation Energy    =      -1.0915128362570774 [Eh]
	 SCS Total Energy          =   -3150.2196020688897988 [Eh]
	-----------------------------------------------------------

  Dipole Moment: [D]
     X:    -0.8722      Y:     1.6549      Z:     0.6862     Total:     1.9925

*** Psi4 exiting successfully. Buy a developer a beer!
