                               Psi4 1.4a3.dev225

  ==> Input File <==

--------------------------------------------------------------------------
#psi4
#
memory 32 gb

molecule  {
0 1
 Br        2.0414680    -0.1099760    -0.0581920
 Cl       -2.9628450    -0.6071240    -0.1127560
  C       -0.6470580     0.8674560    -0.2707750
  C        0.1661770    -0.1443180     0.5157990
  C       -2.0963830     0.9300650     0.1865370
  H       -0.2098610     1.8640010    -0.1402420
  H       -0.6025590     0.6288560    -1.3373490
  H        0.1741132     0.0578163     1.4859963
  H       -0.1794760    -1.1643000     0.3558400
  H       -2.1673080     1.1350030     1.2569080
  H       -2.6351350     1.7092920    -0.3548340
units angstrom
no_reorient  #important for SAPT in psi4, default
symmetry c1  #important for SAPT in psi4, default
}

set PROPERTIES_ORIGIN ["COM"]
properties('MP2/aug-cc-pvtz', properties = ['dipole'])
--------------------------------------------------------------------------

    Molecular point group: c1
  Charge       = 0
  Multiplicity = 1
  Basis Set: AUG-CC-PVTZ
    Blend: AUG-CC-PVTZ
  Basis Set: (AUG-CC-PVTZ AUX)
    Blend: AUG-CC-PVTZ-JKFIT

    Orbital Energies [Eh]
    ---------------------

    Doubly Occupied:

       1A   -490.013254     2A   -104.834411     3A    -65.153153
       4A    -58.508412     5A    -58.507092     6A    -58.507084
       7A    -11.308799     8A    -11.287916     9A    -11.258876
      10A    -10.558892    11A     -9.825844    12A     -8.025720
      13A     -8.023944    14A     -8.023914    15A     -7.437177
      16A     -7.430830    17A     -7.430777    18A     -3.180670
      19A     -3.177403    20A     -3.177363    21A     -3.169178
      22A     -3.169178    23A     -1.159878    24A     -1.091907
      25A     -1.001804    26A     -0.905554    27A     -0.830693
      28A     -0.678989    29A     -0.648771    30A     -0.613281
      31A     -0.579916    32A     -0.541845    33A     -0.513943
      34A     -0.488765    35A     -0.447064    36A     -0.443973
      37A     -0.404968    38A     -0.401762

  @DF-RHF Final Energy: -3149.12265889108312

   => Energetics <=

    Nuclear Repulsion Energy =            374.0431209807798609
    One-Electron Energy =               -5120.8055683571674308
    Two-Electron Energy =                1597.6397884853038249
    Total Energy =                      -3149.1226588910831197
  Basis Set: (AUG-CC-PVTZ AUX)
    Blend: AUG-CC-PVTZ-RI
    Molecular point group: c1

    Geometry (in Angstrom), charge = 0, multiplicity = 1:

       Center              X                  Y                   Z               Mass
    ------------   -----------------  -----------------  -----------------  -----------------
         BR           1.907369090119    -0.072733716956    -0.044850447220    78.918337600000
         CL          -3.096943909881    -0.569881716956    -0.099414447220    34.968852682000
         C           -0.781156909881     0.904698283044    -0.257433447220    12.000000000000
         C            0.032078090119    -0.107075716956     0.529140552780    12.000000000000
         C           -2.230481909881     0.967307283044     0.199878552780    12.000000000000
         H           -0.343959909881     1.901243283044    -0.126900447220     1.007825032230
         H           -0.736657909881     0.666098283044    -1.324007447220     1.007825032230
         H            0.040014290119     0.095058583044     1.499337852780     1.007825032230
         H           -0.313574909881    -1.127057716956     0.369181552780     1.007825032230
         H           -2.301406909881     1.172245283044     1.270249552780     1.007825032230
         H           -2.769233909881     1.746534283044    -0.341492447220     1.007825032230

  Basis Set: AUG-CC-PVTZ
    Blend: AUG-CC-PVTZ
  Basis Set: (AUG-CC-PVTZ AUX)
    Blend: AUG-CC-PVTZ-JKFIT
	 Reference Energy          =   -3149.1226588910831197 [Eh]
	 Singles Energy            =      -0.0000000000000000 [Eh]
	 Same-Spin Energy          =      -0.2757461565202631 [Eh]
	 Opposite-Spin Energy      =      -0.8321570685316131 [Eh]
	 Correlation Energy        =      -1.1079032250518761 [Eh]
	 Total Energy              =   -3150.2305621161349336 [Eh]

	 ================> DF-SCS-MP2 Energies <==================
	-----------------------------------------------------------
	 SCS Same-Spin Scale       =       0.3333333333333333 [-]
	 SCS Opposite-Spin Scale   =       1.2000000000000000 [-]
	 SCS Same-Spin Energy      =      -0.0919153855067544 [Eh]
	 SCS Opposite-Spin Energy  =      -0.9985884822379356 [Eh]
	 SCS Correlation Energy    =      -1.0905038677446899 [Eh]
	 SCS Total Energy          =   -3150.2131627588278207 [Eh]
	-----------------------------------------------------------

  Dipole Moment: [D]
     X:    -0.9529      Y:     1.6566      Z:     0.7131     Total:     2.0398

*** Psi4 exiting successfully. Buy a developer a beer!
