                               Psi4 1.4a3.dev225

  ==> Input File <==

--------------------------------------------------------------------------
#psi4
#
memory 32 gb

molecule  {
0 1
 Br        2.0414680    -0.1099760    -0.0581920
 Cl       -3.0645970    -0.5543693    -0.0630614
  C       -0.6470580     0.8674560    -0.2707750
  C        0.1661770    -0.1443180     0.5157990
  C       -2.0963830     0.9300650     0.1865370
  H       -0.2098610     1.8640010    -0.1402420
  H       -0.6025590     0.6288560    -1.3373490
  H        0.1749140     0.0782120     1.5838910
  H       -0.1794760    -1.1643000     0.3558400
  H       -2.1673080     1.1350030     1.2569080
  H       -2.6351350     1.7092920    -0.3548340
units angstrom
no_reorient  #important for SAPT in psi4, default
symmetry c1  #important for SAPT in psi4, default
}

set PROPERTIES_ORIGIN ["COM"]
properties('MP2/aug-cc-pvtz', properties = ['dipole'])
--------------------------------------------------------------------------

    Molecular point group: c1
  Charge       = 0
  Multiplicity = 1
  Basis Set: AUG-CC-PVTZ
    Blend: AUG-CC-PVTZ
  Basis Set: (AUG-CC-PVTZ AUX)
    Blend: AUG-CC-PVTZ-JKFIT

    Orbital Energies [Eh]
    ---------------------

    Doubly Occupied:

       1A   -490.014463     2A   -104.834158     3A    -65.154351
       4A    -58.509617     5A    -58.508284     6A    -58.508277
       7A    -11.308091     8A    -11.300464     9A    -11.261212
      10A    -10.558576    11A     -9.827045    12A     -8.025410
      13A     -8.023628    14A     -8.023589    15A     -7.438398
      16A     -7.432009    17A     -7.431958    18A     -3.181909
      19A     -3.178618    20A     -3.178581    21A     -3.170336
      22A     -3.170335    23A     -1.157556    24A     -1.089860
      25A     -1.003076    26A     -0.899397    27A     -0.823406
      28A     -0.675235    29A     -0.644174    30A     -0.608632
      31A     -0.579027    32A     -0.540840    33A     -0.512955
      34A     -0.489828    35A     -0.446117    36A     -0.442536
      37A     -0.404579    38A     -0.402948

  @DF-RHF Final Energy: -3149.12792099992066

   => Energetics <=

    Nuclear Repulsion Energy =            371.2385247000638628
    One-Electron Energy =               -5115.2139419667764741
    Two-Electron Energy =                1594.8474962667919499
    Total Energy =                      -3149.1279209999206614
  Basis Set: (AUG-CC-PVTZ AUX)
    Blend: AUG-CC-PVTZ-RI
    Molecular point group: c1

    Geometry (in Angstrom), charge = 0, multiplicity = 1:

       Center              X                  Y                   Z               Mass
    ------------   -----------------  -----------------  -----------------  -----------------
         BR           1.930182206098    -0.084695989130    -0.056627367079    78.918337600000
         CL          -3.175882793902    -0.529089289130    -0.061496767079    34.968852682000
         C           -0.758343793902     0.892736010870    -0.269210367079    12.000000000000
         C            0.054891206098    -0.119037989130     0.517363632921    12.000000000000
         C           -2.207668793902     0.955345010870     0.188101632921    12.000000000000
         H           -0.321146793902     1.889281010870    -0.138677367079     1.007825032230
         H           -0.713844793902     0.654136010870    -1.335784367079     1.007825032230
         H            0.063628206098     0.103492010870     1.585455632921     1.007825032230
         H           -0.290761793902    -1.139019989130     0.357404632921     1.007825032230
         H           -2.278593793902     1.160283010870     1.258472632921     1.007825032230
         H           -2.746420793902     1.734572010870    -0.353269367079     1.007825032230

  Basis Set: AUG-CC-PVTZ
    Blend: AUG-CC-PVTZ
  Basis Set: (AUG-CC-PVTZ AUX)
    Blend: AUG-CC-PVTZ-JKFIT
	 Reference Energy          =   -3149.1279209999206614 [Eh]
	 Singles Energy            =      -0.0000000000000000 [Eh]
	 Same-Spin Energy          =      -0.2756401049750652 [Eh]
	 Opposite-Spin Energy      =      -0.8324587800031310 [Eh]
	 Correlation Energy        =      -1.1080988849781961 [Eh]
	 Total Energy              =   -3150.2360198848987238 [Eh]

	 ================> DF-SCS-MP2 Energies <==================
	-----------------------------------------------------------
	 SCS Same-Spin Scale       =       0.3333333333333333 [-]
	 SCS Opposite-Spin Scale   =       1.2000000000000000 [-]
	 SCS Same-Spin Energy      =      -0.0918800349916884 [Eh]
	 SCS Opposite-Spin Energy  =      -0.9989505360037572 [Eh]
	 SCS Correlation Energy    =      -1.0908305709954456 [Eh]
	 SCS Total Energy          =   -3150.2187515709160834 [Eh]
	-----------------------------------------------------------

  Dipole Moment: [D]
     X:    -0.8193      Y:     1.6271      Z:     0.6552     Total:     1.9359

*** Psi4 exiting successfully. Buy a developer a beer!
