                               Psi4 1.4a3.dev225

  ==> Input File <==

--------------------------------------------------------------------------
#psi4
#
memory 32 gb

molecule  {
0 1
 Br        2.0414680    -0.1099760    -0.0581920
 Cl       -2.9628450    -0.6071240    -0.1127560
  C       -0.6470580     0.8674560    -0.2707750
  C        0.1661770    -0.1443180     0.5157990
  C       -2.0963830     0.9300650     0.1865370
  H       -0.2098610     1.8640010    -0.1402420
  H       -0.6025590     0.6288560    -1.3373490
  H        0.1757148     0.0986077     1.6817857
  H       -0.1794760    -1.1643000     0.3558400
  H       -2.1673080     1.1350030     1.2569080
  H       -2.6351350     1.7092920    -0.3548340
units angstrom
no_reorient  #important for SAPT in psi4, default
symmetry c1  #important for SAPT in psi4, default
}

set PROPERTIES_ORIGIN ["COM"]
properties('MP2/aug-cc-pvtz', properties = ['dipole'])
--------------------------------------------------------------------------

    Molecular point group: c1
  Charge       = 0
  Multiplicity = 1
  Basis Set: AUG-CC-PVTZ
    Blend: AUG-CC-PVTZ
  Basis Set: (AUG-CC-PVTZ AUX)
    Blend: AUG-CC-PVTZ-JKFIT

    Orbital Energies [Eh]
    ---------------------

    Doubly Occupied:

       1A   -490.014433     2A   -104.834282     3A    -65.154306
       4A    -58.509577     5A    -58.508235     6A    -58.508227
       7A    -11.310181     8A    -11.308527     9A    -11.260354
      10A    -10.558762    11A     -9.826997    12A     -8.025590
      13A     -8.023817    14A     -8.023784    15A     -7.438367
      16A     -7.431942    17A     -7.431891    18A     -3.181898
      19A     -3.178585    20A     -3.178549    21A     -3.170248
      22A     -3.170247    23A     -1.158657    24A     -1.085293
      25A     -1.002028    26A     -0.896514    27A     -0.816719
      28A     -0.672185    29A     -0.641149    30A     -0.602241
      31A     -0.578361    32A     -0.536191    33A     -0.511157
      34A     -0.487756    35A     -0.446923    36A     -0.443810
      37A     -0.403095    38A     -0.402119

  @DF-RHF Final Energy: -3149.12143642343244

   => Energetics <=

    Nuclear Repulsion Energy =            372.8597684255814784
    One-Electron Energy =               -5118.4964196698756496
    Two-Electron Energy =                1596.5152148208626386
    Total Energy =                      -3149.1214364234319874
  Basis Set: (AUG-CC-PVTZ AUX)
    Blend: AUG-CC-PVTZ-RI
    Molecular point group: c1

    Geometry (in Angstrom), charge = 0, multiplicity = 1:

       Center              X                  Y                   Z               Mass
    ------------   -----------------  -----------------  -----------------  -----------------
         BR           1.907358738745    -0.072997357708    -0.046115862592    78.918337600000
         CL          -3.096954261255    -0.570145357708    -0.100679862592    34.968852682000
         C           -0.781167261255     0.904434642292    -0.258698862592    12.000000000000
         C            0.032067738745    -0.107339357708     0.527875137408    12.000000000000
         C           -2.230492261255     0.967043642292     0.198613137408    12.000000000000
         H           -0.343970261255     1.900979642292    -0.128165862592     1.007825032230
         H           -0.736668261255     0.665834642292    -1.325272862592     1.007825032230
         H            0.041605538745     0.135586342292     1.693861837408     1.007825032230
         H           -0.313585261255    -1.127321357708     0.367916137408     1.007825032230
         H           -2.301417261255     1.171981642292     1.268984137408     1.007825032230
         H           -2.769244261255     1.746270642292    -0.342757862592     1.007825032230

  Basis Set: AUG-CC-PVTZ
    Blend: AUG-CC-PVTZ
  Basis Set: (AUG-CC-PVTZ AUX)
    Blend: AUG-CC-PVTZ-JKFIT
	 Reference Energy          =   -3149.1214364234324421 [Eh]
	 Singles Energy            =      -0.0000000000000000 [Eh]
	 Same-Spin Energy          =      -0.2760360782830998 [Eh]
	 Opposite-Spin Energy      =      -0.8335813690192042 [Eh]
	 Correlation Energy        =      -1.1096174473023042 [Eh]
	 Total Energy              =   -3150.2310538707347405 [Eh]

	 ================> DF-SCS-MP2 Energies <==================
	-----------------------------------------------------------
	 SCS Same-Spin Scale       =       0.3333333333333333 [-]
	 SCS Opposite-Spin Scale   =       1.2000000000000000 [-]
	 SCS Same-Spin Energy      =      -0.0920120260943666 [Eh]
	 SCS Opposite-Spin Energy  =      -1.0002976428230450 [Eh]
	 SCS Correlation Energy    =      -1.0923096689174117 [Eh]
	 SCS Total Energy          =   -3150.2137460923499930 [Eh]
	-----------------------------------------------------------

  Dipole Moment: [D]
     X:    -0.9158      Y:     1.6663      Z:     0.6619     Total:     2.0133

*** Psi4 exiting successfully. Buy a developer a beer!
