                               Psi4 1.4a3.dev225

  ==> Input File <==

--------------------------------------------------------------------------
#psi4
#
memory 32 gb

molecule  {
0 1
 Br        2.0414680    -0.1099760    -0.0581920
 Cl       -2.9628450    -0.6071240    -0.1127560
  C       -0.6470580     0.8674560    -0.2707750
  C        0.1929668    -0.1776481     0.5417105
  C       -2.0963830     0.9300650     0.1865370
  H       -0.2098610     1.8640010    -0.1402420
  H       -0.6025590     0.6288560    -1.3373490
  H        0.1749140     0.0782120     1.5838910
  H       -0.1794760    -1.1643000     0.3558400
  H       -2.1673080     1.1350030     1.2569080
  H       -2.6351350     1.7092920    -0.3548340
units angstrom
no_reorient  #important for SAPT in psi4, default
symmetry c1  #important for SAPT in psi4, default
}

set PROPERTIES_ORIGIN ["COM"]
properties('MP2/aug-cc-pvtz', properties = ['dipole'])
--------------------------------------------------------------------------

    Molecular point group: c1
  Charge       = 0
  Multiplicity = 1
  Basis Set: AUG-CC-PVTZ
    Blend: AUG-CC-PVTZ
  Basis Set: (AUG-CC-PVTZ AUX)
    Blend: AUG-CC-PVTZ-JKFIT

    Orbital Energies [Eh]
    ---------------------

    Doubly Occupied:

       1A   -490.015046     2A   -104.833680     3A    -65.154976
       4A    -58.510240     5A    -58.508906     6A    -58.508902
       7A    -11.307641     8A    -11.297253     9A    -11.261009
      10A    -10.558168    11A     -9.827750    12A     -8.024995
      13A     -8.023224    14A     -8.023193    15A     -7.439156
      16A     -7.432700    17A     -7.432667    18A     -3.182697
      19A     -3.179343    20A     -3.179317    21A     -3.171011
      22A     -3.171010    23A     -1.156328    24A     -1.085490
      25A     -1.001403    26A     -0.898604    27A     -0.824065
      28A     -0.674088    29A     -0.642755    30A     -0.606760
      31A     -0.579320    32A     -0.532740    33A     -0.513383
      34A     -0.493865    35A     -0.446935    36A     -0.443303
      37A     -0.405181    38A     -0.401123

  @DF-RHF Final Energy: -3149.12688512471823

   => Energetics <=

    Nuclear Repulsion Energy =            373.2694102088800037
    One-Electron Energy =               -5119.2961362466767241
    Two-Electron Energy =                1596.8998409130786058
    Total Energy =                      -3149.1268851247182283
  Basis Set: (AUG-CC-PVTZ AUX)
    Blend: AUG-CC-PVTZ-RI
    Molecular point group: c1

    Geometry (in Angstrom), charge = 0, multiplicity = 1:

       Center              X                  Y                   Z               Mass
    ------------   -----------------  -----------------  -----------------  -----------------
         BR           1.905302290217    -0.070300600630    -0.047477189048    78.918337600000
         CL          -3.099010709783    -0.567448600630    -0.102041189048    34.968852682000
         C           -0.783223709783     0.907131399370    -0.260060189048    12.000000000000
         C            0.056801090217    -0.137972700630     0.552425310952    12.000000000000
         C           -2.232548709783     0.969740399370     0.197251810952    12.000000000000
         H           -0.346026709783     1.903676399370    -0.129527189048     1.007825032230
         H           -0.738724709783     0.668531399370    -1.326634189048     1.007825032230
         H            0.038748290217     0.117887399370     1.594605810952     1.007825032230
         H           -0.315641709783    -1.124624600630     0.366554810952     1.007825032230
         H           -2.303473709783     1.174678399370     1.267622810952     1.007825032230
         H           -2.771300709783     1.748967399370    -0.344119189048     1.007825032230

  Basis Set: AUG-CC-PVTZ
    Blend: AUG-CC-PVTZ
  Basis Set: (AUG-CC-PVTZ AUX)
    Blend: AUG-CC-PVTZ-JKFIT
	 Reference Energy          =   -3149.1268851247182283 [Eh]
	 Singles Energy            =      -0.0000000000000000 [Eh]
	 Same-Spin Energy          =      -0.2756545076712183 [Eh]
	 Opposite-Spin Energy      =      -0.8326603434137175 [Eh]
	 Correlation Energy        =      -1.1083148510849359 [Eh]
	 Total Energy              =   -3150.2351999758029706 [Eh]

	 ================> DF-SCS-MP2 Energies <==================
	-----------------------------------------------------------
	 SCS Same-Spin Scale       =       0.3333333333333333 [-]
	 SCS Opposite-Spin Scale   =       1.2000000000000000 [-]
	 SCS Same-Spin Energy      =      -0.0918848358904061 [Eh]
	 SCS Opposite-Spin Energy  =      -0.9991924120964610 [Eh]
	 SCS Correlation Energy    =      -1.0910772479868671 [Eh]
	 SCS Total Energy          =   -3150.2179623727051876 [Eh]
	-----------------------------------------------------------

  Dipole Moment: [D]
     X:    -0.8620      Y:     1.6521      Z:     0.6962     Total:     1.9892

*** Psi4 exiting successfully. Buy a developer a beer!
