                               Psi4 1.4a3.dev225

  ==> Input File <==

--------------------------------------------------------------------------
#psi4
#
memory 32 gb

molecule  {
0 1
  N        0.1723510    -0.9422650    -0.0110160
  N       -0.2210270     1.4224780    -0.0033780
  C        2.0395230     0.5887340     0.0077330
  C        2.9514110    -0.3582210    -0.7410450
  C        2.9437130    -0.3688660     0.7522200
  C        0.5840210     0.3414150    -0.0010850
  C       -2.0855860    -0.1066610    -0.0107410
  C       -1.1516460    -1.1458400    -0.0150190
  C       -1.5403890     1.1790090    -0.0074550
  C       -3.5664500    -0.3550010     0.0190800
  H        2.3036370     1.6413390     0.0163460
  H        3.8028480     0.0735720    -1.2571040
  H        2.4662660    -1.1861320    -1.2466910
  H        2.4535620    -1.2039700     1.2409480
  H        3.7897520     0.0554290     1.2831630
  H       -1.4774160    -2.1870700    -0.0286840
  H       -2.1879510     2.0569620    -0.0148810
  H       -3.8167460    -1.2890820    -0.4911310
  H       -4.1087150     0.4576500    -0.4717300
  H       -3.9321000    -0.4275930     1.0483980
units angstrom
no_reorient  #important for SAPT in psi4, default
symmetry c1  #important for SAPT in psi4, default
}

set PROPERTIES_ORIGIN ["COM"]
properties('MP2/aug-cc-pvtz', properties = ['dipole'])
--------------------------------------------------------------------------

    Molecular point group: c1
  Charge       = 0
  Multiplicity = 1
  Basis Set: AUG-CC-PVTZ
    Blend: AUG-CC-PVTZ
  Basis Set: (AUG-CC-PVTZ AUX)
    Blend: AUG-CC-PVTZ-JKFIT

    Orbital Energies [Eh]
    ---------------------

    Doubly Occupied:

       1A    -15.564055     2A    -15.564010     3A    -11.313540
       4A    -11.291862     5A    -11.290370     6A    -11.245617
       7A    -11.238147     8A    -11.231328     9A    -11.225861
      10A    -11.225180    11A     -1.301728    12A     -1.182572
      13A     -1.147156    14A     -1.088131    15A     -0.967112
      16A     -0.891370    17A     -0.874723    18A     -0.818651
      19A     -0.796455    20A     -0.715821    21A     -0.694782
      22A     -0.645905    23A     -0.613626    24A     -0.598342
      25A     -0.591547    26A     -0.582487    27A     -0.558335
      28A     -0.555049    29A     -0.523487    30A     -0.511097
      31A     -0.471818    32A     -0.434156    33A     -0.424270
      34A     -0.414283    35A     -0.402762    36A     -0.334365

  @DF-RHF Final Energy:  -417.77955916148608

   => Energetics <=

    Nuclear Repulsion Energy =            493.5422248144473656
    One-Electron Energy =               -1543.9835724840004332
    Two-Electron Energy =                 632.6617885080670476
    Total Energy =                       -417.7795591614860768
  Basis Set: (AUG-CC-PVTZ AUX)
    Blend: AUG-CC-PVTZ-RI
    Molecular point group: c1

    Geometry (in Angstrom), charge = 0, multiplicity = 1:

       Center              X                  Y                   Z               Mass
    ------------   -----------------  -----------------  -----------------  -----------------
         N            0.167121785022    -0.957141238650    -0.010433867145    14.003074004430
         N           -0.226256214978     1.407601761350    -0.002795867145    14.003074004430
         C            2.034293785022     0.573857761350     0.008315132855    12.000000000000
         C            2.946181785022    -0.373097238650    -0.740462867145    12.000000000000
         C            2.938483785022    -0.383742238650     0.752802132855    12.000000000000
         C            0.578791785022     0.326538761350    -0.000502867145    12.000000000000
         C           -2.090815214978    -0.121537238650    -0.010158867145    12.000000000000
         C           -1.156875214978    -1.160716238650    -0.014436867145    12.000000000000
         C           -1.545618214978     1.164132761350    -0.006872867145    12.000000000000
         C           -3.571679214978    -0.369877238650     0.019662132855    12.000000000000
         H            2.298407785022     1.626462761350     0.016928132855     1.007825032230
         H            3.797618785022     0.058695761350    -1.256521867145     1.007825032230
         H            2.461036785022    -1.201008238650    -1.246108867145     1.007825032230
         H            2.448332785022    -1.218846238650     1.241530132855     1.007825032230
         H            3.784522785022     0.040552761350     1.283745132855     1.007825032230
         H           -1.482645214978    -2.201946238650    -0.028101867145     1.007825032230
         H           -2.193180214978     2.042085761350    -0.014298867145     1.007825032230
         H           -3.821975214978    -1.303958238650    -0.490548867145     1.007825032230
         H           -4.113944214978     0.442773761350    -0.471147867145     1.007825032230
         H           -3.937329214978    -0.442469238650     1.048980132855     1.007825032230

  Basis Set: AUG-CC-PVTZ
    Blend: AUG-CC-PVTZ
  Basis Set: (AUG-CC-PVTZ AUX)
    Blend: AUG-CC-PVTZ-JKFIT
	 Reference Energy          =    -417.7795591614860768 [Eh]
	 Singles Energy            =      -0.0000000000000000 [Eh]
	 Same-Spin Energy          =      -0.4577105364300690 [Eh]
	 Opposite-Spin Energy      =      -1.4475337030465947 [Eh]
	 Correlation Energy        =      -1.9052442394766638 [Eh]
	 Total Energy              =    -419.6848034009627213 [Eh]

	 ================> DF-SCS-MP2 Energies <==================
	-----------------------------------------------------------
	 SCS Same-Spin Scale       =       0.3333333333333333 [-]
	 SCS Opposite-Spin Scale   =       1.2000000000000000 [-]
	 SCS Same-Spin Energy      =      -0.1525701788100230 [Eh]
	 SCS Opposite-Spin Energy  =      -1.7370404436559135 [Eh]
	 SCS Correlation Energy    =      -1.8896106224659366 [Eh]
	 SCS Total Energy          =    -419.6691697839519861 [Eh]
	-----------------------------------------------------------

  Dipole Moment: [D]
     X:    -2.0473      Y:    -0.5731      Z:     0.0462     Total:     2.1266

*** Psi4 exiting successfully. Buy a developer a beer!
