                               Psi4 1.4a3.dev225

  ==> Input File <==

--------------------------------------------------------------------------
#psi4
#
memory 32 gb

molecule  {
0 1
  N        0.1723510    -0.9422650    -0.0110160
  N       -0.2210270     1.4224780    -0.0033780
  C        2.0395230     0.5887340     0.0077330
  C        2.9514110    -0.3582210    -0.7410450
  C        2.9437130    -0.3688660     0.7522200
  C        0.5840210     0.3414150    -0.0010850
  C       -2.0855860    -0.1066610    -0.0107410
  C       -1.1516460    -1.1458400    -0.0150190
  C       -1.5207212     1.1826384    -0.0073942
  C       -3.5664500    -0.3550010     0.0190800
  H        2.3036370     1.6413390     0.0163460
  H        3.8028480     0.0735720    -1.2571040
  H        2.4662660    -1.1861320    -1.2466910
  H        2.4535620    -1.2039700     1.2409480
  H        3.7897520     0.0554290     1.2831630
  H       -1.4774160    -2.1870700    -0.0286840
  H       -2.1879510     2.0569620    -0.0148810
  H       -3.8167460    -1.2890820    -0.4911310
  H       -4.1087150     0.4576500    -0.4717300
  H       -3.9321000    -0.4275930     1.0483980
units angstrom
no_reorient  #important for SAPT in psi4, default
symmetry c1  #important for SAPT in psi4, default
}

set PROPERTIES_ORIGIN ["COM"]
properties('MP2/aug-cc-pvtz', properties = ['dipole'])
--------------------------------------------------------------------------

    Molecular point group: c1
  Charge       = 0
  Multiplicity = 1
  Basis Set: AUG-CC-PVTZ
    Blend: AUG-CC-PVTZ
  Basis Set: (AUG-CC-PVTZ AUX)
    Blend: AUG-CC-PVTZ-JKFIT

    Orbital Energies [Eh]
    ---------------------

    Doubly Occupied:

       1A    -15.563551     2A    -15.563496     3A    -11.314308
       4A    -11.290755     5A    -11.290415     6A    -11.245848
       7A    -11.238202     8A    -11.231633     9A    -11.226133
      10A    -11.225451    11A     -1.304574    12A     -1.186821
      13A     -1.147186    14A     -1.086243    15A     -0.967803
      16A     -0.890179    17A     -0.874486    18A     -0.818878
      19A     -0.796783    20A     -0.716193    21A     -0.695521
      22A     -0.645494    23A     -0.613542    24A     -0.598425
      25A     -0.591886    26A     -0.580999    27A     -0.559441
      28A     -0.554684    29A     -0.523368    30A     -0.511460
      31A     -0.472635    32A     -0.434077    33A     -0.424714
      34A     -0.417468    35A     -0.401738    36A     -0.332638

  @DF-RHF Final Energy:  -417.77970300019638

   => Energetics <=

    Nuclear Repulsion Energy =            493.7468073949547147
    One-Electron Energy =               -1544.3789607051930943
    Two-Electron Energy =                 632.8524503100420588
    Total Energy =                       -417.7797030001963776
  Basis Set: (AUG-CC-PVTZ AUX)
    Blend: AUG-CC-PVTZ-RI
    Molecular point group: c1

    Geometry (in Angstrom), charge = 0, multiplicity = 1:

       Center              X                  Y                   Z               Mass
    ------------   -----------------  -----------------  -----------------  -----------------
         N            0.165361598133    -0.957466054963    -0.010439308494    14.003074004430
         N           -0.228016401867     1.407276945037    -0.002801308494    14.003074004430
         C            2.032533598133     0.573532945037     0.008309691506    12.000000000000
         C            2.944421598133    -0.373422054963    -0.740468308494    12.000000000000
         C            2.936723598133    -0.384067054963     0.752796691506    12.000000000000
         C            0.577031598133     0.326213945037    -0.000508308494    12.000000000000
         C           -2.092575401867    -0.121862054963    -0.010164308494    12.000000000000
         C           -1.158635401867    -1.161041054963    -0.014442308494    12.000000000000
         C           -1.527710601867     1.167437345037    -0.006817508494    12.000000000000
         C           -3.573439401867    -0.370202054963     0.019656691506    12.000000000000
         H            2.296647598133     1.626137945037     0.016922691506     1.007825032230
         H            3.795858598133     0.058370945037    -1.256527308494     1.007825032230
         H            2.459276598133    -1.201333054963    -1.246114308494     1.007825032230
         H            2.446572598133    -1.219171054963     1.241524691506     1.007825032230
         H            3.782762598133     0.040227945037     1.283739691506     1.007825032230
         H           -1.484405401867    -2.202271054963    -0.028107308494     1.007825032230
         H           -2.194940401867     2.041760945037    -0.014304308494     1.007825032230
         H           -3.823735401867    -1.304283054963    -0.490554308494     1.007825032230
         H           -4.115704401867     0.442448945037    -0.471153308494     1.007825032230
         H           -3.939089401867    -0.442794054963     1.048974691506     1.007825032230

  Basis Set: AUG-CC-PVTZ
    Blend: AUG-CC-PVTZ
  Basis Set: (AUG-CC-PVTZ AUX)
    Blend: AUG-CC-PVTZ-JKFIT
	 Reference Energy          =    -417.7797030001963776 [Eh]
	 Singles Energy            =      -0.0000000000000000 [Eh]
	 Same-Spin Energy          =      -0.4575909515837426 [Eh]
	 Opposite-Spin Energy      =      -1.4471352072371713 [Eh]
	 Correlation Energy        =      -1.9047261588209139 [Eh]
	 Total Energy              =    -419.6844291590172702 [Eh]

	 ================> DF-SCS-MP2 Energies <==================
	-----------------------------------------------------------
	 SCS Same-Spin Scale       =       0.3333333333333333 [-]
	 SCS Opposite-Spin Scale   =       1.2000000000000000 [-]
	 SCS Same-Spin Energy      =      -0.1525303171945809 [Eh]
	 SCS Opposite-Spin Energy  =      -1.7365622486846055 [Eh]
	 SCS Correlation Energy    =      -1.8890925658791864 [Eh]
	 SCS Total Energy          =    -419.6687955660755733 [Eh]
	-----------------------------------------------------------

  Dipole Moment: [D]
     X:    -2.0252      Y:    -0.5604      Z:     0.0469     Total:     2.1018

*** Psi4 exiting successfully. Buy a developer a beer!
