                               Psi4 1.4a3.dev225

  ==> Input File <==

--------------------------------------------------------------------------
#psi4
#
memory 32 gb

molecule  {
0 1
  N        0.1723510    -0.9422650    -0.0110160
  N       -0.2210270     1.4224780    -0.0033780
  C        2.0395230     0.5887340     0.0077330
  C        2.9514110    -0.3582210    -0.7410450
  C        2.9437130    -0.3688660     0.7522200
  C        0.5840210     0.3414150    -0.0010850
  C       -2.0855860    -0.1066610    -0.0107410
  C       -0.9539699    -1.1154457    -0.0144213
  C       -1.5403890     1.1790090    -0.0074550
  C       -3.5664500    -0.3550010     0.0190800
  H        2.3036370     1.6413390     0.0163460
  H        3.8028480     0.0735720    -1.2571040
  H        2.4662660    -1.1861320    -1.2466910
  H        2.4535620    -1.2039700     1.2409480
  H        3.7897520     0.0554290     1.2831630
  H       -1.4774160    -2.1870700    -0.0286840
  H       -2.1879510     2.0569620    -0.0148810
  H       -3.8167460    -1.2890820    -0.4911310
  H       -4.1087150     0.4576500    -0.4717300
  H       -3.9321000    -0.4275930     1.0483980
units angstrom
no_reorient  #important for SAPT in psi4, default
symmetry c1  #important for SAPT in psi4, default
}

set PROPERTIES_ORIGIN ["COM"]
properties('MP2/aug-cc-pvtz', properties = ['dipole'])
--------------------------------------------------------------------------

    Molecular point group: c1
  Charge       = 0
  Multiplicity = 1
  Basis Set: AUG-CC-PVTZ
    Blend: AUG-CC-PVTZ
  Basis Set: (AUG-CC-PVTZ AUX)
    Blend: AUG-CC-PVTZ-JKFIT

    Orbital Energies [Eh]
    ---------------------

    Doubly Occupied:

       1A    -15.562394     2A    -15.556958     3A    -11.322795
       4A    -11.290904     5A    -11.276130     6A    -11.247658
       7A    -11.238309     8A    -11.236332     9A    -11.231060
      10A    -11.230380    11A     -1.354851    12A     -1.219145
      13A     -1.153039    14A     -1.070547    15A     -0.973842
      16A     -0.886550    17A     -0.864794    18A     -0.823984
      19A     -0.808630    20A     -0.718903    21A     -0.697620
      22A     -0.649424    23A     -0.611219    24A     -0.609042
      25A     -0.592748    26A     -0.578579    27A     -0.572172
      28A     -0.551317    29A     -0.523402    30A     -0.516623
      31A     -0.472255    32A     -0.458090    33A     -0.430144
      34A     -0.428177    35A     -0.382742    36A     -0.319209

  @DF-RHF Final Energy:  -417.72111775750119

   => Energetics <=

    Nuclear Repulsion Energy =            496.2350294661961243
    One-Electron Energy =               -1548.9923596767278013
    Two-Electron Energy =                 635.0362124530303163
    Total Energy =                       -417.7211177575012471
  Basis Set: (AUG-CC-PVTZ AUX)
    Blend: AUG-CC-PVTZ-RI
    Molecular point group: c1

    Geometry (in Angstrom), charge = 0, multiplicity = 1:

       Center              X                  Y                   Z               Mass
    ------------   -----------------  -----------------  -----------------  -----------------
         N            0.149430590301    -0.959861402998    -0.010487358827    14.003074004430
         N           -0.243947409699     1.404881597002    -0.002849358827    14.003074004430
         C            2.016602590301     0.571137597002     0.008261641173    12.000000000000
         C            2.928490590301    -0.375817402998    -0.740516358827    12.000000000000
         C            2.920792590301    -0.386462402998     0.752748641173    12.000000000000
         C            0.561100590301     0.323818597002    -0.000556358827    12.000000000000
         C           -2.108506409699    -0.124257402998    -0.010212358827    12.000000000000
         C           -0.976890309699    -1.133042102998    -0.013892658827    12.000000000000
         C           -1.563309409699     1.161412597002    -0.006926358827    12.000000000000
         C           -3.589370409699    -0.372597402998     0.019608641173    12.000000000000
         H            2.280716590301     1.623742597002     0.016874641173     1.007825032230
         H            3.779927590301     0.055975597002    -1.256575358827     1.007825032230
         H            2.443345590301    -1.203728402998    -1.246162358827     1.007825032230
         H            2.430641590301    -1.221566402998     1.241476641173     1.007825032230
         H            3.766831590301     0.037832597002     1.283691641173     1.007825032230
         H           -1.500336409699    -2.204666402998    -0.028155358827     1.007825032230
         H           -2.210871409699     2.039365597002    -0.014352358827     1.007825032230
         H           -3.839666409699    -1.306678402998    -0.490602358827     1.007825032230
         H           -4.131635409699     0.440053597002    -0.471201358827     1.007825032230
         H           -3.955020409699    -0.445189402998     1.048926641173     1.007825032230

  Basis Set: AUG-CC-PVTZ
    Blend: AUG-CC-PVTZ
  Basis Set: (AUG-CC-PVTZ AUX)
    Blend: AUG-CC-PVTZ-JKFIT
	 Reference Energy          =    -417.7211177575011902 [Eh]
	 Singles Energy            =      -0.0000000000000000 [Eh]
	 Same-Spin Energy          =      -0.4559464541623174 [Eh]
	 Opposite-Spin Energy      =      -1.4455776125814714 [Eh]
	 Correlation Energy        =      -1.9015240667437889 [Eh]
	 Total Energy              =    -419.6226418242449654 [Eh]

	 ================> DF-SCS-MP2 Energies <==================
	-----------------------------------------------------------
	 SCS Same-Spin Scale       =       0.3333333333333333 [-]
	 SCS Opposite-Spin Scale   =       1.2000000000000000 [-]
	 SCS Same-Spin Energy      =      -0.1519821513874391 [Eh]
	 SCS Opposite-Spin Energy  =      -1.7346931350977657 [Eh]
	 SCS Correlation Energy    =      -1.8866752864852048 [Eh]
	 SCS Total Energy          =    -419.6077930439864190 [Eh]
	-----------------------------------------------------------

  Dipole Moment: [D]
     X:    -1.5729      Y:    -0.5649      Z:     0.0535     Total:     1.6721

*** Psi4 exiting successfully. Buy a developer a beer!
