                               Psi4 1.4a3.dev225

  ==> Input File <==

--------------------------------------------------------------------------
#psi4
#
memory 32 gb

molecule  {
0 1
  N        0.1723510    -0.9422650    -0.0110160
  N       -0.2210270     1.4224780    -0.0033780
  C        2.0395230     0.5887340     0.0077330
  C        2.9514110    -0.3582210    -0.7410450
  C        2.8839470    -0.3055697     0.7030102
  C        0.5840210     0.3414150    -0.0010850
  C       -2.0855860    -0.1066610    -0.0107410
  C       -1.1516460    -1.1458400    -0.0150190
  C       -1.5403890     1.1790090    -0.0074550
  C       -3.5664500    -0.3550010     0.0190800
  H        2.3036370     1.6413390     0.0163460
  H        3.8028480     0.0735720    -1.2571040
  H        2.4662660    -1.1861320    -1.2466910
  H        2.4535620    -1.2039700     1.2409480
  H        3.7897520     0.0554290     1.2831630
  H       -1.4774160    -2.1870700    -0.0286840
  H       -2.1879510     2.0569620    -0.0148810
  H       -3.8167460    -1.2890820    -0.4911310
  H       -4.1087150     0.4576500    -0.4717300
  H       -3.9321000    -0.4275930     1.0483980
units angstrom
no_reorient  #important for SAPT in psi4, default
symmetry c1  #important for SAPT in psi4, default
}

set PROPERTIES_ORIGIN ["COM"]
properties('MP2/aug-cc-pvtz', properties = ['dipole'])
--------------------------------------------------------------------------

    Molecular point group: c1
  Charge       = 0
  Multiplicity = 1
  Basis Set: AUG-CC-PVTZ
    Blend: AUG-CC-PVTZ
  Basis Set: (AUG-CC-PVTZ AUX)
    Blend: AUG-CC-PVTZ-JKFIT

    Orbital Energies [Eh]
    ---------------------

    Doubly Occupied:

       1A    -15.564763     2A    -15.564668     3A    -11.313797
       4A    -11.292221     5A    -11.290672     6A    -11.246282
       7A    -11.238514     8A    -11.227210     9A    -11.224643
      10A    -11.219521    11A     -1.302781    12A     -1.184403
      13A     -1.170157    14A     -1.090931    15A     -0.968108
      16A     -0.891904    17A     -0.875253    18A     -0.813644
      19A     -0.793794    20A     -0.717964    21A     -0.697737
      22A     -0.649116    23A     -0.619400    24A     -0.598691
      25A     -0.591767    26A     -0.583175    27A     -0.558717
      28A     -0.555422    29A     -0.521582    30A     -0.486857
      31A     -0.473281    32A     -0.454373    33A     -0.420248
      34A     -0.414103    35A     -0.403114    36A     -0.336850

  @DF-RHF Final Energy:  -417.76854820576898

   => Energetics <=

    Nuclear Repulsion Energy =            495.4847258530640488
    One-Electron Energy =               -1547.7952201934642744
    Two-Electron Energy =                 634.5419461346313028
    Total Energy =                       -417.7685482057689796
  Basis Set: (AUG-CC-PVTZ AUX)
    Blend: AUG-CC-PVTZ-RI
    Molecular point group: c1

    Geometry (in Angstrom), charge = 0, multiplicity = 1:

       Center              X                  Y                   Z               Mass
    ------------   -----------------  -----------------  -----------------  -----------------
         N            0.172470595241    -0.962805996142    -0.006029793238    14.003074004430
         N           -0.220907404759     1.401937003858     0.001608206762    14.003074004430
         C            2.039642595241     0.568193003858     0.012719206762    12.000000000000
         C            2.951530595241    -0.378761996142    -0.736058793238    12.000000000000
         C            2.884066595241    -0.326110696142     0.707996406762    12.000000000000
         C            0.584140595241     0.320874003858     0.003901206762    12.000000000000
         C           -2.085466404759    -0.127201996142    -0.005754793238    12.000000000000
         C           -1.151526404759    -1.166380996142    -0.010032793238    12.000000000000
         C           -1.540269404759     1.158468003858    -0.002468793238    12.000000000000
         C           -3.566330404759    -0.375541996142     0.024066206762    12.000000000000
         H            2.303756595241     1.620798003858     0.021332206762     1.007825032230
         H            3.802967595241     0.053031003858    -1.252117793238     1.007825032230
         H            2.466385595241    -1.206672996142    -1.241704793238     1.007825032230
         H            2.453681595241    -1.224510996142     1.245934206762     1.007825032230
         H            3.789871595241     0.034888003858     1.288149206762     1.007825032230
         H           -1.477296404759    -2.207610996142    -0.023697793238     1.007825032230
         H           -2.187831404759     2.036421003858    -0.009894793238     1.007825032230
         H           -3.816626404759    -1.309622996142    -0.486144793238     1.007825032230
         H           -4.108595404759     0.437109003858    -0.466743793238     1.007825032230
         H           -3.931980404759    -0.448133996142     1.053384206762     1.007825032230

  Basis Set: AUG-CC-PVTZ
    Blend: AUG-CC-PVTZ
  Basis Set: (AUG-CC-PVTZ AUX)
    Blend: AUG-CC-PVTZ-JKFIT
	 Reference Energy          =    -417.7685482057689796 [Eh]
	 Singles Energy            =      -0.0000000000000000 [Eh]
	 Same-Spin Energy          =      -0.4583573376971460 [Eh]
	 Opposite-Spin Energy      =      -1.4477189140472166 [Eh]
	 Correlation Energy        =      -1.9060762517443628 [Eh]
	 Total Energy              =    -419.6746244575133460 [Eh]

	 ================> DF-SCS-MP2 Energies <==================
	-----------------------------------------------------------
	 SCS Same-Spin Scale       =       0.3333333333333333 [-]
	 SCS Opposite-Spin Scale   =       1.2000000000000000 [-]
	 SCS Same-Spin Energy      =      -0.1527857792323820 [Eh]
	 SCS Opposite-Spin Energy  =      -1.7372626968566600 [Eh]
	 SCS Correlation Energy    =      -1.8900484760890419 [Eh]
	 SCS Total Energy          =    -419.6585966818580005 [Eh]
	-----------------------------------------------------------

  Dipole Moment: [D]
     X:    -2.0961      Y:    -0.5845      Z:     0.0876     Total:     2.1778

*** Psi4 exiting successfully. Buy a developer a beer!
