                               Psi4 1.4a3.dev225

  ==> Input File <==

--------------------------------------------------------------------------
#psi4
#
memory 32 gb

molecule  {
0 1
  N        0.1723510    -0.9422650    -0.0110160
  N       -0.2210270     1.4224780    -0.0033780
  C        2.0395230     0.5887340     0.0077330
  C        2.9514110    -0.3582210    -0.7410450
  C        2.9437130    -0.3688660     0.7522200
  C        0.5840210     0.3414150    -0.0010850
  C       -2.0855860    -0.1066610    -0.0107410
  C       -1.1516460    -1.1458400    -0.0150190
  C       -1.5403890     1.1790090    -0.0074550
  C       -3.5664500    -0.3550010     0.0190800
  H        2.3036370     1.6413390     0.0163460
  H        3.8028480     0.0735720    -1.2571040
  H        2.4662660    -1.1861320    -1.2466910
  H        2.4535620    -1.2039700     1.2409480
  H        3.7741600     0.0476095     1.2733780
  H       -1.4774160    -2.1870700    -0.0286840
  H       -2.1879510     2.0569620    -0.0148810
  H       -3.8167460    -1.2890820    -0.4911310
  H       -4.1087150     0.4576500    -0.4717300
  H       -3.9321000    -0.4275930     1.0483980
units angstrom
no_reorient  #important for SAPT in psi4, default
symmetry c1  #important for SAPT in psi4, default
}

set PROPERTIES_ORIGIN ["COM"]
properties('MP2/aug-cc-pvtz', properties = ['dipole'])
--------------------------------------------------------------------------

    Molecular point group: c1
  Charge       = 0
  Multiplicity = 1
  Basis Set: AUG-CC-PVTZ
    Blend: AUG-CC-PVTZ
  Basis Set: (AUG-CC-PVTZ AUX)
    Blend: AUG-CC-PVTZ-JKFIT

    Orbital Energies [Eh]
    ---------------------

    Doubly Occupied:

       1A    -15.563974     2A    -15.563915     3A    -11.313462
       4A    -11.291795     5A    -11.290305     6A    -11.245542
       7A    -11.238098     8A    -11.231200     9A    -11.225433
      10A    -11.223141    11A     -1.301647    12A     -1.182495
      13A     -1.147293    14A     -1.088133    15A     -0.967142
      16A     -0.891300    17A     -0.874866    18A     -0.820523
      19A     -0.796590    20A     -0.715922    21A     -0.694740
      22A     -0.647587    23A     -0.613609    24A     -0.598319
      25A     -0.591491    26A     -0.582501    27A     -0.558480
      28A     -0.554997    29A     -0.523821    30A     -0.512466
      31A     -0.471781    32A     -0.434177    33A     -0.424194
      34A     -0.414214    35A     -0.402682    36A     -0.334314

  @DF-RHF Final Energy:  -417.77962754198359

   => Energetics <=

    Nuclear Repulsion Energy =            493.6421553169968206
    One-Electron Energy =               -1544.1792637963756079
    Two-Electron Energy =                 632.7574809373951439
    Total Energy =                       -417.7796275419835865
  Basis Set: (AUG-CC-PVTZ AUX)
    Blend: AUG-CC-PVTZ-RI
    Molecular point group: c1

    Geometry (in Angstrom), charge = 0, multiplicity = 1:

       Center              X                  Y                   Z               Mass
    ------------   -----------------  -----------------  -----------------  -----------------
         N            0.167238979924    -0.957082464565    -0.010360319677    14.003074004430
         N           -0.226139020076     1.407660535435    -0.002722319677    14.003074004430
         C            2.034410979924     0.573916535435     0.008388680323    12.000000000000
         C            2.946298979924    -0.373038464565    -0.740389319677    12.000000000000
         C            2.938600979924    -0.383683464565     0.752875680323    12.000000000000
         C            0.578908979924     0.326597535435    -0.000429319677    12.000000000000
         C           -2.090698020076    -0.121478464565    -0.010085319677    12.000000000000
         C           -1.156758020076    -1.160657464565    -0.014363319677    12.000000000000
         C           -1.545501020076     1.164191535435    -0.006799319677    12.000000000000
         C           -3.571562020076    -0.369818464565     0.019735680323    12.000000000000
         H            2.298524979924     1.626521535435     0.017001680323     1.007825032230
         H            3.797735979924     0.058754535435    -1.256448319677     1.007825032230
         H            2.461153979924    -1.200949464565    -1.246035319677     1.007825032230
         H            2.448449979924    -1.218787464565     1.241603680323     1.007825032230
         H            3.769047979924     0.032792035435     1.274033680323     1.007825032230
         H           -1.482528020076    -2.201887464565    -0.028028319677     1.007825032230
         H           -2.193063020076     2.042144535435    -0.014225319677     1.007825032230
         H           -3.821858020076    -1.303899464565    -0.490475319677     1.007825032230
         H           -4.113827020076     0.442832535435    -0.471074319677     1.007825032230
         H           -3.937212020076    -0.442410464565     1.049053680323     1.007825032230

  Basis Set: AUG-CC-PVTZ
    Blend: AUG-CC-PVTZ
  Basis Set: (AUG-CC-PVTZ AUX)
    Blend: AUG-CC-PVTZ-JKFIT
	 Reference Energy          =    -417.7796275419835865 [Eh]
	 Singles Energy            =      -0.0000000000000000 [Eh]
	 Same-Spin Energy          =      -0.4577039621040518 [Eh]
	 Opposite-Spin Energy      =      -1.4474247622105629 [Eh]
	 Correlation Energy        =      -1.9051287243146147 [Eh]
	 Total Energy              =    -419.6847562662982227 [Eh]

	 ================> DF-SCS-MP2 Energies <==================
	-----------------------------------------------------------
	 SCS Same-Spin Scale       =       0.3333333333333333 [-]
	 SCS Opposite-Spin Scale   =       1.2000000000000000 [-]
	 SCS Same-Spin Energy      =      -0.1525679873680172 [Eh]
	 SCS Opposite-Spin Energy  =      -1.7369097146526755 [Eh]
	 SCS Correlation Energy    =      -1.8894777020206928 [Eh]
	 SCS Total Energy          =    -419.6691052440042995 [Eh]
	-----------------------------------------------------------

  Dipole Moment: [D]
     X:    -2.0393      Y:    -0.5731      Z:     0.0522     Total:     2.1190

*** Psi4 exiting successfully. Buy a developer a beer!
