                               Psi4 1.4a3.dev225

  ==> Input File <==

--------------------------------------------------------------------------
#psi4
#
memory 32 gb

molecule  {
0 1
  N        0.1723510    -0.9422650    -0.0110160
  N       -0.2210270     1.4224780    -0.0033780
  C        2.0395230     0.5887340     0.0077330
  C        3.0116843    -0.4208121    -0.7905372
  C        2.9437130    -0.3688660     0.7522200
  C        0.5840210     0.3414150    -0.0010850
  C       -2.0855860    -0.1066610    -0.0107410
  C       -1.1516460    -1.1458400    -0.0150190
  C       -1.5403890     1.1790090    -0.0074550
  C       -3.5664500    -0.3550010     0.0190800
  H        2.3036370     1.6413390     0.0163460
  H        3.8028480     0.0735720    -1.2571040
  H        2.4662660    -1.1861320    -1.2466910
  H        2.4535620    -1.2039700     1.2409480
  H        3.7897520     0.0554290     1.2831630
  H       -1.4774160    -2.1870700    -0.0286840
  H       -2.1879510     2.0569620    -0.0148810
  H       -3.8167460    -1.2890820    -0.4911310
  H       -4.1087150     0.4576500    -0.4717300
  H       -3.9321000    -0.4275930     1.0483980
units angstrom
no_reorient  #important for SAPT in psi4, default
symmetry c1  #important for SAPT in psi4, default
}

set PROPERTIES_ORIGIN ["COM"]
properties('MP2/aug-cc-pvtz', properties = ['dipole'])
--------------------------------------------------------------------------

    Molecular point group: c1
  Charge       = 0
  Multiplicity = 1
  Basis Set: AUG-CC-PVTZ
    Blend: AUG-CC-PVTZ
  Basis Set: (AUG-CC-PVTZ AUX)
    Blend: AUG-CC-PVTZ-JKFIT

    Orbital Energies [Eh]
    ---------------------

    Doubly Occupied:

       1A    -15.563689     2A    -15.563664     3A    -11.313650
       4A    -11.291705     5A    -11.290269     6A    -11.245212
       7A    -11.237942     8A    -11.235474     9A    -11.232240
      10A    -11.227769    11A     -1.301173    12A     -1.182068
      13A     -1.129330    14A     -1.084014    15A     -0.966388
      16A     -0.891160    17A     -0.875356    18A     -0.828227
      19A     -0.795502    20A     -0.714770    21A     -0.692401
      22A     -0.646442    23A     -0.605433    24A     -0.598164
      25A     -0.591835    26A     -0.581637    27A     -0.559070
      28A     -0.554846    29A     -0.539142    30A     -0.519029
      31A     -0.471156    32A     -0.435422    33A     -0.414591
      34A     -0.408101    35A     -0.401977    36A     -0.329956

  @DF-RHF Final Energy:  -417.77098466853857

   => Energetics <=

    Nuclear Repulsion Energy =            491.6976680241831446
    One-Electron Energy =               -1540.2997000553743874
    Two-Electron Energy =                 630.8310473626528392
    Total Energy =                       -417.7709846685385173
  Basis Set: (AUG-CC-PVTZ AUX)
    Blend: AUG-CC-PVTZ-RI
    Molecular point group: c1

    Geometry (in Angstrom), charge = 0, multiplicity = 1:

       Center              X                  Y                   Z               Mass
    ------------   -----------------  -----------------  -----------------  -----------------
         N            0.161727573548    -0.951539593646    -0.006004519604    14.003074004430
         N           -0.231650426452     1.413203406354     0.001633480396    14.003074004430
         C            2.028899573548     0.579459406354     0.012744480396    12.000000000000
         C            3.001060873548    -0.430086693646    -0.785525719604    12.000000000000
         C            2.933089573548    -0.378140593646     0.757231480396    12.000000000000
         C            0.573397573548     0.332140406354     0.003926480396    12.000000000000
         C           -2.096209426452    -0.115935593646    -0.005729519604    12.000000000000
         C           -1.162269426452    -1.155114593646    -0.010007519604    12.000000000000
         C           -1.551012426452     1.169734406354    -0.002443519604    12.000000000000
         C           -3.577073426452    -0.364275593646     0.024091480396    12.000000000000
         H            2.293013573548     1.632064406354     0.021357480396     1.007825032230
         H            3.792224573548     0.064297406354    -1.252092519604     1.007825032230
         H            2.455642573548    -1.195406593646    -1.241679519604     1.007825032230
         H            2.442938573548    -1.213244593646     1.245959480396     1.007825032230
         H            3.779128573548     0.046154406354     1.288174480396     1.007825032230
         H           -1.488039426452    -2.196344593646    -0.023672519604     1.007825032230
         H           -2.198574426452     2.047687406354    -0.009869519604     1.007825032230
         H           -3.827369426452    -1.298356593646    -0.486119519604     1.007825032230
         H           -4.119338426452     0.448375406354    -0.466718519604     1.007825032230
         H           -3.942723426452    -0.436867593646     1.053409480396     1.007825032230

  Basis Set: AUG-CC-PVTZ
    Blend: AUG-CC-PVTZ
  Basis Set: (AUG-CC-PVTZ AUX)
    Blend: AUG-CC-PVTZ-JKFIT
	 Reference Energy          =    -417.7709846685385742 [Eh]
	 Singles Energy            =      -0.0000000000000000 [Eh]
	 Same-Spin Energy          =      -0.4576480315403743 [Eh]
	 Opposite-Spin Energy      =      -1.4486046688944798 [Eh]
	 Correlation Energy        =      -1.9062527004348540 [Eh]
	 Total Energy              =    -419.6772373689734081 [Eh]

	 ================> DF-SCS-MP2 Energies <==================
	-----------------------------------------------------------
	 SCS Same-Spin Scale       =       0.3333333333333333 [-]
	 SCS Opposite-Spin Scale   =       1.2000000000000000 [-]
	 SCS Same-Spin Energy      =      -0.1525493438467914 [Eh]
	 SCS Opposite-Spin Energy  =      -1.7383256026733758 [Eh]
	 SCS Correlation Energy    =      -1.8908749465201671 [Eh]
	 SCS Total Energy          =    -419.6618596150587450 [Eh]
	-----------------------------------------------------------

  Dipole Moment: [D]
     X:    -2.0399      Y:    -0.5427      Z:     0.1056     Total:     2.1135

*** Psi4 exiting successfully. Buy a developer a beer!
