                               Psi4 1.4a3.dev225

  ==> Input File <==

--------------------------------------------------------------------------
#psi4
#
memory 32 gb

molecule  {
0 1
  N        0.1723510    -0.9422650    -0.0110160
  N       -0.2210270     1.4224780    -0.0033780
  C        2.0395230     0.5887340     0.0077330
  C        2.9514110    -0.3582210    -0.7410450
  C        2.9138300    -0.3372178     0.7276151
  C        0.5840210     0.3414150    -0.0010850
  C       -2.0855860    -0.1066610    -0.0107410
  C       -1.1516460    -1.1458400    -0.0150190
  C       -1.5403890     1.1790090    -0.0074550
  C       -3.5664500    -0.3550010     0.0190800
  H        2.3036370     1.6413390     0.0163460
  H        3.8028480     0.0735720    -1.2571040
  H        2.4662660    -1.1861320    -1.2466910
  H        2.4535620    -1.2039700     1.2409480
  H        3.7897520     0.0554290     1.2831630
  H       -1.4774160    -2.1870700    -0.0286840
  H       -2.1879510     2.0569620    -0.0148810
  H       -3.8167460    -1.2890820    -0.4911310
  H       -4.1087150     0.4576500    -0.4717300
  H       -3.9321000    -0.4275930     1.0483980
units angstrom
no_reorient  #important for SAPT in psi4, default
symmetry c1  #important for SAPT in psi4, default
}

set PROPERTIES_ORIGIN ["COM"]
properties('MP2/aug-cc-pvtz', properties = ['dipole'])
--------------------------------------------------------------------------

    Molecular point group: c1
  Charge       = 0
  Multiplicity = 1
  Basis Set: AUG-CC-PVTZ
    Blend: AUG-CC-PVTZ
  Basis Set: (AUG-CC-PVTZ AUX)
    Blend: AUG-CC-PVTZ-JKFIT

    Orbital Energies [Eh]
    ---------------------

    Doubly Occupied:

       1A    -15.564363     2A    -15.564296     3A    -11.313613
       4A    -11.292013     5A    -11.290493     6A    -11.245915
       7A    -11.238309     8A    -11.229241     9A    -11.224970
      10A    -11.222371    11A     -1.302179    12A     -1.183125
      13A     -1.158252    14A     -1.089649    15A     -0.967573
      16A     -0.891592    17A     -0.874839    18A     -0.815079
      19A     -0.795967    20A     -0.716732    21A     -0.696245
      22A     -0.647116    23A     -0.616816    24A     -0.598486
      25A     -0.591622    26A     -0.582818    27A     -0.558391
      28A     -0.555213    29A     -0.521873    30A     -0.499540
      31A     -0.472421    32A     -0.443035    33A     -0.423672
      34A     -0.414238    35A     -0.402944    36A     -0.335805

  @DF-RHF Final Energy:  -417.77690323019664

   => Energetics <=

    Nuclear Repulsion Energy =            494.4996599983037413
    One-Electron Energy =               -1545.8715152281745304
    Two-Electron Energy =                 633.5949519996742083
    Total Energy =                       -417.7769032301965808
  Basis Set: (AUG-CC-PVTZ AUX)
    Blend: AUG-CC-PVTZ-RI
    Molecular point group: c1

    Geometry (in Angstrom), charge = 0, multiplicity = 1:

       Center              X                  Y                   Z               Mass
    ------------   -----------------  -----------------  -----------------  -----------------
         N            0.169796190132    -0.959973621870    -0.008231830191    14.003074004430
         N           -0.223581809868     1.404769378130    -0.000593830191    14.003074004430
         C            2.036968190132     0.571025378130     0.010517169809    12.000000000000
         C            2.948856190132    -0.375929621870    -0.738260830191    12.000000000000
         C            2.911275190132    -0.354926421870     0.730399269809    12.000000000000
         C            0.581466190132     0.323706378130     0.001699169809    12.000000000000
         C           -2.088140809868    -0.124369621870    -0.007956830191    12.000000000000
         C           -1.154200809868    -1.163548621870    -0.012234830191    12.000000000000
         C           -1.542943809868     1.161300378130    -0.004670830191    12.000000000000
         C           -3.569004809868    -0.372709621870     0.021864169809    12.000000000000
         H            2.301082190132     1.623630378130     0.019130169809     1.007825032230
         H            3.800293190132     0.055863378130    -1.254319830191     1.007825032230
         H            2.463711190132    -1.203840621870    -1.243906830191     1.007825032230
         H            2.451007190132    -1.221678621870     1.243732169809     1.007825032230
         H            3.787197190132     0.037720378130     1.285947169809     1.007825032230
         H           -1.479970809868    -2.204778621870    -0.025899830191     1.007825032230
         H           -2.190505809868     2.039253378130    -0.012096830191     1.007825032230
         H           -3.819300809868    -1.306790621870    -0.488346830191     1.007825032230
         H           -4.111269809868     0.439941378130    -0.468945830191     1.007825032230
         H           -3.934654809868    -0.445301621870     1.051182169809     1.007825032230

  Basis Set: AUG-CC-PVTZ
    Blend: AUG-CC-PVTZ
  Basis Set: (AUG-CC-PVTZ AUX)
    Blend: AUG-CC-PVTZ-JKFIT
	 Reference Energy          =    -417.7769032301966377 [Eh]
	 Singles Energy            =      -0.0000000000000000 [Eh]
	 Same-Spin Energy          =      -0.4579555470689358 [Eh]
	 Opposite-Spin Energy      =      -1.4474587609970637 [Eh]
	 Correlation Energy        =      -1.9054143080659995 [Eh]
	 Total Energy              =    -419.6823175382626232 [Eh]

	 ================> DF-SCS-MP2 Energies <==================
	-----------------------------------------------------------
	 SCS Same-Spin Scale       =       0.3333333333333333 [-]
	 SCS Opposite-Spin Scale   =       1.2000000000000000 [-]
	 SCS Same-Spin Energy      =      -0.1526518490229786 [Eh]
	 SCS Opposite-Spin Energy  =      -1.7369505131964764 [Eh]
	 SCS Correlation Energy    =      -1.8896023622194551 [Eh]
	 SCS Total Energy          =    -419.6665055924161152 [Eh]
	-----------------------------------------------------------

  Dipole Moment: [D]
     X:    -2.0668      Y:    -0.5812      Z:     0.0696     Total:     2.1481

*** Psi4 exiting successfully. Buy a developer a beer!
