                               Psi4 1.4a3.dev225

  ==> Input File <==

--------------------------------------------------------------------------
#psi4
#
memory 32 gb

molecule  {
0 1
  N        0.1723510    -0.9422650    -0.0110160
  N       -0.2210270     1.4224780    -0.0033780
  C        2.0395230     0.5887340     0.0077330
  C        2.9514110    -0.3582210    -0.7410450
  C        2.9437130    -0.3688660     0.7522200
  C        0.5840210     0.3414150    -0.0010850
  C       -2.0855860    -0.1066610    -0.0107410
  C       -1.1516460    -1.1458400    -0.0150190
  C       -1.5403890     1.1790090    -0.0074550
  C       -3.5664500    -0.3550010     0.0190800
  H        2.3036370     1.6413390     0.0163460
  H        3.8028480     0.0735720    -1.2571040
  H        2.4662660    -1.1861320    -1.2466910
  H        2.4535620    -1.2039700     1.2409480
  H        3.7897520     0.0554290     1.2831630
  H       -1.4774160    -2.1870700    -0.0286840
  H       -2.1879510     2.0569620    -0.0148810
  H       -3.8167460    -1.2890820    -0.4911310
  H       -4.1583130     0.5319788    -0.5166217
  H       -3.9321000    -0.4275930     1.0483980
units angstrom
no_reorient  #important for SAPT in psi4, default
symmetry c1  #important for SAPT in psi4, default
}

set PROPERTIES_ORIGIN ["COM"]
properties('MP2/aug-cc-pvtz', properties = ['dipole'])
--------------------------------------------------------------------------

    Molecular point group: c1
  Charge       = 0
  Multiplicity = 1
  Basis Set: AUG-CC-PVTZ
    Blend: AUG-CC-PVTZ
  Basis Set: (AUG-CC-PVTZ AUX)
    Blend: AUG-CC-PVTZ-JKFIT

    Orbital Energies [Eh]
    ---------------------

    Doubly Occupied:

       1A    -15.564439     2A    -15.564358     3A    -11.313976
       4A    -11.292624     5A    -11.290714     6A    -11.249882
       7A    -11.246478     8A    -11.231591     9A    -11.226106
      10A    -11.225425    11A     -1.302146    12A     -1.182966
      13A     -1.147413    14A     -1.087287    15A     -0.962851
      16A     -0.891152    17A     -0.872458    18A     -0.818884
      19A     -0.796454    20A     -0.715473    21A     -0.695105
      22A     -0.645631    23A     -0.614030    24A     -0.596958
      25A     -0.591558    26A     -0.581913    27A     -0.558894
      28A     -0.538785    29A     -0.523794    30A     -0.511261
      31A     -0.472111    32A     -0.434317    33A     -0.424531
      34A     -0.414652    35A     -0.403030    36A     -0.334651

  @DF-RHF Final Energy:  -417.77301059236146

   => Energetics <=

    Nuclear Repulsion Energy =            493.1355903800058513
    One-Electron Energy =               -1543.1694048969764026
    Two-Electron Energy =                 632.2608039246091494
    Total Energy =                       -417.7730105923614019
  Basis Set: (AUG-CC-PVTZ AUX)
    Blend: AUG-CC-PVTZ-RI
    Molecular point group: c1

    Geometry (in Angstrom), charge = 0, multiplicity = 1:

       Center              X                  Y                   Z               Mass
    ------------   -----------------  -----------------  -----------------  -----------------
         N            0.167494580863    -0.957699919795    -0.010096445494    14.003074004430
         N           -0.225883419137     1.407043080205    -0.002458445494    14.003074004430
         C            2.034666580863     0.573299080205     0.008652554506    12.000000000000
         C            2.946554580863    -0.373655919795    -0.740125445494    12.000000000000
         C            2.938856580863    -0.384300919795     0.753139554506    12.000000000000
         C            0.579164580863     0.325980080205    -0.000165445494    12.000000000000
         C           -2.090442419137    -0.122095919795    -0.009821445494    12.000000000000
         C           -1.156502419137    -1.161274919795    -0.014099445494    12.000000000000
         C           -1.545245419137     1.163574080205    -0.006535445494    12.000000000000
         C           -3.571306419137    -0.370435919795     0.019999554506    12.000000000000
         H            2.298780580863     1.625904080205     0.017265554506     1.007825032230
         H            3.797991580863     0.058137080205    -1.256184445494     1.007825032230
         H            2.461409580863    -1.201566919795    -1.245771445494     1.007825032230
         H            2.448705580863    -1.219404919795     1.241867554506     1.007825032230
         H            3.784895580863     0.039994080205     1.284082554506     1.007825032230
         H           -1.482272419137    -2.202504919795    -0.027764445494     1.007825032230
         H           -2.192807419137     2.041527080205    -0.013961445494     1.007825032230
         H           -3.821602419137    -1.304516919795    -0.490211445494     1.007825032230
         H           -4.163169419137     0.516543880205    -0.515702145494     1.007825032230
         H           -3.936956419137    -0.443027919795     1.049317554506     1.007825032230

  Basis Set: AUG-CC-PVTZ
    Blend: AUG-CC-PVTZ
  Basis Set: (AUG-CC-PVTZ AUX)
    Blend: AUG-CC-PVTZ-JKFIT
	 Reference Energy          =    -417.7730105923614587 [Eh]
	 Singles Energy            =      -0.0000000000000000 [Eh]
	 Same-Spin Energy          =      -0.4577087804713807 [Eh]
	 Opposite-Spin Energy      =      -1.4482367427175751 [Eh]
	 Correlation Energy        =      -1.9059455231889557 [Eh]
	 Total Energy              =    -419.6789561155504202 [Eh]

	 ================> DF-SCS-MP2 Energies <==================
	-----------------------------------------------------------
	 SCS Same-Spin Scale       =       0.3333333333333333 [-]
	 SCS Opposite-Spin Scale   =       1.2000000000000000 [-]
	 SCS Same-Spin Energy      =      -0.1525695934904602 [Eh]
	 SCS Opposite-Spin Energy  =      -1.7378840912610900 [Eh]
	 SCS Correlation Energy    =      -1.8904536847515503 [Eh]
	 SCS Total Energy          =    -419.6634642771130075 [Eh]
	-----------------------------------------------------------

  Dipole Moment: [D]
     X:    -1.9952      Y:    -0.5977      Z:     0.0630     Total:     2.0838

*** Psi4 exiting successfully. Buy a developer a beer!
