                               Psi4 1.4a3.dev225

  ==> Input File <==

--------------------------------------------------------------------------
#psi4
#
memory 32 gb

molecule  {
0 1
  N        0.1723510    -0.9422650    -0.0110160
  N       -0.2303267     1.4683743    -0.0036657
  C        2.0395230     0.5887340     0.0077330
  C        2.9514110    -0.3582210    -0.7410450
  C        2.9437130    -0.3688660     0.7522200
  C        0.5840210     0.3414150    -0.0010850
  C       -2.0855860    -0.1066610    -0.0107410
  C       -1.1516460    -1.1458400    -0.0150190
  C       -1.5403890     1.1790090    -0.0074550
  C       -3.5664500    -0.3550010     0.0190800
  H        2.3036370     1.6413390     0.0163460
  H        3.8028480     0.0735720    -1.2571040
  H        2.4662660    -1.1861320    -1.2466910
  H        2.4535620    -1.2039700     1.2409480
  H        3.7897520     0.0554290     1.2831630
  H       -1.4774160    -2.1870700    -0.0286840
  H       -2.1879510     2.0569620    -0.0148810
  H       -3.8167460    -1.2890820    -0.4911310
  H       -4.1087150     0.4576500    -0.4717300
  H       -3.9321000    -0.4275930     1.0483980
units angstrom
no_reorient  #important for SAPT in psi4, default
symmetry c1  #important for SAPT in psi4, default
}

set PROPERTIES_ORIGIN ["COM"]
properties('MP2/aug-cc-pvtz', properties = ['dipole'])
--------------------------------------------------------------------------

    Molecular point group: c1
  Charge       = 0
  Multiplicity = 1
  Basis Set: AUG-CC-PVTZ
    Blend: AUG-CC-PVTZ
  Basis Set: (AUG-CC-PVTZ AUX)
    Blend: AUG-CC-PVTZ-JKFIT

    Orbital Energies [Eh]
    ---------------------

    Doubly Occupied:

       1A    -15.570324     2A    -15.565673     3A    -11.319551
       4A    -11.292502     5A    -11.289722     6A    -11.245139
       7A    -11.238010     8A    -11.232752     9A    -11.227043
      10A    -11.226359    11A     -1.295807    12A     -1.182022
      13A     -1.147905    14A     -1.086300    15A     -0.965450
      16A     -0.888199    17A     -0.876681    18A     -0.819637
      19A     -0.794670    20A     -0.715300    21A     -0.690828
      22A     -0.646602    23A     -0.612258    24A     -0.597365
      25A     -0.591821    26A     -0.579302    27A     -0.555729
      28A     -0.554959    29A     -0.522394    30A     -0.511810
      31A     -0.475514    32A     -0.434914    33A     -0.425313
      34A     -0.415588    35A     -0.405848    36A     -0.332142

  @DF-RHF Final Energy:  -417.77524908521190

   => Energetics <=

    Nuclear Repulsion Energy =            492.3908575286976657
    One-Electron Energy =               -1541.6693396634379951
    Two-Electron Energy =                 631.5032330495284896
    Total Energy =                       -417.7752490852119536
  Basis Set: (AUG-CC-PVTZ AUX)
    Blend: AUG-CC-PVTZ-RI
    Molecular point group: c1

    Geometry (in Angstrom), charge = 0, multiplicity = 1:

       Center              X                  Y                   Z               Mass
    ------------   -----------------  -----------------  -----------------  -----------------
         N            0.168092997102    -0.961934408425    -0.010403821260    14.003074004430
         N           -0.234584702898     1.448704891575    -0.003053521260    14.003074004430
         C            2.035264997102     0.569064591575     0.008345178740    12.000000000000
         C            2.947152997102    -0.377890408425    -0.740432821260    12.000000000000
         C            2.939454997102    -0.388535408425     0.752832178740    12.000000000000
         C            0.579762997102     0.321745591575    -0.000472821260    12.000000000000
         C           -2.089844002898    -0.126330408425    -0.010128821260    12.000000000000
         C           -1.155904002898    -1.165509408425    -0.014406821260    12.000000000000
         C           -1.544647002898     1.159339591575    -0.006842821260    12.000000000000
         C           -3.570708002898    -0.374670408425     0.019692178740    12.000000000000
         H            2.299378997102     1.621669591575     0.016958178740     1.007825032230
         H            3.798589997102     0.053902591575    -1.256491821260     1.007825032230
         H            2.462007997102    -1.205801408425    -1.246078821260     1.007825032230
         H            2.449303997102    -1.223639408425     1.241560178740     1.007825032230
         H            3.785493997102     0.035759591575     1.283775178740     1.007825032230
         H           -1.481674002898    -2.206739408425    -0.028071821260     1.007825032230
         H           -2.192209002898     2.037292591575    -0.014268821260     1.007825032230
         H           -3.821004002898    -1.308751408425    -0.490518821260     1.007825032230
         H           -4.112973002898     0.437980591575    -0.471117821260     1.007825032230
         H           -3.936358002898    -0.447262408425     1.049010178740     1.007825032230

  Basis Set: AUG-CC-PVTZ
    Blend: AUG-CC-PVTZ
  Basis Set: (AUG-CC-PVTZ AUX)
    Blend: AUG-CC-PVTZ-JKFIT
	 Reference Energy          =    -417.7752490852118967 [Eh]
	 Singles Energy            =      -0.0000000000000000 [Eh]
	 Same-Spin Energy          =      -0.4580748987163712 [Eh]
	 Opposite-Spin Energy      =      -1.4489116716136206 [Eh]
	 Correlation Energy        =      -1.9069865703299917 [Eh]
	 Total Energy              =    -419.6822356555418878 [Eh]

	 ================> DF-SCS-MP2 Energies <==================
	-----------------------------------------------------------
	 SCS Same-Spin Scale       =       0.3333333333333333 [-]
	 SCS Opposite-Spin Scale   =       1.2000000000000000 [-]
	 SCS Same-Spin Energy      =      -0.1526916329054571 [Eh]
	 SCS Opposite-Spin Energy  =      -1.7386940059363447 [Eh]
	 SCS Correlation Energy    =      -1.8913856388418018 [Eh]
	 SCS Total Energy          =    -419.6666347240537220 [Eh]
	-----------------------------------------------------------

  Dipole Moment: [D]
     X:    -1.9836      Y:    -0.6499      Z:     0.0460     Total:     2.0878

*** Psi4 exiting successfully. Buy a developer a beer!
