                               Psi4 1.4a3.dev225

  ==> Input File <==

--------------------------------------------------------------------------
#psi4
#
memory 32 gb

molecule  {
0 1
  N        0.1723510    -0.9422650    -0.0110160
  N       -0.2210270     1.4224780    -0.0033780
  C        2.0395230     0.5887340     0.0077330
  C        2.9514110    -0.3582210    -0.7410450
  C        2.9437130    -0.3688660     0.7522200
  C        0.5840210     0.3414150    -0.0010850
  C       -2.0855860    -0.1066610    -0.0107410
  C       -1.1516460    -1.1458400    -0.0150190
  C       -1.5481971     1.1605962    -0.0075021
  C       -3.5664500    -0.3550010     0.0190800
  H        2.3036370     1.6413390     0.0163460
  H        3.8028480     0.0735720    -1.2571040
  H        2.4662660    -1.1861320    -1.2466910
  H        2.4535620    -1.2039700     1.2409480
  H        3.7897520     0.0554290     1.2831630
  H       -1.4774160    -2.1870700    -0.0286840
  H       -2.1879510     2.0569620    -0.0148810
  H       -3.8167460    -1.2890820    -0.4911310
  H       -4.1087150     0.4576500    -0.4717300
  H       -3.9321000    -0.4275930     1.0483980
units angstrom
no_reorient  #important for SAPT in psi4, default
symmetry c1  #important for SAPT in psi4, default
}

set PROPERTIES_ORIGIN ["COM"]
properties('MP2/aug-cc-pvtz', properties = ['dipole'])
--------------------------------------------------------------------------

    Molecular point group: c1
  Charge       = 0
  Multiplicity = 1
  Basis Set: AUG-CC-PVTZ
    Blend: AUG-CC-PVTZ
  Basis Set: (AUG-CC-PVTZ AUX)
    Blend: AUG-CC-PVTZ-JKFIT

    Orbital Energies [Eh]
    ---------------------

    Doubly Occupied:

       1A    -15.564514     2A    -15.564130     3A    -11.313137
       4A    -11.293505     5A    -11.288990     6A    -11.244113
       7A    -11.238403     8A    -11.231230     9A    -11.225838
      10A    -11.225158    11A     -1.301270    12A     -1.180336
      13A     -1.147561    14A     -1.090949    15A     -0.966884
      16A     -0.891567    17A     -0.876567    18A     -0.818648
      19A     -0.795415    20A     -0.716365    21A     -0.693824
      22A     -0.645865    23A     -0.613840    24A     -0.599060
      25A     -0.591306    26A     -0.579163    27A     -0.558135
      28A     -0.555636    29A     -0.523487    30A     -0.511076
      31A     -0.472429    32A     -0.434776    33A     -0.423991
      34A     -0.412665    35A     -0.404002    36A     -0.336858

  @DF-RHF Final Energy:  -417.77893896396273

   => Energetics <=

    Nuclear Repulsion Energy =            493.7220361010334386
    One-Electron Energy =               -1544.3405658709307318
    Two-Electron Energy =                 632.8395908059346766
    Total Energy =                       -417.7789389639626734
  Basis Set: (AUG-CC-PVTZ AUX)
    Blend: AUG-CC-PVTZ-RI
    Molecular point group: c1

    Geometry (in Angstrom), charge = 0, multiplicity = 1:

       Center              X                  Y                   Z               Mass
    ------------   -----------------  -----------------  -----------------  -----------------
         N            0.167820577732    -0.955493369078    -0.010429651889    14.003074004430
         N           -0.225557422268     1.409249630922    -0.002791651889    14.003074004430
         C            2.034992577732     0.575505630922     0.008319348111    12.000000000000
         C            2.946880577732    -0.371449369078    -0.740458651889    12.000000000000
         C            2.939182577732    -0.382094369078     0.752806348111    12.000000000000
         C            0.579490577732     0.328186630922    -0.000498651889    12.000000000000
         C           -2.090116422268    -0.119889369078    -0.010154651889    12.000000000000
         C           -1.156176422268    -1.159068369078    -0.014432651889    12.000000000000
         C           -1.552727522268     1.147367830922    -0.006915751889    12.000000000000
         C           -3.570980422268    -0.368229369078     0.019666348111    12.000000000000
         H            2.299106577732     1.628110630922     0.016932348111     1.007825032230
         H            3.798317577732     0.060343630922    -1.256517651889     1.007825032230
         H            2.461735577732    -1.199360369078    -1.246104651889     1.007825032230
         H            2.449031577732    -1.217198369078     1.241534348111     1.007825032230
         H            3.785221577732     0.042200630922     1.283749348111     1.007825032230
         H           -1.481946422268    -2.200298369078    -0.028097651889     1.007825032230
         H           -2.192481422268     2.043733630922    -0.014294651889     1.007825032230
         H           -3.821276422268    -1.302310369078    -0.490544651889     1.007825032230
         H           -4.113245422268     0.444421630922    -0.471143651889     1.007825032230
         H           -3.936630422268    -0.440821369078     1.048984348111     1.007825032230

  Basis Set: AUG-CC-PVTZ
    Blend: AUG-CC-PVTZ
  Basis Set: (AUG-CC-PVTZ AUX)
    Blend: AUG-CC-PVTZ-JKFIT
	 Reference Energy          =    -417.7789389639627302 [Eh]
	 Singles Energy            =      -0.0000000000000000 [Eh]
	 Same-Spin Energy          =      -0.4577184788457765 [Eh]
	 Opposite-Spin Energy      =      -1.4476769451431242 [Eh]
	 Correlation Energy        =      -1.9053954239889006 [Eh]
	 Total Energy              =    -419.6843343879516510 [Eh]

	 ================> DF-SCS-MP2 Energies <==================
	-----------------------------------------------------------
	 SCS Same-Spin Scale       =       0.3333333333333333 [-]
	 SCS Opposite-Spin Scale   =       1.2000000000000000 [-]
	 SCS Same-Spin Energy      =      -0.1525728262819255 [Eh]
	 SCS Opposite-Spin Energy  =      -1.7372123341717489 [Eh]
	 SCS Correlation Energy    =      -1.8897851604536744 [Eh]
	 SCS Total Energy          =    -419.6687241244164284 [Eh]
	-----------------------------------------------------------

  Dipole Moment: [D]
     X:    -2.0380      Y:    -0.6102      Z:     0.0456     Total:     2.1279

*** Psi4 exiting successfully. Buy a developer a beer!
