                               Psi4 1.4a3.dev225

  ==> Input File <==

--------------------------------------------------------------------------
#psi4
#
memory 32 gb

molecule  {
0 1
  N        0.1723510    -0.9422650    -0.0110160
  N       -0.2210270     1.4224780    -0.0033780
  C        2.0395230     0.5887340     0.0077330
  C        2.9514110    -0.3582210    -0.7410450
  C        2.9437130    -0.3688660     0.7522200
  C        0.5840210     0.3414150    -0.0010850
  C       -2.0855860    -0.1066610    -0.0107410
  C       -1.1516460    -1.1458400    -0.0150190
  C       -1.7370673     1.1427149    -0.0080628
  C       -3.5664500    -0.3550010     0.0190800
  H        2.3036370     1.6413390     0.0163460
  H        3.8028480     0.0735720    -1.2571040
  H        2.4662660    -1.1861320    -1.2466910
  H        2.4535620    -1.2039700     1.2409480
  H        3.7897520     0.0554290     1.2831630
  H       -1.4774160    -2.1870700    -0.0286840
  H       -2.1879510     2.0569620    -0.0148810
  H       -3.8167460    -1.2890820    -0.4911310
  H       -4.1087150     0.4576500    -0.4717300
  H       -3.9321000    -0.4275930     1.0483980
units angstrom
no_reorient  #important for SAPT in psi4, default
symmetry c1  #important for SAPT in psi4, default
}

set PROPERTIES_ORIGIN ["COM"]
properties('MP2/aug-cc-pvtz', properties = ['dipole'])
--------------------------------------------------------------------------

    Molecular point group: c1
  Charge       = 0
  Multiplicity = 1
  Basis Set: AUG-CC-PVTZ
    Blend: AUG-CC-PVTZ
  Basis Set: (AUG-CC-PVTZ AUX)
    Blend: AUG-CC-PVTZ-JKFIT

    Orbital Energies [Eh]
    ---------------------

    Doubly Occupied:

       1A    -15.570586     2A    -15.565019     3A    -11.306806
       4A    -11.304389     5A    -11.284320     6A    -11.243462
       7A    -11.237459     8A    -11.228965     9A    -11.223722
      10A    -11.223044    11A     -1.287330    12A     -1.148695
      13A     -1.147878    14A     -1.104299    15A     -0.961299
      16A     -0.910070    17A     -0.868191    18A     -0.816922
      19A     -0.798173    20A     -0.721807    21A     -0.685354
      22A     -0.650951    23A     -0.614697    24A     -0.600594
      25A     -0.596686    26A     -0.587210    27A     -0.554186
      28A     -0.550662    29A     -0.521978    30A     -0.508557
      31A     -0.456093    32A     -0.437152    33A     -0.420791
      34A     -0.401271    35A     -0.392099    36A     -0.349023

  @DF-RHF Final Energy:  -417.73339828206298

   => Energetics <=

    Nuclear Repulsion Energy =            491.8664297535995047
    One-Electron Energy =               -1540.6401743033052298
    Two-Electron Energy =                 631.0403462676426898
    Total Energy =                       -417.7333982820630354
  Basis Set: (AUG-CC-PVTZ AUX)
    Blend: AUG-CC-PVTZ-RI
    Molecular point group: c1

    Geometry (in Angstrom), charge = 0, multiplicity = 1:

       Center              X                  Y                   Z               Mass
    ------------   -----------------  -----------------  -----------------  -----------------
         N            0.184723680764    -0.953893066562    -0.010379471555    14.003074004430
         N           -0.208654319236     1.410849933438    -0.002741471555    14.003074004430
         C            2.051895680764     0.577105933438     0.008369528445    12.000000000000
         C            2.963783680764    -0.369849066562    -0.740408471555    12.000000000000
         C            2.956085680764    -0.380494066562     0.752856528445    12.000000000000
         C            0.596393680764     0.329786933438    -0.000448471555    12.000000000000
         C           -2.073213319236    -0.118289066562    -0.010104471555    12.000000000000
         C           -1.139273319236    -1.157468066562    -0.014382471555    12.000000000000
         C           -1.724694619236     1.131086833438    -0.007426271555    12.000000000000
         C           -3.554077319236    -0.366629066562     0.019716528445    12.000000000000
         H            2.316009680764     1.629710933438     0.016982528445     1.007825032230
         H            3.815220680764     0.061943933438    -1.256467471555     1.007825032230
         H            2.478638680764    -1.197760066562    -1.246054471555     1.007825032230
         H            2.465934680764    -1.215598066562     1.241584528445     1.007825032230
         H            3.802124680764     0.043800933438     1.283799528445     1.007825032230
         H           -1.465043319236    -2.198698066562    -0.028047471555     1.007825032230
         H           -2.175578319236     2.045333933438    -0.014244471555     1.007825032230
         H           -3.804373319236    -1.300710066562    -0.490494471555     1.007825032230
         H           -4.096342319236     0.446021933438    -0.471093471555     1.007825032230
         H           -3.919727319236    -0.439221066562     1.049034528445     1.007825032230

  Basis Set: AUG-CC-PVTZ
    Blend: AUG-CC-PVTZ
  Basis Set: (AUG-CC-PVTZ AUX)
    Blend: AUG-CC-PVTZ-JKFIT
	 Reference Energy          =    -417.7333982820629785 [Eh]
	 Singles Energy            =      -0.0000000000000000 [Eh]
	 Same-Spin Energy          =      -0.4587686657808361 [Eh]
	 Opposite-Spin Energy      =      -1.4538782493411433 [Eh]
	 Correlation Energy        =      -1.9126469151219794 [Eh]
	 Total Energy              =    -419.6460451971849466 [Eh]

	 ================> DF-SCS-MP2 Energies <==================
	-----------------------------------------------------------
	 SCS Same-Spin Scale       =       0.3333333333333333 [-]
	 SCS Opposite-Spin Scale   =       1.2000000000000000 [-]
	 SCS Same-Spin Energy      =      -0.1529228885936120 [Eh]
	 SCS Opposite-Spin Energy  =      -1.7446538992093719 [Eh]
	 SCS Correlation Energy    =      -1.8975767878029839 [Eh]
	 SCS Total Energy          =    -419.6309750698659400 [Eh]
	-----------------------------------------------------------

  Dipole Moment: [D]
     X:    -2.1726      Y:    -0.6769      Z:     0.0400     Total:     2.2759

*** Psi4 exiting successfully. Buy a developer a beer!
