                               Psi4 1.4a3.dev225

  ==> Input File <==

--------------------------------------------------------------------------
#psi4
#
memory 32 gb

molecule  {
0 1
  N        0.1723510    -0.9422650    -0.0110160
  N       -0.2210270     1.4224780    -0.0033780
  C        2.0395230     0.5887340     0.0077330
  C        2.9514110    -0.3582210    -0.7410450
  C        2.9437130    -0.3688660     0.7522200
  C        0.5840210     0.3414150    -0.0010850
  C       -2.0730711    -0.1972617     0.0404796
  C       -1.1516460    -1.1458400    -0.0150190
  C       -1.5403890     1.1790090    -0.0074550
  C       -3.5664500    -0.3550010     0.0190800
  H        2.3036370     1.6413390     0.0163460
  H        3.8028480     0.0735720    -1.2571040
  H        2.4662660    -1.1861320    -1.2466910
  H        2.4535620    -1.2039700     1.2409480
  H        3.7897520     0.0554290     1.2831630
  H       -1.4774160    -2.1870700    -0.0286840
  H       -2.1879510     2.0569620    -0.0148810
  H       -3.8167460    -1.2890820    -0.4911310
  H       -4.1087150     0.4576500    -0.4717300
  H       -3.9321000    -0.4275930     1.0483980
units angstrom
no_reorient  #important for SAPT in psi4, default
symmetry c1  #important for SAPT in psi4, default
}

set PROPERTIES_ORIGIN ["COM"]
properties('MP2/aug-cc-pvtz', properties = ['dipole'])
--------------------------------------------------------------------------

    Molecular point group: c1
  Charge       = 0
  Multiplicity = 1
  Basis Set: AUG-CC-PVTZ
    Blend: AUG-CC-PVTZ
  Basis Set: (AUG-CC-PVTZ AUX)
    Blend: AUG-CC-PVTZ-JKFIT

    Orbital Energies [Eh]
    ---------------------

    Doubly Occupied:

       1A    -15.568064     2A    -15.558833     3A    -11.313676
       4A    -11.304116     5A    -11.276128     6A    -11.245223
       7A    -11.238583     8A    -11.231151     9A    -11.225591
      10A    -11.224908    11A     -1.301292    12A     -1.182495
      13A     -1.147372    14A     -1.088358    15A     -0.967526
      16A     -0.901338    17A     -0.863985    18A     -0.818233
      19A     -0.796867    20A     -0.715943    21A     -0.692658
      22A     -0.645790    23A     -0.614278    24A     -0.602023
      25A     -0.594047    26A     -0.578387    27A     -0.557960
      28A     -0.553239    29A     -0.522758    30A     -0.510611
      31A     -0.468938    32A     -0.434965    33A     -0.424433
      34A     -0.414838    35A     -0.400711    36A     -0.334553

  @DF-RHF Final Energy:  -417.76872722748652

   => Energetics <=

    Nuclear Repulsion Energy =            493.5580635038149921
    One-Electron Energy =               -1544.0138336043150957
    Two-Electron Energy =                 632.6870428730135245
    Total Energy =                       -417.7687272274865791
  Basis Set: (AUG-CC-PVTZ AUX)
    Blend: AUG-CC-PVTZ-RI
    Molecular point group: c1

    Geometry (in Angstrom), charge = 0, multiplicity = 1:

       Center              X                  Y                   Z               Mass
    ------------   -----------------  -----------------  -----------------  -----------------
         N            0.166001753148    -0.949032850101    -0.015017899349    14.003074004430
         N           -0.227376246852     1.415710149899    -0.007379899349    14.003074004430
         C            2.033173753148     0.581966149899     0.003731100651    12.000000000000
         C            2.945061753148    -0.364988850101    -0.745046899349    12.000000000000
         C            2.937363753148    -0.375633850101     0.748218100651    12.000000000000
         C            0.577671753148     0.334647149899    -0.005086899349    12.000000000000
         C           -2.079420346852    -0.204029550101     0.036477700651    12.000000000000
         C           -1.157995246852    -1.152607850101    -0.019020899349    12.000000000000
         C           -1.546738246852     1.172241149899    -0.011456899349    12.000000000000
         C           -3.572799246852    -0.361768850101     0.015078100651    12.000000000000
         H            2.297287753148     1.634571149899     0.012344100651     1.007825032230
         H            3.796498753148     0.066804149899    -1.261105899349     1.007825032230
         H            2.459916753148    -1.192899850101    -1.250692899349     1.007825032230
         H            2.447212753148    -1.210737850101     1.236946100651     1.007825032230
         H            3.783402753148     0.048661149899     1.279161100651     1.007825032230
         H           -1.483765246852    -2.193837850101    -0.032685899349     1.007825032230
         H           -2.194300246852     2.050194149899    -0.018882899349     1.007825032230
         H           -3.823095246852    -1.295849850101    -0.495132899349     1.007825032230
         H           -4.115064246852     0.450882149899    -0.475731899349     1.007825032230
         H           -3.938449246852    -0.434360850101     1.044396100651     1.007825032230

  Basis Set: AUG-CC-PVTZ
    Blend: AUG-CC-PVTZ
  Basis Set: (AUG-CC-PVTZ AUX)
    Blend: AUG-CC-PVTZ-JKFIT
	 Reference Energy          =    -417.7687272274865222 [Eh]
	 Singles Energy            =      -0.0000000000000000 [Eh]
	 Same-Spin Energy          =      -0.4575484254135879 [Eh]
	 Opposite-Spin Energy      =      -1.4478884770428362 [Eh]
	 Correlation Energy        =      -1.9054369024564242 [Eh]
	 Total Energy              =    -419.6741641299429375 [Eh]

	 ================> DF-SCS-MP2 Energies <==================
	-----------------------------------------------------------
	 SCS Same-Spin Scale       =       0.3333333333333333 [-]
	 SCS Opposite-Spin Scale   =       1.2000000000000000 [-]
	 SCS Same-Spin Energy      =      -0.1525161418045293 [Eh]
	 SCS Opposite-Spin Energy  =      -1.7374661724514033 [Eh]
	 SCS Correlation Energy    =      -1.8899823142559327 [Eh]
	 SCS Total Energy          =    -419.6587095417424393 [Eh]
	-----------------------------------------------------------

  Dipole Moment: [D]
     X:    -2.0727      Y:    -0.4045      Z:     0.0485     Total:     2.1123

*** Psi4 exiting successfully. Buy a developer a beer!
