                               Psi4 1.4a3.dev225

  ==> Input File <==

--------------------------------------------------------------------------
#psi4
#
memory 32 gb

molecule  {
0 1
  N        0.2174008    -0.9558525    -0.0106640
  N       -0.2210270     1.4224780    -0.0033780
  C        2.0395230     0.5887340     0.0077330
  C        2.9514110    -0.3582210    -0.7410450
  C        2.9437130    -0.3688660     0.7522200
  C        0.5840210     0.3414150    -0.0010850
  C       -2.0855860    -0.1066610    -0.0107410
  C       -1.1516460    -1.1458400    -0.0150190
  C       -1.5403890     1.1790090    -0.0074550
  C       -3.5664500    -0.3550010     0.0190800
  H        2.3036370     1.6413390     0.0163460
  H        3.8028480     0.0735720    -1.2571040
  H        2.4662660    -1.1861320    -1.2466910
  H        2.4535620    -1.2039700     1.2409480
  H        3.7897520     0.0554290     1.2831630
  H       -1.4774160    -2.1870700    -0.0286840
  H       -2.1879510     2.0569620    -0.0148810
  H       -3.8167460    -1.2890820    -0.4911310
  H       -4.1087150     0.4576500    -0.4717300
  H       -3.9321000    -0.4275930     1.0483980
units angstrom
no_reorient  #important for SAPT in psi4, default
symmetry c1  #important for SAPT in psi4, default
}

set PROPERTIES_ORIGIN ["COM"]
properties('MP2/aug-cc-pvtz', properties = ['dipole'])
--------------------------------------------------------------------------

    Molecular point group: c1
  Charge       = 0
  Multiplicity = 1
  Basis Set: AUG-CC-PVTZ
    Blend: AUG-CC-PVTZ
  Basis Set: (AUG-CC-PVTZ AUX)
    Blend: AUG-CC-PVTZ-JKFIT

    Orbital Energies [Eh]
    ---------------------

    Doubly Occupied:

       1A    -15.568949     2A    -15.565164     3A    -11.312722
       4A    -11.296874     5A    -11.293717     6A    -11.247894
       7A    -11.239635     8A    -11.229033     9A    -11.224369
      10A    -11.223695    11A     -1.297110    12A     -1.178705
      13A     -1.144285    14A     -1.089653    15A     -0.966072
      16A     -0.894066    17A     -0.873473    18A     -0.817296
      19A     -0.792520    20A     -0.713024    21A     -0.693661
      22A     -0.643462    23A     -0.612051    24A     -0.598552
      25A     -0.593393    26A     -0.580476    27A     -0.557201
      28A     -0.556244    29A     -0.520691    30A     -0.509740
      31A     -0.471785    32A     -0.432654    33A     -0.423753
      34A     -0.410092    35A     -0.407776    36A     -0.336774

  @DF-RHF Final Energy:  -417.77482735083743

   => Energetics <=

    Nuclear Repulsion Energy =            492.8892622181327852
    One-Electron Energy =               -1542.6950583140046547
    Two-Electron Energy =                 632.0309687450343290
    Total Energy =                       -417.7748273508374268
  Basis Set: (AUG-CC-PVTZ AUX)
    Blend: AUG-CC-PVTZ-RI
    Molecular point group: c1

    Geometry (in Angstrom), charge = 0, multiplicity = 1:

       Center              X                  Y                   Z               Mass
    ------------   -----------------  -----------------  -----------------  -----------------
         N            0.207466819284    -0.969309731141    -0.010118628186    14.003074004430
         N           -0.230960980716     1.409020768859    -0.002832628186    14.003074004430
         C            2.029589019284     0.575276768859     0.008278371814    12.000000000000
         C            2.941477019284    -0.371678231141    -0.740499628186    12.000000000000
         C            2.933779019284    -0.382323231141     0.752765371814    12.000000000000
         C            0.574087019284     0.327957768859    -0.000539628186    12.000000000000
         C           -2.095519980716    -0.120118231141    -0.010195628186    12.000000000000
         C           -1.161579980716    -1.159297231141    -0.014473628186    12.000000000000
         C           -1.550322980716     1.165551768859    -0.006909628186    12.000000000000
         C           -3.576383980716    -0.368458231141     0.019625371814    12.000000000000
         H            2.293703019284     1.627881768859     0.016891371814     1.007825032230
         H            3.792914019284     0.060114768859    -1.256558628186     1.007825032230
         H            2.456332019284    -1.199589231141    -1.246145628186     1.007825032230
         H            2.443628019284    -1.217427231141     1.241493371814     1.007825032230
         H            3.779818019284     0.041971768859     1.283708371814     1.007825032230
         H           -1.487349980716    -2.200527231141    -0.028138628186     1.007825032230
         H           -2.197884980716     2.043504768859    -0.014335628186     1.007825032230
         H           -3.826679980716    -1.302539231141    -0.490585628186     1.007825032230
         H           -4.118648980716     0.444192768859    -0.471184628186     1.007825032230
         H           -3.942033980716    -0.441050231141     1.048943371814     1.007825032230

  Basis Set: AUG-CC-PVTZ
    Blend: AUG-CC-PVTZ
  Basis Set: (AUG-CC-PVTZ AUX)
    Blend: AUG-CC-PVTZ-JKFIT
	 Reference Energy          =    -417.7748273508374268 [Eh]
	 Singles Energy            =      -0.0000000000000000 [Eh]
	 Same-Spin Energy          =      -0.4581599580967255 [Eh]
	 Opposite-Spin Energy      =      -1.4491422826348459 [Eh]
	 Correlation Energy        =      -1.9073022407315714 [Eh]
	 Total Energy              =    -419.6821295915689802 [Eh]

	 ================> DF-SCS-MP2 Energies <==================
	-----------------------------------------------------------
	 SCS Same-Spin Scale       =       0.3333333333333333 [-]
	 SCS Opposite-Spin Scale   =       1.2000000000000000 [-]
	 SCS Same-Spin Energy      =      -0.1527199860322418 [Eh]
	 SCS Opposite-Spin Energy  =      -1.7389707391618150 [Eh]
	 SCS Correlation Energy    =      -1.8916907251940569 [Eh]
	 SCS Total Energy          =    -419.6665180760314797 [Eh]
	-----------------------------------------------------------

  Dipole Moment: [D]
     X:    -2.1858      Y:    -0.5358      Z:     0.0450     Total:     2.2510

*** Psi4 exiting successfully. Buy a developer a beer!
