                               Psi4 1.4a3.dev225

  ==> Input File <==

--------------------------------------------------------------------------
#psi4
#
memory 32 gb

molecule  {
0 1
  N        0.1723510    -0.9422650    -0.0110160
  N       -0.2210270     1.4224780    -0.0033780
  C        2.0395230     0.5887340     0.0077330
  C        2.9514110    -0.3582210    -0.7410450
  C        2.9437130    -0.3688660     0.7522200
  C        0.4854359     0.3246634    -0.0016823
  C       -2.0855860    -0.1066610    -0.0107410
  C       -1.1516460    -1.1458400    -0.0150190
  C       -1.5403890     1.1790090    -0.0074550
  C       -3.5664500    -0.3550010     0.0190800
  H        2.3036370     1.6413390     0.0163460
  H        3.8028480     0.0735720    -1.2571040
  H        2.4662660    -1.1861320    -1.2466910
  H        2.4535620    -1.2039700     1.2409480
  H        3.7897520     0.0554290     1.2831630
  H       -1.4774160    -2.1870700    -0.0286840
  H       -2.1879510     2.0569620    -0.0148810
  H       -3.8167460    -1.2890820    -0.4911310
  H       -4.1087150     0.4576500    -0.4717300
  H       -3.9321000    -0.4275930     1.0483980
units angstrom
no_reorient  #important for SAPT in psi4, default
symmetry c1  #important for SAPT in psi4, default
}

set PROPERTIES_ORIGIN ["COM"]
properties('MP2/aug-cc-pvtz', properties = ['dipole'])
--------------------------------------------------------------------------

    Molecular point group: c1
  Charge       = 0
  Multiplicity = 1
  Basis Set: AUG-CC-PVTZ
    Blend: AUG-CC-PVTZ
  Basis Set: (AUG-CC-PVTZ AUX)
    Blend: AUG-CC-PVTZ-JKFIT

    Orbital Energies [Eh]
    ---------------------

    Doubly Occupied:

       1A    -15.566648     2A    -15.566426     3A    -11.308559
       4A    -11.296813     5A    -11.295410     6A    -11.249947
       7A    -11.241312     8A    -11.226885     9A    -11.217673
      10A    -11.216980    11A     -1.322596    12A     -1.203502
      13A     -1.135075    14A     -1.092650    15A     -0.965056
      16A     -0.902180    17A     -0.865286    18A     -0.810927
      19A     -0.792128    20A     -0.717579    21A     -0.697676
      22A     -0.642447    23A     -0.605564    24A     -0.603583
      25A     -0.596663    26A     -0.586078    27A     -0.566511
      28A     -0.559420    29A     -0.515811    30A     -0.504996
      31A     -0.461725    32A     -0.424318    33A     -0.423682
      34A     -0.421502    35A     -0.409094    36A     -0.344596

  @DF-RHF Final Energy:  -417.77097932249029

   => Energetics <=

    Nuclear Repulsion Energy =            494.2820286474972704
    One-Electron Energy =               -1545.3914099911278299
    Two-Electron Energy =                 633.3384020211402685
    Total Energy =                       -417.7709793224902342
  Basis Set: (AUG-CC-PVTZ AUX)
    Blend: AUG-CC-PVTZ-RI
    Molecular point group: c1

    Geometry (in Angstrom), charge = 0, multiplicity = 1:

       Center              X                  Y                   Z               Mass
    ------------   -----------------  -----------------  -----------------  -----------------
         N            0.175944744403    -0.955642039619    -0.010380411261    14.003074004430
         N           -0.217433255597     1.409100960381    -0.002742411261    14.003074004430
         C            2.043116744403     0.575356960381     0.008368588739    12.000000000000
         C            2.955004744403    -0.371598039619    -0.740409411261    12.000000000000
         C            2.947306744403    -0.382243039619     0.752855588739    12.000000000000
         C            0.489029644403     0.311286360381    -0.001046711261    12.000000000000
         C           -2.081992255597    -0.120038039619    -0.010105411261    12.000000000000
         C           -1.148052255597    -1.159217039619    -0.014383411261    12.000000000000
         C           -1.536795255597     1.165631960381    -0.006819411261    12.000000000000
         C           -3.562856255597    -0.368378039619     0.019715588739    12.000000000000
         H            2.307230744403     1.627961960381     0.016981588739     1.007825032230
         H            3.806441744403     0.060194960381    -1.256468411261     1.007825032230
         H            2.469859744403    -1.199509039619    -1.246055411261     1.007825032230
         H            2.457155744403    -1.217347039619     1.241583588739     1.007825032230
         H            3.793345744403     0.042051960381     1.283798588739     1.007825032230
         H           -1.473822255597    -2.200447039619    -0.028048411261     1.007825032230
         H           -2.184357255597     2.043584960381    -0.014245411261     1.007825032230
         H           -3.813152255597    -1.302459039619    -0.490495411261     1.007825032230
         H           -4.105121255597     0.444272960381    -0.471094411261     1.007825032230
         H           -3.928506255597    -0.440970039619     1.049033588739     1.007825032230

  Basis Set: AUG-CC-PVTZ
    Blend: AUG-CC-PVTZ
  Basis Set: (AUG-CC-PVTZ AUX)
    Blend: AUG-CC-PVTZ-JKFIT
	 Reference Energy          =    -417.7709793224902910 [Eh]
	 Singles Energy            =      -0.0000000000000000 [Eh]
	 Same-Spin Energy          =      -0.4565787181721778 [Eh]
	 Opposite-Spin Energy      =      -1.4459860962429985 [Eh]
	 Correlation Energy        =      -1.9025648144151761 [Eh]
	 Total Energy              =    -419.6735441369054911 [Eh]

	 ================> DF-SCS-MP2 Energies <==================
	-----------------------------------------------------------
	 SCS Same-Spin Scale       =       0.3333333333333333 [-]
	 SCS Opposite-Spin Scale   =       1.2000000000000000 [-]
	 SCS Same-Spin Energy      =      -0.1521929060573926 [Eh]
	 SCS Opposite-Spin Energy  =      -1.7351833154915981 [Eh]
	 SCS Correlation Energy    =      -1.8873762215489907 [Eh]
	 SCS Total Energy          =    -419.6583555440392956 [Eh]
	-----------------------------------------------------------

  Dipole Moment: [D]
     X:    -2.7076      Y:    -0.5702      Z:     0.0421     Total:     2.7673

*** Psi4 exiting successfully. Buy a developer a beer!
