                               Psi4 1.4a3.dev225

  ==> Input File <==

--------------------------------------------------------------------------
#psi4
#
memory 32 gb

molecule  {
0 1
  N        0.1723510    -0.9422650    -0.0110160
  N       -0.2210270     1.4224780    -0.0033780
  C        2.0395230     0.5887340     0.0077330
  C        2.9514110    -0.3582210    -0.7410450
  C        2.9437130    -0.3688660     0.7522200
  C        0.5840210     0.3414150    -0.0010850
  C       -2.0630660    -0.1159803    -0.0105138
  C       -1.1516460    -1.1458400    -0.0150190
  C       -1.5403890     1.1790090    -0.0074550
  C       -3.5664500    -0.3550010     0.0190800
  H        2.3036370     1.6413390     0.0163460
  H        3.8028480     0.0735720    -1.2571040
  H        2.4662660    -1.1861320    -1.2466910
  H        2.4535620    -1.2039700     1.2409480
  H        3.7897520     0.0554290     1.2831630
  H       -1.4774160    -2.1870700    -0.0286840
  H       -2.1879510     2.0569620    -0.0148810
  H       -3.8167460    -1.2890820    -0.4911310
  H       -4.1087150     0.4576500    -0.4717300
  H       -3.9321000    -0.4275930     1.0483980
units angstrom
no_reorient  #important for SAPT in psi4, default
symmetry c1  #important for SAPT in psi4, default
}

set PROPERTIES_ORIGIN ["COM"]
properties('MP2/aug-cc-pvtz', properties = ['dipole'])
--------------------------------------------------------------------------

    Molecular point group: c1
  Charge       = 0
  Multiplicity = 1
  Basis Set: AUG-CC-PVTZ
    Blend: AUG-CC-PVTZ
  Basis Set: (AUG-CC-PVTZ AUX)
    Blend: AUG-CC-PVTZ-JKFIT

    Orbital Energies [Eh]
    ---------------------

    Doubly Occupied:

       1A    -15.564514     2A    -15.563135     3A    -11.313200
       4A    -11.291492     5A    -11.288608     6A    -11.244238
       7A    -11.238748     8A    -11.231155     9A    -11.225673
      10A    -11.224991    11A     -1.302602    12A     -1.182911
      13A     -1.147333    14A     -1.087139    15A     -0.965155
      16A     -0.894036    17A     -0.874361    18A     -0.818467
      19A     -0.797106    20A     -0.716589    21A     -0.695229
      22A     -0.646183    23A     -0.613423    24A     -0.597282
      25A     -0.586858    26A     -0.585082    27A     -0.558180
      28A     -0.555903    29A     -0.523392    30A     -0.510992
      31A     -0.469284    32A     -0.434966    33A     -0.424067
      34A     -0.414311    35A     -0.403546    36A     -0.336121

  @DF-RHF Final Energy:  -417.77933254603107

   => Energetics <=

    Nuclear Repulsion Energy =            493.8141862798863144
    One-Electron Energy =               -1544.5344897672459865
    Two-Electron Energy =                 632.9409709413284872
    Total Energy =                       -417.7793325460311280
  Basis Set: (AUG-CC-PVTZ AUX)
    Blend: AUG-CC-PVTZ-RI
    Molecular point group: c1

    Geometry (in Angstrom), charge = 0, multiplicity = 1:

       Center              X                  Y                   Z               Mass
    ------------   -----------------  -----------------  -----------------  -----------------
         N            0.165106338010    -0.956307199780    -0.010454200607    14.003074004430
         N           -0.228271661990     1.408435800220    -0.002816200607    14.003074004430
         C            2.032278338010     0.574691800220     0.008294799393    12.000000000000
         C            2.944166338010    -0.372263199780    -0.740483200607    12.000000000000
         C            2.936468338010    -0.382908199780     0.752781799393    12.000000000000
         C            0.576776338010     0.327372800220    -0.000523200607    12.000000000000
         C           -2.070310661990    -0.130022499780    -0.009952000607    12.000000000000
         C           -1.158890661990    -1.159882199780    -0.014457200607    12.000000000000
         C           -1.547633661990     1.164966800220    -0.006893200607    12.000000000000
         C           -3.573694661990    -0.369043199780     0.019641799393    12.000000000000
         H            2.296392338010     1.627296800220     0.016907799393     1.007825032230
         H            3.795603338010     0.059529800220    -1.256542200607     1.007825032230
         H            2.459021338010    -1.200174199780    -1.246129200607     1.007825032230
         H            2.446317338010    -1.218012199780     1.241509799393     1.007825032230
         H            3.782507338010     0.041386800220     1.283724799393     1.007825032230
         H           -1.484660661990    -2.201112199780    -0.028122200607     1.007825032230
         H           -2.195195661990     2.042919800220    -0.014319200607     1.007825032230
         H           -3.823990661990    -1.303124199780    -0.490569200607     1.007825032230
         H           -4.115959661990     0.443607800220    -0.471168200607     1.007825032230
         H           -3.939344661990    -0.441635199780     1.048959799393     1.007825032230

  Basis Set: AUG-CC-PVTZ
    Blend: AUG-CC-PVTZ
  Basis Set: (AUG-CC-PVTZ AUX)
    Blend: AUG-CC-PVTZ-JKFIT
	 Reference Energy          =    -417.7793325460310712 [Eh]
	 Singles Energy            =      -0.0000000000000000 [Eh]
	 Same-Spin Energy          =      -0.4575635925654998 [Eh]
	 Opposite-Spin Energy      =      -1.4473337724267115 [Eh]
	 Correlation Energy        =      -1.9048973649922112 [Eh]
	 Total Energy              =    -419.6842299110232943 [Eh]

	 ================> DF-SCS-MP2 Energies <==================
	-----------------------------------------------------------
	 SCS Same-Spin Scale       =       0.3333333333333333 [-]
	 SCS Opposite-Spin Scale   =       1.2000000000000000 [-]
	 SCS Same-Spin Energy      =      -0.1525211975218333 [Eh]
	 SCS Opposite-Spin Energy  =      -1.7368005269120537 [Eh]
	 SCS Correlation Energy    =      -1.8893217244338869 [Eh]
	 SCS Total Energy          =    -419.6686542704649696 [Eh]
	-----------------------------------------------------------

  Dipole Moment: [D]
     X:    -2.0275      Y:    -0.5453      Z:     0.0436     Total:     2.1000

*** Psi4 exiting successfully. Buy a developer a beer!
