                               Psi4 1.4a3.dev225

  ==> Input File <==

--------------------------------------------------------------------------
#psi4
#
memory 32 gb

molecule  {
0 1
  N        0.1723510    -0.9422650    -0.0110160
  N       -0.2210270     1.4224780    -0.0033780
  C        2.0395230     0.5887340     0.0077330
  C        2.9514110    -0.3582210    -0.7410450
  C        2.9437130    -0.3688660     0.7522200
  C        0.5840210     0.3414150    -0.0010850
  C       -2.0855860    -0.1066610    -0.0107410
  C       -1.1516460    -1.1458400    -0.0150190
  C       -1.6184698     0.9948809    -0.0079256
  C       -3.5664500    -0.3550010     0.0190800
  H        2.3036370     1.6413390     0.0163460
  H        3.8028480     0.0735720    -1.2571040
  H        2.4662660    -1.1861320    -1.2466910
  H        2.4535620    -1.2039700     1.2409480
  H        3.7897520     0.0554290     1.2831630
  H       -1.4774160    -2.1870700    -0.0286840
  H       -2.1879510     2.0569620    -0.0148810
  H       -3.8167460    -1.2890820    -0.4911310
  H       -4.1087150     0.4576500    -0.4717300
  H       -3.9321000    -0.4275930     1.0483980
units angstrom
no_reorient  #important for SAPT in psi4, default
symmetry c1  #important for SAPT in psi4, default
}

set PROPERTIES_ORIGIN ["COM"]
properties('MP2/aug-cc-pvtz', properties = ['dipole'])
--------------------------------------------------------------------------

    Molecular point group: c1
  Charge       = 0
  Multiplicity = 1
  Basis Set: AUG-CC-PVTZ
    Blend: AUG-CC-PVTZ
  Basis Set: (AUG-CC-PVTZ AUX)
    Blend: AUG-CC-PVTZ-JKFIT

    Orbital Energies [Eh]
    ---------------------

    Doubly Occupied:

       1A    -15.569915     2A    -15.564847     3A    -11.310121
       4A    -11.307854     5A    -11.271862     6A    -11.240658
       7A    -11.230667     8A    -11.225872     9A    -11.225269
      10A    -11.225197    11A     -1.301158    12A     -1.163320
      13A     -1.154760    14A     -1.117016    15A     -0.967917
      16A     -0.910756    17A     -0.875952    18A     -0.818846
      19A     -0.783538    20A     -0.716582    21A     -0.694300
      22A     -0.646157    23A     -0.617614    24A     -0.608400
      25A     -0.594990    26A     -0.561306    27A     -0.557494
      28A     -0.537594    29A     -0.522504    30A     -0.511479
      31A     -0.467167    32A     -0.444179    33A     -0.420072
      34A     -0.411738    35A     -0.405374    36A     -0.357752

  @DF-RHF Final Energy:  -417.71562427973021

   => Energetics <=

    Nuclear Repulsion Energy =            495.6550325873631664
    One-Electron Energy =               -1548.0608563864525422
    Two-Electron Energy =                 634.6901995193592256
    Total Energy =                       -417.7156242797301502
  Basis Set: (AUG-CC-PVTZ AUX)
    Blend: AUG-CC-PVTZ-RI
    Molecular point group: c1

    Geometry (in Angstrom), charge = 0, multiplicity = 1:

       Center              X                  Y                   Z               Mass
    ------------   -----------------  -----------------  -----------------  -----------------
         N            0.174109694217    -0.940662533987    -0.010391750388    14.003074004430
         N           -0.219268305783     1.424080466013    -0.002753750388    14.003074004430
         C            2.041281694217     0.590336466013     0.008357249612    12.000000000000
         C            2.953169694217    -0.356618533987    -0.740420750388    12.000000000000
         C            2.945471694217    -0.367263533987     0.752844249612    12.000000000000
         C            0.585779694217     0.343017466013    -0.000460750388    12.000000000000
         C           -2.083827305783    -0.105058533987    -0.010116750388    12.000000000000
         C           -1.149887305783    -1.144237533987    -0.014394750388    12.000000000000
         C           -1.616711105783     0.996483366013    -0.007301350388    12.000000000000
         C           -3.564691305783    -0.353398533987     0.019704249612    12.000000000000
         H            2.305395694217     1.642941466013     0.016970249612     1.007825032230
         H            3.804606694217     0.075174466013    -1.256479750388     1.007825032230
         H            2.468024694217    -1.184529533987    -1.246066750388     1.007825032230
         H            2.455320694217    -1.202367533987     1.241572249612     1.007825032230
         H            3.791510694217     0.057031466013     1.283787249612     1.007825032230
         H           -1.475657305783    -2.185467533987    -0.028059750388     1.007825032230
         H           -2.186192305783     2.058564466013    -0.014256750388     1.007825032230
         H           -3.814987305783    -1.287479533987    -0.490506750388     1.007825032230
         H           -4.106956305783     0.459252466013    -0.471105750388     1.007825032230
         H           -3.930341305783    -0.425990533987     1.049022249612     1.007825032230

  Basis Set: AUG-CC-PVTZ
    Blend: AUG-CC-PVTZ
  Basis Set: (AUG-CC-PVTZ AUX)
    Blend: AUG-CC-PVTZ-JKFIT
	 Reference Energy          =    -417.7156242797302070 [Eh]
	 Singles Energy            =      -0.0000000000000000 [Eh]
	 Same-Spin Energy          =      -0.4575674528980744 [Eh]
	 Opposite-Spin Energy      =      -1.4507733637077742 [Eh]
	 Correlation Energy        =      -1.9083408166058486 [Eh]
	 Total Energy              =    -419.6239650963360646 [Eh]

	 ================> DF-SCS-MP2 Energies <==================
	-----------------------------------------------------------
	 SCS Same-Spin Scale       =       0.3333333333333333 [-]
	 SCS Opposite-Spin Scale   =       1.2000000000000000 [-]
	 SCS Same-Spin Energy      =      -0.1525224842993581 [Eh]
	 SCS Opposite-Spin Energy  =      -1.7409280364493289 [Eh]
	 SCS Correlation Energy    =      -1.8934505207486871 [Eh]
	 SCS Total Energy          =    -419.6090748004788793 [Eh]
	-----------------------------------------------------------

  Dipole Moment: [D]
     X:    -1.8979      Y:    -0.9371      Z:     0.0396     Total:     2.1170

*** Psi4 exiting successfully. Buy a developer a beer!
