                               Psi4 1.4a3.dev225

  ==> Input File <==

--------------------------------------------------------------------------
#psi4
#
memory 32 gb

molecule  {
0 1
  N        0.1723510    -0.9422650    -0.0110160
  N       -0.2210270     1.4224780    -0.0033780
  C        2.0395230     0.5887340     0.0077330
  C        2.9514110    -0.3582210    -0.7410450
  C        2.9437130    -0.3688660     0.7522200
  C        0.5840210     0.3414150    -0.0010850
  C       -2.0855860    -0.1066610    -0.0107410
  C       -1.0528080    -1.1306429    -0.0147202
  C       -1.5403890     1.1790090    -0.0074550
  C       -3.5664500    -0.3550010     0.0190800
  H        2.3036370     1.6413390     0.0163460
  H        3.8028480     0.0735720    -1.2571040
  H        2.4662660    -1.1861320    -1.2466910
  H        2.4535620    -1.2039700     1.2409480
  H        3.7897520     0.0554290     1.2831630
  H       -1.4774160    -2.1870700    -0.0286840
  H       -2.1879510     2.0569620    -0.0148810
  H       -3.8167460    -1.2890820    -0.4911310
  H       -4.1087150     0.4576500    -0.4717300
  H       -3.9321000    -0.4275930     1.0483980
units angstrom
no_reorient  #important for SAPT in psi4, default
symmetry c1  #important for SAPT in psi4, default
}

set PROPERTIES_ORIGIN ["COM"]
properties('MP2/aug-cc-pvtz', properties = ['dipole'])
--------------------------------------------------------------------------

    Molecular point group: c1
  Charge       = 0
  Multiplicity = 1
  Basis Set: AUG-CC-PVTZ
    Blend: AUG-CC-PVTZ
  Basis Set: (AUG-CC-PVTZ AUX)
    Blend: AUG-CC-PVTZ-JKFIT

    Orbital Energies [Eh]
    ---------------------

    Doubly Occupied:

       1A    -15.562316     2A    -15.561285     3A    -11.317643
       4A    -11.292696     5A    -11.283120     6A    -11.246732
       7A    -11.238381     8A    -11.233507     9A    -11.228194
      10A    -11.227514    11A     -1.321501    12A     -1.201917
      13A     -1.150006    14A     -1.079222    15A     -0.970011
      16A     -0.881483    17A     -0.876953    18A     -0.821040
      19A     -0.801854    20A     -0.719178    21A     -0.694497
      22A     -0.647807    23A     -0.611854    24A     -0.600235
      25A     -0.591742    26A     -0.578251    27A     -0.565176
      28A     -0.552446    29A     -0.523351    30A     -0.513510
      31A     -0.475421    32A     -0.440153    33A     -0.426728
      34A     -0.426100    35A     -0.395705    36A     -0.326235

  @DF-RHF Final Energy:  -417.76904665289857

   => Energetics <=

    Nuclear Repulsion Energy =            494.7517102970957694
    One-Electron Energy =               -1546.2739879206958449
    Two-Electron Energy =                 633.7532309707014520
    Total Energy =                       -417.7690466528986235
  Basis Set: (AUG-CC-PVTZ AUX)
    Blend: AUG-CC-PVTZ-RI
    Molecular point group: c1

    Geometry (in Angstrom), charge = 0, multiplicity = 1:

       Center              X                  Y                   Z               Mass
    ------------   -----------------  -----------------  -----------------  -----------------
         N            0.158276192137    -0.958501316349    -0.010460608511    14.003074004430
         N           -0.235101807863     1.406241683651    -0.002822608511    14.003074004430
         C            2.025448192137     0.572497683651     0.008288391489    12.000000000000
         C            2.937336192137    -0.374457316349    -0.740489608511    12.000000000000
         C            2.929638192137    -0.385102316349     0.752775391489    12.000000000000
         C            0.569946192137     0.325178683651    -0.000529608511    12.000000000000
         C           -2.099660807863    -0.122897316349    -0.010185608511    12.000000000000
         C           -1.066882807863    -1.146879216349    -0.014164808511    12.000000000000
         C           -1.554463807863     1.162772683651    -0.006899608511    12.000000000000
         C           -3.580524807863    -0.371237316349     0.019635391489    12.000000000000
         H            2.289562192137     1.625102683651     0.016901391489     1.007825032230
         H            3.788773192137     0.057335683651    -1.256548608511     1.007825032230
         H            2.452191192137    -1.202368316349    -1.246135608511     1.007825032230
         H            2.439487192137    -1.220206316349     1.241503391489     1.007825032230
         H            3.775677192137     0.039192683651     1.283718391489     1.007825032230
         H           -1.491490807863    -2.203306316349    -0.028128608511     1.007825032230
         H           -2.202025807863     2.040725683651    -0.014325608511     1.007825032230
         H           -3.830820807863    -1.305318316349    -0.490575608511     1.007825032230
         H           -4.122789807863     0.441413683651    -0.471174608511     1.007825032230
         H           -3.946174807863    -0.443829316349     1.048953391489     1.007825032230

  Basis Set: AUG-CC-PVTZ
    Blend: AUG-CC-PVTZ
  Basis Set: (AUG-CC-PVTZ AUX)
    Blend: AUG-CC-PVTZ-JKFIT
	 Reference Energy          =    -417.7690466528985667 [Eh]
	 Singles Energy            =      -0.0000000000000000 [Eh]
	 Same-Spin Energy          =      -0.4568481594476650 [Eh]
	 Opposite-Spin Energy      =      -1.4459470385521516 [Eh]
	 Correlation Energy        =      -1.9027951979998166 [Eh]
	 Total Energy              =    -419.6718418508983746 [Eh]

	 ================> DF-SCS-MP2 Energies <==================
	-----------------------------------------------------------
	 SCS Same-Spin Scale       =       0.3333333333333333 [-]
	 SCS Opposite-Spin Scale   =       1.2000000000000000 [-]
	 SCS Same-Spin Energy      =      -0.1522827198158883 [Eh]
	 SCS Opposite-Spin Energy  =      -1.7351364462625818 [Eh]
	 SCS Correlation Energy    =      -1.8874191660784700 [Eh]
	 SCS Total Energy          =    -419.6564658189770398 [Eh]
	-----------------------------------------------------------

  Dipole Moment: [D]
     X:    -1.8725      Y:    -0.5909      Z:     0.0494     Total:     1.9641

*** Psi4 exiting successfully. Buy a developer a beer!
