                               Psi4 1.4a3.dev225

  ==> Input File <==

--------------------------------------------------------------------------
#psi4
#
memory 32 gb

molecule  {
0 1
  N        0.1723510    -0.9422650    -0.0110160
  N       -0.2210270     1.4224780    -0.0033780
  C        2.0395230     0.5887340     0.0077330
  C        2.9514110    -0.3582210    -0.7410450
  C        2.9437130    -0.3688660     0.7522200
  C        0.5840210     0.3414150    -0.0010850
  C       -2.0855860    -0.1066610    -0.0107410
  C       -1.1516460    -1.1458400    -0.0150190
  C       -1.5403890     1.1790090    -0.0074550
  C       -3.5664500    -0.3550010     0.0190800
  H        2.3036370     1.6413390     0.0163460
  H        3.8028480     0.0735720    -1.2571040
  H        2.4662660    -1.1861320    -1.2466910
  H        2.4535620    -1.2039700     1.2409480
  H        3.7897520     0.0554290     1.2831630
  H       -1.4774160    -2.1870700    -0.0286840
  H       -2.1879510     2.0569620    -0.0148810
  H       -3.8213244    -1.3061682    -0.5004638
  H       -4.1087150     0.4576500    -0.4717300
  H       -3.9321000    -0.4275930     1.0483980
units angstrom
no_reorient  #important for SAPT in psi4, default
symmetry c1  #important for SAPT in psi4, default
}

set PROPERTIES_ORIGIN ["COM"]
properties('MP2/aug-cc-pvtz', properties = ['dipole'])
--------------------------------------------------------------------------

    Molecular point group: c1
  Charge       = 0
  Multiplicity = 1
  Basis Set: AUG-CC-PVTZ
    Blend: AUG-CC-PVTZ
  Basis Set: (AUG-CC-PVTZ AUX)
    Blend: AUG-CC-PVTZ-JKFIT

    Orbital Energies [Eh]
    ---------------------

    Doubly Occupied:

       1A    -15.564129     2A    -15.564066     3A    -11.313616
       4A    -11.291920     5A    -11.290507     6A    -11.245791
       7A    -11.240538     8A    -11.231373     9A    -11.225900
      10A    -11.225219    11A     -1.301801    12A     -1.182645
      13A     -1.147191    14A     -1.087901    15A     -0.966078
      16A     -0.891436    17A     -0.874059    18A     -0.818688
      19A     -0.796481    20A     -0.715839    21A     -0.694636
      22A     -0.645960    23A     -0.613529    24A     -0.597761
      25A     -0.591660    26A     -0.582281    27A     -0.558250
      28A     -0.552328    29A     -0.523496    30A     -0.511128
      31A     -0.471888    32A     -0.434177    33A     -0.424313
      34A     -0.414353    35A     -0.402809    36A     -0.334410

  @DF-RHF Final Energy:  -417.77903837237898

   => Energetics <=

    Nuclear Repulsion Energy =            493.4577262987514814
    One-Electron Energy =               -1543.8172142964854174
    Two-Electron Energy =                 632.5804496253550724
    Total Energy =                       -417.7790383723789773
  Basis Set: (AUG-CC-PVTZ AUX)
    Blend: AUG-CC-PVTZ-RI
    Molecular point group: c1

    Geometry (in Angstrom), charge = 0, multiplicity = 1:

       Center              X                  Y                   Z               Mass
    ------------   -----------------  -----------------  -----------------  -----------------
         N            0.167156197871    -0.957012812820    -0.010363718570    14.003074004430
         N           -0.226221802129     1.407730187180    -0.002725718570    14.003074004430
         C            2.034328197871     0.573986187180     0.008385281430    12.000000000000
         C            2.946216197871    -0.372968812820    -0.740392718570    12.000000000000
         C            2.938518197871    -0.383613812820     0.752872281430    12.000000000000
         C            0.578826197871     0.326667187180    -0.000432718570    12.000000000000
         C           -2.090780802129    -0.121408812820    -0.010088718570    12.000000000000
         C           -1.156840802129    -1.160587812820    -0.014366718570    12.000000000000
         C           -1.545583802129     1.164261187180    -0.006802718570    12.000000000000
         C           -3.571644802129    -0.369748812820     0.019732281430    12.000000000000
         H            2.298442197871     1.626591187180     0.016998281430     1.007825032230
         H            3.797653197871     0.058824187180    -1.256451718570     1.007825032230
         H            2.461071197871    -1.200879812820    -1.246038718570     1.007825032230
         H            2.448367197871    -1.218717812820     1.241600281430     1.007825032230
         H            3.784557197871     0.040681187180     1.283815281430     1.007825032230
         H           -1.482610802129    -2.201817812820    -0.028031718570     1.007825032230
         H           -2.193145802129     2.042214187180    -0.014228718570     1.007825032230
         H           -3.826519202129    -1.320916012820    -0.499811518570     1.007825032230
         H           -4.113909802129     0.442902187180    -0.471077718570     1.007825032230
         H           -3.937294802129    -0.442340812820     1.049050281430     1.007825032230

  Basis Set: AUG-CC-PVTZ
    Blend: AUG-CC-PVTZ
  Basis Set: (AUG-CC-PVTZ AUX)
    Blend: AUG-CC-PVTZ-JKFIT
	 Reference Energy          =    -417.7790383723789773 [Eh]
	 Singles Energy            =      -0.0000000000000000 [Eh]
	 Same-Spin Energy          =      -0.4577089745393859 [Eh]
	 Opposite-Spin Energy      =      -1.4476582211465296 [Eh]
	 Correlation Energy        =      -1.9053671956859155 [Eh]
	 Total Energy              =    -419.6844055680649035 [Eh]

	 ================> DF-SCS-MP2 Energies <==================
	-----------------------------------------------------------
	 SCS Same-Spin Scale       =       0.3333333333333333 [-]
	 SCS Opposite-Spin Scale   =       1.2000000000000000 [-]
	 SCS Same-Spin Energy      =      -0.1525696581797953 [Eh]
	 SCS Opposite-Spin Energy  =      -1.7371898653758355 [Eh]
	 SCS Correlation Energy    =      -1.8897595235556308 [Eh]
	 SCS Total Energy          =    -419.6687978959346310 [Eh]
	-----------------------------------------------------------

  Dipole Moment: [D]
     X:    -2.0398      Y:    -0.5663      Z:     0.0493     Total:     2.1176

*** Psi4 exiting successfully. Buy a developer a beer!
