                               Psi4 1.4a3.dev225

  ==> Input File <==

--------------------------------------------------------------------------
#psi4
#
memory 32 gb

molecule  {
0 1
  N        0.1723510    -0.9422650    -0.0110160
  N       -0.2537011     1.5590537    -0.0042546
  C        2.0395230     0.5887340     0.0077330
  C        2.9514110    -0.3582210    -0.7410450
  C        2.9437130    -0.3688660     0.7522200
  C        0.5840210     0.3414150    -0.0010850
  C       -2.0855860    -0.1066610    -0.0107410
  C       -1.1516460    -1.1458400    -0.0150190
  C       -1.5403890     1.1790090    -0.0074550
  C       -3.5664500    -0.3550010     0.0190800
  H        2.3036370     1.6413390     0.0163460
  H        3.8028480     0.0735720    -1.2571040
  H        2.4662660    -1.1861320    -1.2466910
  H        2.4535620    -1.2039700     1.2409480
  H        3.7897520     0.0554290     1.2831630
  H       -1.4774160    -2.1870700    -0.0286840
  H       -2.1879510     2.0569620    -0.0148810
  H       -3.8167460    -1.2890820    -0.4911310
  H       -4.1087150     0.4576500    -0.4717300
  H       -3.9321000    -0.4275930     1.0483980
units angstrom
no_reorient  #important for SAPT in psi4, default
symmetry c1  #important for SAPT in psi4, default
}

set PROPERTIES_ORIGIN ["COM"]
properties('MP2/aug-cc-pvtz', properties = ['dipole'])
--------------------------------------------------------------------------

    Molecular point group: c1
  Charge       = 0
  Multiplicity = 1
  Basis Set: AUG-CC-PVTZ
    Blend: AUG-CC-PVTZ
  Basis Set: (AUG-CC-PVTZ AUX)
    Blend: AUG-CC-PVTZ-JKFIT

    Orbital Energies [Eh]
    ---------------------

    Doubly Occupied:

       1A    -15.581897     2A    -15.568612     3A    -11.330051
       4A    -11.293612     5A    -11.288697     6A    -11.244357
       7A    -11.237688     8A    -11.235393     9A    -11.229336
      10A    -11.228649    11A     -1.286660    12A     -1.180402
      13A     -1.149374    14A     -1.082988    15A     -0.962881
      16A     -0.882407    17A     -0.879888    18A     -0.821542
      19A     -0.790916    20A     -0.714588    21A     -0.683300
      22A     -0.647827    23A     -0.610329    24A     -0.596074
      25A     -0.592480    26A     -0.571169    27A     -0.554472
      28A     -0.551398    29A     -0.520399    30A     -0.513102
      31A     -0.483544    32A     -0.436780    33A     -0.429199
      34A     -0.418106    35A     -0.405966    36A     -0.328041

  @DF-RHF Final Energy:  -417.75777509145331

   => Energetics <=

    Nuclear Repulsion Energy =            490.1818970053377029
    One-Electron Energy =               -1537.2150969072988573
    Two-Electron Energy =                 629.2754248105078432
    Total Energy =                       -417.7577750914532544
  Basis Set: (AUG-CC-PVTZ AUX)
    Blend: AUG-CC-PVTZ-RI
    Molecular point group: c1

    Geometry (in Angstrom), charge = 0, multiplicity = 1:

       Center              X                  Y                   Z               Mass
    ------------   -----------------  -----------------  -----------------  -----------------
         N            0.170534097313    -0.971404491184    -0.010342319621    14.003074004430
         N           -0.255518002687     1.529914208816    -0.003580919621    14.003074004430
         C            2.037706097313     0.559594508816     0.008406680379    12.000000000000
         C            2.949594097313    -0.387360491184    -0.740371319621    12.000000000000
         C            2.941896097313    -0.398005491184     0.752893680379    12.000000000000
         C            0.582204097313     0.312275508816    -0.000411319621    12.000000000000
         C           -2.087402902687    -0.135800491184    -0.010067319621    12.000000000000
         C           -1.153462902687    -1.174979491184    -0.014345319621    12.000000000000
         C           -1.542205902687     1.149869508816    -0.006781319621    12.000000000000
         C           -3.568266902687    -0.384140491184     0.019753680379    12.000000000000
         H            2.301820097313     1.612199508816     0.017019680379     1.007825032230
         H            3.801031097313     0.044432508816    -1.256430319621     1.007825032230
         H            2.464449097313    -1.215271491184    -1.246017319621     1.007825032230
         H            2.451745097313    -1.233109491184     1.241621680379     1.007825032230
         H            3.787935097313     0.026289508816     1.283836680379     1.007825032230
         H           -1.479232902687    -2.216209491184    -0.028010319621     1.007825032230
         H           -2.189767902687     2.027822508816    -0.014207319621     1.007825032230
         H           -3.818562902687    -1.318221491184    -0.490457319621     1.007825032230
         H           -4.110531902687     0.428510508816    -0.471056319621     1.007825032230
         H           -3.933916902687    -0.456732491184     1.049071680379     1.007825032230

  Basis Set: AUG-CC-PVTZ
    Blend: AUG-CC-PVTZ
  Basis Set: (AUG-CC-PVTZ AUX)
    Blend: AUG-CC-PVTZ-JKFIT
	 Reference Energy          =    -417.7577750914533112 [Eh]
	 Singles Energy            =      -0.0000000000000000 [Eh]
	 Same-Spin Energy          =      -0.4589743248716521 [Eh]
	 Opposite-Spin Energy      =      -1.4524100852614867 [Eh]
	 Correlation Energy        =      -1.9113844101331388 [Eh]
	 Total Energy              =    -419.6691595015864777 [Eh]

	 ================> DF-SCS-MP2 Energies <==================
	-----------------------------------------------------------
	 SCS Same-Spin Scale       =       0.3333333333333333 [-]
	 SCS Opposite-Spin Scale   =       1.2000000000000000 [-]
	 SCS Same-Spin Energy      =      -0.1529914416238840 [Eh]
	 SCS Opposite-Spin Energy  =      -1.7428921023137840 [Eh]
	 SCS Correlation Energy    =      -1.8958835439376680 [Eh]
	 SCS Total Energy          =    -419.6536586353909684 [Eh]
	-----------------------------------------------------------

  Dipole Moment: [D]
     X:    -1.8443      Y:    -0.7834      Z:     0.0456     Total:     2.0043

*** Psi4 exiting successfully. Buy a developer a beer!
