                               Psi4 1.4a3.dev225

  ==> Input File <==

--------------------------------------------------------------------------
#psi4
#
memory 32 gb

molecule  {
0 1
  N        0.1723510    -0.9422650    -0.0110160
  N       -0.2210270     1.4224780    -0.0033780
  C        2.0395230     0.5887340     0.0077330
  C        2.9514110    -0.3582210    -0.7410450
  C        2.9437130    -0.3688660     0.7522200
  C        0.5840210     0.3414150    -0.0010850
  C       -2.0855860    -0.1066610    -0.0107410
  C       -1.1516460    -1.1458400    -0.0150190
  C       -1.5403890     1.1790090    -0.0074550
  C       -3.5664500    -0.3550010     0.0190800
  H        2.3036370     1.6413390     0.0163460
  H        3.8028480     0.0735720    -1.2571040
  H        2.4662660    -1.1861320    -1.2466910
  H        2.4535620    -1.2039700     1.2409480
  H        3.7897520     0.0554290     1.2831630
  H       -1.4774160    -2.1870700    -0.0286840
  H       -2.1879510     2.0569620    -0.0148810
  H       -3.7668849    -1.2446637    -0.5840757
  H       -4.1087150     0.4576500    -0.4717300
  H       -3.9321000    -0.4275930     1.0483980
units angstrom
no_reorient  #important for SAPT in psi4, default
symmetry c1  #important for SAPT in psi4, default
}

set PROPERTIES_ORIGIN ["COM"]
properties('MP2/aug-cc-pvtz', properties = ['dipole'])
--------------------------------------------------------------------------

    Molecular point group: c1
  Charge       = 0
  Multiplicity = 1
  Basis Set: AUG-CC-PVTZ
    Blend: AUG-CC-PVTZ
  Basis Set: (AUG-CC-PVTZ AUX)
    Blend: AUG-CC-PVTZ-JKFIT

    Orbital Energies [Eh]
    ---------------------

    Doubly Occupied:

       1A    -15.563941     2A    -15.563738     3A    -11.313398
       4A    -11.291726     5A    -11.289845     6A    -11.244823
       7A    -11.238189     8A    -11.231249     9A    -11.225802
      10A    -11.225121    11A     -1.301548    12A     -1.182384
      13A     -1.147102    14A     -1.088402    15A     -0.967194
      16A     -0.891211    17A     -0.874030    18A     -0.818597
      19A     -0.796237    20A     -0.715748    21A     -0.694206
      22A     -0.645882    23A     -0.612729    24A     -0.604573
      25A     -0.590679    26A     -0.581531    27A     -0.561880
      28A     -0.548211    29A     -0.523259    30A     -0.511107
      31A     -0.471146    32A     -0.434324    33A     -0.424178
      34A     -0.414106    35A     -0.402408    36A     -0.334602

  @DF-RHF Final Energy:  -417.77827396058251

   => Energetics <=

    Nuclear Repulsion Energy =            493.6373134160884319
    One-Electron Energy =               -1544.1809654196952124
    Two-Electron Energy =                 632.7653780430243842
    Total Energy =                       -417.7782739605825100
  Basis Set: (AUG-CC-PVTZ AUX)
    Blend: AUG-CC-PVTZ-RI
    Molecular point group: c1

    Geometry (in Angstrom), charge = 0, multiplicity = 1:

       Center              X                  Y                   Z               Mass
    ------------   -----------------  -----------------  -----------------  -----------------
         N            0.166747011631    -0.957475102061    -0.009735262412    14.003074004430
         N           -0.226630988369     1.407267897939    -0.002097262412    14.003074004430
         C            2.033919011631     0.573523897939     0.009013737588    12.000000000000
         C            2.945807011631    -0.373431102061    -0.739764262412    12.000000000000
         C            2.938109011631    -0.384076102061     0.753500737588    12.000000000000
         C            0.578417011631     0.326204897939     0.000195737588    12.000000000000
         C           -2.091189988369    -0.121871102061    -0.009460262412    12.000000000000
         C           -1.157249988369    -1.161050102061    -0.013738262412    12.000000000000
         C           -1.545992988369     1.163798897939    -0.006174262412    12.000000000000
         C           -3.572053988369    -0.370211102061     0.020360737588    12.000000000000
         H            2.298033011631     1.626128897939     0.017626737588     1.007825032230
         H            3.797244011631     0.058361897939    -1.255823262412     1.007825032230
         H            2.460662011631    -1.201342102061    -1.245410262412     1.007825032230
         H            2.447958011631    -1.219180102061     1.242228737588     1.007825032230
         H            3.784148011631     0.040218897939     1.284443737588     1.007825032230
         H           -1.483019988369    -2.202280102061    -0.027403262412     1.007825032230
         H           -2.193554988369     2.041751897939    -0.013600262412     1.007825032230
         H           -3.772488888369    -1.259873802061    -0.582794962412     1.007825032230
         H           -4.114318988369     0.442439897939    -0.470449262412     1.007825032230
         H           -3.937703988369    -0.442803102061     1.049678737588     1.007825032230

  Basis Set: AUG-CC-PVTZ
    Blend: AUG-CC-PVTZ
  Basis Set: (AUG-CC-PVTZ AUX)
    Blend: AUG-CC-PVTZ-JKFIT
	 Reference Energy          =    -417.7782739605825100 [Eh]
	 Singles Energy            =      -0.0000000000000000 [Eh]
	 Same-Spin Energy          =      -0.4577843874201367 [Eh]
	 Opposite-Spin Energy      =      -1.4476924170316781 [Eh]
	 Correlation Energy        =      -1.9054768044518147 [Eh]
	 Total Energy              =    -419.6837507650343468 [Eh]

	 ================> DF-SCS-MP2 Energies <==================
	-----------------------------------------------------------
	 SCS Same-Spin Scale       =       0.3333333333333333 [-]
	 SCS Opposite-Spin Scale   =       1.2000000000000000 [-]
	 SCS Same-Spin Energy      =      -0.1525947958067122 [Eh]
	 SCS Opposite-Spin Energy  =      -1.7372309004380135 [Eh]
	 SCS Correlation Energy    =      -1.8898256962447257 [Eh]
	 SCS Total Energy          =    -419.6680996568272235 [Eh]
	-----------------------------------------------------------

  Dipole Moment: [D]
     X:    -2.0401      Y:    -0.5478      Z:     0.0200     Total:     2.1125

*** Psi4 exiting successfully. Buy a developer a beer!
