                               Psi4 1.4a3.dev225

  ==> Input File <==

--------------------------------------------------------------------------
#psi4
#
memory 32 gb

molecule  {
0 1
  N        0.1723510    -0.9422650    -0.0110160
  N       -0.2210270     1.4224780    -0.0033780
  C        2.0395230     0.5887340     0.0077330
  C        2.9514110    -0.3582210    -0.7410450
  C        2.9437130    -0.3688660     0.7522200
  C        0.5840210     0.3414150    -0.0010850
  C       -2.0855860    -0.1066610    -0.0107410
  C       -1.1022270    -1.1382414    -0.0148696
  C       -1.5403890     1.1790090    -0.0074550
  C       -3.5664500    -0.3550010     0.0190800
  H        2.3036370     1.6413390     0.0163460
  H        3.8028480     0.0735720    -1.2571040
  H        2.4662660    -1.1861320    -1.2466910
  H        2.4535620    -1.2039700     1.2409480
  H        3.7897520     0.0554290     1.2831630
  H       -1.4774160    -2.1870700    -0.0286840
  H       -2.1879510     2.0569620    -0.0148810
  H       -3.8167460    -1.2890820    -0.4911310
  H       -4.1087150     0.4576500    -0.4717300
  H       -3.9321000    -0.4275930     1.0483980
units angstrom
no_reorient  #important for SAPT in psi4, default
symmetry c1  #important for SAPT in psi4, default
}

set PROPERTIES_ORIGIN ["COM"]
properties('MP2/aug-cc-pvtz', properties = ['dipole'])
--------------------------------------------------------------------------

    Molecular point group: c1
  Charge       = 0
  Multiplicity = 1
  Basis Set: AUG-CC-PVTZ
    Blend: AUG-CC-PVTZ
  Basis Set: (AUG-CC-PVTZ AUX)
    Blend: AUG-CC-PVTZ-JKFIT

    Orbital Energies [Eh]
    ---------------------

    Doubly Occupied:

       1A    -15.563007     2A    -15.562884     3A    -11.315490
       4A    -11.292601     5A    -11.286757     6A    -11.246196
       7A    -11.238298     8A    -11.232347     9A    -11.226967
      10A    -11.226286    11A     -1.310124    12A     -1.192225
      13A     -1.148589    14A     -1.083719    15A     -0.968477
      16A     -0.885385    17A     -0.876864    18A     -0.819783
      19A     -0.798849    20A     -0.717957    21A     -0.694207
      22A     -0.646905    23A     -0.612638    24A     -0.598834
      25A     -0.591470    26A     -0.579929    27A     -0.561561
      28A     -0.553729    29A     -0.523549    30A     -0.512227
      31A     -0.474504    32A     -0.435620    33A     -0.425200
      34A     -0.421514    35A     -0.399810    36A     -0.330213

  @DF-RHF Final Energy:  -417.77806124387592

   => Energetics <=

    Nuclear Repulsion Energy =            494.1170828244444237
    One-Electron Energy =               -1545.0808582187662523
    Two-Electron Energy =                 633.1857141504458468
    Total Energy =                       -417.7780612438759817
  Basis Set: (AUG-CC-PVTZ AUX)
    Blend: AUG-CC-PVTZ-RI
    Molecular point group: c1

    Geometry (in Angstrom), charge = 0, multiplicity = 1:

       Center              X                  Y                   Z               Mass
    ------------   -----------------  -----------------  -----------------  -----------------
         N            0.162698988580    -0.957821281974    -0.010447237828    14.003074004430
         N           -0.230679011420     1.406921718026    -0.002809237828    14.003074004430
         C            2.029870988580     0.573177718026     0.008301762172    12.000000000000
         C            2.941758988580    -0.373777281974    -0.740476237828    12.000000000000
         C            2.934060988580    -0.384422281974     0.752788762172    12.000000000000
         C            0.574368988580     0.325858718026    -0.000516237828    12.000000000000
         C           -2.095238011420    -0.122217281974    -0.010172237828    12.000000000000
         C           -1.111879011420    -1.153797681974    -0.014300837828    12.000000000000
         C           -1.550041011420     1.163452718026    -0.006886237828    12.000000000000
         C           -3.576102011420    -0.370557281974     0.019648762172    12.000000000000
         H            2.293984988580     1.625782718026     0.016914762172     1.007825032230
         H            3.793195988580     0.058015718026    -1.256535237828     1.007825032230
         H            2.456613988580    -1.201688281974    -1.246122237828     1.007825032230
         H            2.443909988580    -1.219526281974     1.241516762172     1.007825032230
         H            3.780099988580     0.039872718026     1.283731762172     1.007825032230
         H           -1.487068011420    -2.202626281974    -0.028115237828     1.007825032230
         H           -2.197603011420     2.041405718026    -0.014312237828     1.007825032230
         H           -3.826398011420    -1.304638281974    -0.490562237828     1.007825032230
         H           -4.118367011420     0.442093718026    -0.471161237828     1.007825032230
         H           -3.941752011420    -0.443149281974     1.048966762172     1.007825032230

  Basis Set: AUG-CC-PVTZ
    Blend: AUG-CC-PVTZ
  Basis Set: (AUG-CC-PVTZ AUX)
    Blend: AUG-CC-PVTZ-JKFIT
	 Reference Energy          =    -417.7780612438759249 [Eh]
	 Singles Energy            =      -0.0000000000000000 [Eh]
	 Same-Spin Energy          =      -0.4573038405916095 [Eh]
	 Opposite-Spin Energy      =      -1.4465932748228572 [Eh]
	 Correlation Energy        =      -1.9038971154144666 [Eh]
	 Total Energy              =    -419.6819583592903768 [Eh]

	 ================> DF-SCS-MP2 Energies <==================
	-----------------------------------------------------------
	 SCS Same-Spin Scale       =       0.3333333333333333 [-]
	 SCS Opposite-Spin Scale   =       1.2000000000000000 [-]
	 SCS Same-Spin Energy      =      -0.1524346135305365 [Eh]
	 SCS Opposite-Spin Energy  =      -1.7359119297874286 [Eh]
	 SCS Correlation Energy    =      -1.8883465433179651 [Eh]
	 SCS Total Energy          =    -419.6664077871938616 [Eh]
	-----------------------------------------------------------

  Dipole Moment: [D]
     X:    -1.9727      Y:    -0.5851      Z:     0.0478     Total:     2.0582

*** Psi4 exiting successfully. Buy a developer a beer!
