                               Psi4 1.4a3.dev225

  ==> Input File <==

--------------------------------------------------------------------------
#psi4
#
memory 32 gb

molecule  {
0 1
  N        0.1723510    -0.9422650    -0.0110160
  N       -0.2210270     1.4224780    -0.0033780
  C        2.0395230     0.5887340     0.0077330
  C        2.9514110    -0.3582210    -0.7410450
  C        2.9437130    -0.3688660     0.7522200
  C        0.5840210     0.3414150    -0.0010850
  C       -2.0855860    -0.1066610    -0.0107410
  C       -1.1516460    -1.1458400    -0.0150190
  C       -1.5403890     1.1790090    -0.0074550
  C       -3.5664500    -0.3550010     0.0190800
  H        2.3036370     1.6413390     0.0163460
  H        3.8028480     0.0735720    -1.2571040
  H        2.4662660    -1.1861320    -1.2466910
  H        2.4535620    -1.2039700     1.2409480
  H        3.7897520     0.0554290     1.2831630
  H       -1.4774160    -2.1870700    -0.0286840
  H       -2.1879510     2.0569620    -0.0148810
  H       -3.7709619    -1.1182202    -0.3978033
  H       -4.1087150     0.4576500    -0.4717300
  H       -3.9321000    -0.4275930     1.0483980
units angstrom
no_reorient  #important for SAPT in psi4, default
symmetry c1  #important for SAPT in psi4, default
}

set PROPERTIES_ORIGIN ["COM"]
properties('MP2/aug-cc-pvtz', properties = ['dipole'])
--------------------------------------------------------------------------

    Molecular point group: c1
  Charge       = 0
  Multiplicity = 1
  Basis Set: AUG-CC-PVTZ
    Blend: AUG-CC-PVTZ
  Basis Set: (AUG-CC-PVTZ AUX)
    Blend: AUG-CC-PVTZ-JKFIT

    Orbital Energies [Eh]
    ---------------------

    Doubly Occupied:

       1A    -15.563657     2A    -15.563531     3A    -11.313057
       4A    -11.291556     5A    -11.289429     6A    -11.244398
       7A    -11.231035     8A    -11.225608     9A    -11.224927
      10A    -11.213656    11A     -1.301256    12A     -1.182094
      13A     -1.147085    14A     -1.093079    15A     -0.983257
      16A     -0.891141    17A     -0.882746    18A     -0.818411
      19A     -0.796502    20A     -0.715986    21A     -0.697560
      22A     -0.645559    23A     -0.623116    24A     -0.608211
      25A     -0.590957    26A     -0.585170    27A     -0.571919
      28A     -0.556769    29A     -0.523335    30A     -0.510885
      31A     -0.471332    32A     -0.434056    33A     -0.423987
      34A     -0.413814    35A     -0.402470    36A     -0.334168

  @DF-RHF Final Energy:  -417.74548392325255

   => Energetics <=

    Nuclear Repulsion Energy =            494.5233484859476789
    One-Electron Energy =               -1545.8062231702172085
    Two-Electron Energy =                 633.5373907610169226
    Total Energy =                       -417.7454839232525501
  Basis Set: (AUG-CC-PVTZ AUX)
    Blend: AUG-CC-PVTZ-RI
    Molecular point group: c1

    Geometry (in Angstrom), charge = 0, multiplicity = 1:

       Center              X                  Y                   Z               Mass
    ------------   -----------------  -----------------  -----------------  -----------------
         N            0.166777655783    -0.958425495440    -0.011135350639    14.003074004430
         N           -0.226600344217     1.406317504560    -0.003497350639    14.003074004430
         C            2.033949655783     0.572573504560     0.007613649361    12.000000000000
         C            2.945837655783    -0.374381495440    -0.741164350639    12.000000000000
         C            2.938139655783    -0.385026495440     0.752100649361    12.000000000000
         C            0.578447655783     0.325254504560    -0.001204350639    12.000000000000
         C           -2.091159344217    -0.122821495440    -0.010860350639    12.000000000000
         C           -1.157219344217    -1.162000495440    -0.015138350639    12.000000000000
         C           -1.545962344217     1.162848504560    -0.007574350639    12.000000000000
         C           -3.572023344217    -0.371161495440     0.018960649361    12.000000000000
         H            2.298063655783     1.625178504560     0.016226649361     1.007825032230
         H            3.797274655783     0.057411504560    -1.257223350639     1.007825032230
         H            2.460692655783    -1.202292495440    -1.246810350639     1.007825032230
         H            2.447988655783    -1.220130495440     1.240828649361     1.007825032230
         H            3.784178655783     0.039268504560     1.283043649361     1.007825032230
         H           -1.482989344217    -2.203230495440    -0.028803350639     1.007825032230
         H           -2.193524344217     2.040801504560    -0.015000350639     1.007825032230
         H           -3.776535244217    -1.134380695440    -0.397922650639     1.007825032230
         H           -4.114288344217     0.441489504560    -0.471849350639     1.007825032230
         H           -3.937673344217    -0.443753495440     1.048278649361     1.007825032230

  Basis Set: AUG-CC-PVTZ
    Blend: AUG-CC-PVTZ
  Basis Set: (AUG-CC-PVTZ AUX)
    Blend: AUG-CC-PVTZ-JKFIT
	 Reference Energy          =    -417.7454839232525501 [Eh]
	 Singles Energy            =      -0.0000000000000000 [Eh]
	 Same-Spin Energy          =      -0.4578158677120434 [Eh]
	 Opposite-Spin Energy      =      -1.4469458465500049 [Eh]
	 Correlation Energy        =      -1.9047617142620483 [Eh]
	 Total Energy              =    -419.6502456375146153 [Eh]

	 ================> DF-SCS-MP2 Energies <==================
	-----------------------------------------------------------
	 SCS Same-Spin Scale       =       0.3333333333333333 [-]
	 SCS Opposite-Spin Scale   =       1.2000000000000000 [-]
	 SCS Same-Spin Energy      =      -0.1526052892373478 [Eh]
	 SCS Opposite-Spin Energy  =      -1.7363350158600059 [Eh]
	 SCS Correlation Energy    =      -1.8889403050973537 [Eh]
	 SCS Total Energy          =    -419.6344242283499284 [Eh]
	-----------------------------------------------------------

  Dipole Moment: [D]
     X:    -2.0996      Y:    -0.6183      Z:     0.0275     Total:     2.1889

*** Psi4 exiting successfully. Buy a developer a beer!
