                               Psi4 1.4a3.dev225

  ==> Input File <==

--------------------------------------------------------------------------
#psi4
#
memory 32 gb

molecule  {
0 1
  N        0.0838104    -0.9104165    -0.0116833
  N       -0.2210270     1.4224780    -0.0033780
  C        2.0395230     0.5887340     0.0077330
  C        2.9514110    -0.3582210    -0.7410450
  C        2.9437130    -0.3688660     0.7522200
  C        0.5840210     0.3414150    -0.0010850
  C       -2.0855860    -0.1066610    -0.0107410
  C       -1.1516460    -1.1458400    -0.0150190
  C       -1.5403890     1.1790090    -0.0074550
  C       -3.5664500    -0.3550010     0.0190800
  H        2.3036370     1.6413390     0.0163460
  H        3.8028480     0.0735720    -1.2571040
  H        2.4662660    -1.1861320    -1.2466910
  H        2.4535620    -1.2039700     1.2409480
  H        3.7897520     0.0554290     1.2831630
  H       -1.4774160    -2.1870700    -0.0286840
  H       -2.1879510     2.0569620    -0.0148810
  H       -3.8167460    -1.2890820    -0.4911310
  H       -4.1087150     0.4576500    -0.4717300
  H       -3.9321000    -0.4275930     1.0483980
units angstrom
no_reorient  #important for SAPT in psi4, default
symmetry c1  #important for SAPT in psi4, default
}

set PROPERTIES_ORIGIN ["COM"]
properties('MP2/aug-cc-pvtz', properties = ['dipole'])
--------------------------------------------------------------------------

    Molecular point group: c1
  Charge       = 0
  Multiplicity = 1
  Basis Set: AUG-CC-PVTZ
    Blend: AUG-CC-PVTZ
  Basis Set: (AUG-CC-PVTZ AUX)
    Blend: AUG-CC-PVTZ-JKFIT

    Orbital Energies [Eh]
    ---------------------

    Doubly Occupied:

       1A    -15.562014     2A    -15.553278     3A    -11.315575
       4A    -11.283469     5A    -11.280785     6A    -11.240965
       7A    -11.235980     8A    -11.234955     9A    -11.228815
      10A    -11.228125    11A     -1.314053    12A     -1.192443
      13A     -1.150995    14A     -1.084740    15A     -0.969467
      16A     -0.886396    17A     -0.876445    18A     -0.821428
      19A     -0.804774    20A     -0.720935    21A     -0.697387
      22A     -0.651285    23A     -0.617612    24A     -0.599400
      25A     -0.589015    26A     -0.584183    27A     -0.560888
      28A     -0.552430    29A     -0.529509    30A     -0.514006
      31A     -0.469203    32A     -0.440047    33A     -0.425942
      34A     -0.420494    35A     -0.389855    36A     -0.329507

  @DF-RHF Final Energy:  -417.77574461721940

   => Energetics <=

    Nuclear Repulsion Energy =            495.0081124685447094
    One-Electron Energy =               -1546.8549138946693802
    Two-Electron Energy =                 634.0710568089053822
    Total Energy =                       -417.7757446172194022
  Basis Set: (AUG-CC-PVTZ AUX)
    Blend: AUG-CC-PVTZ-RI
    Molecular point group: c1

    Geometry (in Angstrom), charge = 0, multiplicity = 1:

       Center              X                  Y                   Z               Mass
    ------------   -----------------  -----------------  -----------------  -----------------
         N            0.087827902684    -0.928618829589    -0.011031477819    14.003074004430
         N           -0.217009497316     1.404275670411    -0.002726177819    14.003074004430
         C            2.043540502684     0.570531670411     0.008384822181    12.000000000000
         C            2.955428502684    -0.376423329589    -0.740393177819    12.000000000000
         C            2.947730502684    -0.387068329589     0.752871822181    12.000000000000
         C            0.588038502684     0.323212670411    -0.000433177819    12.000000000000
         C           -2.081568497316    -0.124863329589    -0.010089177819    12.000000000000
         C           -1.147628497316    -1.164042329589    -0.014367177819    12.000000000000
         C           -1.536371497316     1.160806670411    -0.006803177819    12.000000000000
         C           -3.562432497316    -0.373203329589     0.019731822181    12.000000000000
         H            2.307654502684     1.623136670411     0.016997822181     1.007825032230
         H            3.806865502684     0.055369670411    -1.256452177819     1.007825032230
         H            2.470283502684    -1.204334329589    -1.246039177819     1.007825032230
         H            2.457579502684    -1.222172329589     1.241599822181     1.007825032230
         H            3.793769502684     0.037226670411     1.283814822181     1.007825032230
         H           -1.473398497316    -2.205272329589    -0.028032177819     1.007825032230
         H           -2.183933497316     2.038759670411    -0.014229177819     1.007825032230
         H           -3.812728497316    -1.307284329589    -0.490479177819     1.007825032230
         H           -4.104697497316     0.439447670411    -0.471078177819     1.007825032230
         H           -3.928082497316    -0.445795329589     1.049049822181     1.007825032230

  Basis Set: AUG-CC-PVTZ
    Blend: AUG-CC-PVTZ
  Basis Set: (AUG-CC-PVTZ AUX)
    Blend: AUG-CC-PVTZ-JKFIT
	 Reference Energy          =    -417.7757446172194022 [Eh]
	 Singles Energy            =      -0.0000000000000000 [Eh]
	 Same-Spin Energy          =      -0.4570497495017962 [Eh]
	 Opposite-Spin Energy      =      -1.4452031514146397 [Eh]
	 Correlation Energy        =      -1.9022529009164360 [Eh]
	 Total Energy              =    -419.6779975181358395 [Eh]

	 ================> DF-SCS-MP2 Energies <==================
	-----------------------------------------------------------
	 SCS Same-Spin Scale       =       0.3333333333333333 [-]
	 SCS Opposite-Spin Scale   =       1.2000000000000000 [-]
	 SCS Same-Spin Energy      =      -0.1523499165005987 [Eh]
	 SCS Opposite-Spin Energy  =      -1.7342437816975675 [Eh]
	 SCS Correlation Energy    =      -1.8865936981981664 [Eh]
	 SCS Total Energy          =    -419.6623383154175713 [Eh]
	-----------------------------------------------------------

  Dipole Moment: [D]
     X:    -1.7318      Y:    -0.6558      Z:     0.0490     Total:     1.8525

*** Psi4 exiting successfully. Buy a developer a beer!
