                               Psi4 1.4a3.dev225

  ==> Input File <==

--------------------------------------------------------------------------
#psi4
#
memory 32 gb

molecule  {
0 1
  N        0.1723510    -0.9422650    -0.0110160
  N       -0.2210270     1.4224780    -0.0033780
  C        2.0395230     0.5887340     0.0077330
  C        2.9514110    -0.3582210    -0.7410450
  C        2.9437130    -0.3688660     0.7522200
  C        0.3868507     0.3079118    -0.0022795
  C       -2.0855860    -0.1066610    -0.0107410
  C       -1.1516460    -1.1458400    -0.0150190
  C       -1.5403890     1.1790090    -0.0074550
  C       -3.5664500    -0.3550010     0.0190800
  H        2.3036370     1.6413390     0.0163460
  H        3.8028480     0.0735720    -1.2571040
  H        2.4662660    -1.1861320    -1.2466910
  H        2.4535620    -1.2039700     1.2409480
  H        3.7897520     0.0554290     1.2831630
  H       -1.4774160    -2.1870700    -0.0286840
  H       -2.1879510     2.0569620    -0.0148810
  H       -3.8167460    -1.2890820    -0.4911310
  H       -4.1087150     0.4576500    -0.4717300
  H       -3.9321000    -0.4275930     1.0483980
units angstrom
no_reorient  #important for SAPT in psi4, default
symmetry c1  #important for SAPT in psi4, default
}

set PROPERTIES_ORIGIN ["COM"]
properties('MP2/aug-cc-pvtz', properties = ['dipole'])
--------------------------------------------------------------------------

    Molecular point group: c1
  Charge       = 0
  Multiplicity = 1
  Basis Set: AUG-CC-PVTZ
    Blend: AUG-CC-PVTZ
  Basis Set: (AUG-CC-PVTZ AUX)
    Blend: AUG-CC-PVTZ-JKFIT

    Orbital Energies [Eh]
    ---------------------

    Doubly Occupied:

       1A    -15.570649     2A    -15.570190     3A    -11.307662
       4A    -11.302362     5A    -11.301019     6A    -11.254060
       7A    -11.244464     8A    -11.219360     9A    -11.210072
      10A    -11.209381    11A     -1.344512    12A     -1.227302
      13A     -1.125321    14A     -1.095813    15A     -0.964815
      16A     -0.912345    17A     -0.860450    18A     -0.803610
      19A     -0.784973    20A     -0.721784    21A     -0.699950
      22A     -0.637809    23A     -0.614410    24A     -0.602068
      25A     -0.595657    26A     -0.588704    27A     -0.575001
      28A     -0.563850    29A     -0.517622    30A     -0.498912
      31A     -0.445637    32A     -0.437070    33A     -0.432267
      34A     -0.412396    35A     -0.391043    36A     -0.352945

  @DF-RHF Final Energy:  -417.73828754358391

   => Energetics <=

    Nuclear Repulsion Energy =            495.1159547725682728
    One-Electron Energy =               -1546.9175220824927237
    Two-Electron Energy =                 634.0632797663405427
    Total Energy =                       -417.7382875435838514
  Basis Set: (AUG-CC-PVTZ AUX)
    Blend: AUG-CC-PVTZ-RI
    Molecular point group: c1

    Geometry (in Angstrom), charge = 0, multiplicity = 1:

       Center              X                  Y                   Z               Mass
    ------------   -----------------  -----------------  -----------------  -----------------
         N            0.184767712733    -0.954142840588    -0.010326964327    14.003074004430
         N           -0.208610287267     1.410600159412    -0.002688964327    14.003074004430
         C            2.051939712733     0.576856159412     0.008422035673    12.000000000000
         C            2.963827712733    -0.370098840588    -0.740355964327    12.000000000000
         C            2.956129712733    -0.380743840588     0.752909035673    12.000000000000
         C            0.399267412733     0.296033959412    -0.001590464327    12.000000000000
         C           -2.073169287267    -0.118538840588    -0.010051964327    12.000000000000
         C           -1.139229287267    -1.157717840588    -0.014329964327    12.000000000000
         C           -1.527972287267     1.167131159412    -0.006765964327    12.000000000000
         C           -3.554033287267    -0.366878840588     0.019769035673    12.000000000000
         H            2.316053712733     1.629461159412     0.017035035673     1.007825032230
         H            3.815264712733     0.061694159412    -1.256414964327     1.007825032230
         H            2.478682712733    -1.198009840588    -1.246001964327     1.007825032230
         H            2.465978712733    -1.215847840588     1.241637035673     1.007825032230
         H            3.802168712733     0.043551159412     1.283852035673     1.007825032230
         H           -1.464999287267    -2.198947840588    -0.027994964327     1.007825032230
         H           -2.175534287267     2.045084159412    -0.014191964327     1.007825032230
         H           -3.804329287267    -1.300959840588    -0.490441964327     1.007825032230
         H           -4.096298287267     0.445772159412    -0.471040964327     1.007825032230
         H           -3.919683287267    -0.439470840588     1.049087035673     1.007825032230

  Basis Set: AUG-CC-PVTZ
    Blend: AUG-CC-PVTZ
  Basis Set: (AUG-CC-PVTZ AUX)
    Blend: AUG-CC-PVTZ-JKFIT
	 Reference Energy          =    -417.7382875435839082 [Eh]
	 Singles Energy            =      -0.0000000000000000 [Eh]
	 Same-Spin Energy          =      -0.4567171099809086 [Eh]
	 Opposite-Spin Energy      =      -1.4466747222398633 [Eh]
	 Correlation Energy        =      -1.9033918322207719 [Eh]
	 Total Energy              =    -419.6416793758046992 [Eh]

	 ================> DF-SCS-MP2 Energies <==================
	-----------------------------------------------------------
	 SCS Same-Spin Scale       =       0.3333333333333333 [-]
	 SCS Opposite-Spin Scale   =       1.2000000000000000 [-]
	 SCS Same-Spin Energy      =      -0.1522390366603029 [Eh]
	 SCS Opposite-Spin Energy  =      -1.7360096666878360 [Eh]
	 SCS Correlation Energy    =      -1.8882487033481388 [Eh]
	 SCS Total Energy          =    -419.6265362469320621 [Eh]
	-----------------------------------------------------------

  Dipole Moment: [D]
     X:    -3.3656      Y:    -0.5702      Z:     0.0379     Total:     3.4137

*** Psi4 exiting successfully. Buy a developer a beer!
