                               Psi4 1.4a3.dev225

  ==> Input File <==

--------------------------------------------------------------------------
#psi4
#
memory 32 gb

molecule  {
0 1
  N        0.1723510    -0.9422650    -0.0110160
  N       -0.2210270     1.4224780    -0.0033780
  C        2.0395230     0.5887340     0.0077330
  C        2.9815477    -0.3895166    -0.7657911
  C        2.9437130    -0.3688660     0.7522200
  C        0.5840210     0.3414150    -0.0010850
  C       -2.0855860    -0.1066610    -0.0107410
  C       -1.1516460    -1.1458400    -0.0150190
  C       -1.5403890     1.1790090    -0.0074550
  C       -3.5664500    -0.3550010     0.0190800
  H        2.3036370     1.6413390     0.0163460
  H        3.8028480     0.0735720    -1.2571040
  H        2.4662660    -1.1861320    -1.2466910
  H        2.4535620    -1.2039700     1.2409480
  H        3.7897520     0.0554290     1.2831630
  H       -1.4774160    -2.1870700    -0.0286840
  H       -2.1879510     2.0569620    -0.0148810
  H       -3.8167460    -1.2890820    -0.4911310
  H       -4.1087150     0.4576500    -0.4717300
  H       -3.9321000    -0.4275930     1.0483980
units angstrom
no_reorient  #important for SAPT in psi4, default
symmetry c1  #important for SAPT in psi4, default
}

set PROPERTIES_ORIGIN ["COM"]
properties('MP2/aug-cc-pvtz', properties = ['dipole'])
--------------------------------------------------------------------------

    Molecular point group: c1
  Charge       = 0
  Multiplicity = 1
  Basis Set: AUG-CC-PVTZ
    Blend: AUG-CC-PVTZ
  Basis Set: (AUG-CC-PVTZ AUX)
    Blend: AUG-CC-PVTZ-JKFIT

    Orbital Energies [Eh]
    ---------------------

    Doubly Occupied:

       1A    -15.563831     2A    -15.563801     3A    -11.313555
       4A    -11.291760     5A    -11.290296     6A    -11.245383
       7A    -11.238025     8A    -11.233408     9A    -11.228839
      10A    -11.226437    11A     -1.301398    12A     -1.182255
      13A     -1.137459    14A     -1.086282    15A     -0.966718
      16A     -0.891226    17A     -0.874896    18A     -0.823307
      19A     -0.796093    20A     -0.715179    21A     -0.693471
      22A     -0.645658    23A     -0.609785    24A     -0.598225
      25A     -0.591631    26A     -0.582119    27A     -0.558483
      28A     -0.554927    29A     -0.529807    30A     -0.517244
      31A     -0.471420    32A     -0.433488    33A     -0.417312
      34A     -0.414086    35A     -0.402553    36A     -0.332436

  @DF-RHF Final Energy:  -417.77733249571668

   => Energetics <=

    Nuclear Repulsion Energy =            492.6091438603729102
    One-Electron Energy =               -1542.1273668945148074
    Two-Electron Energy =                 631.7408905384253330
    Total Energy =                       -417.7773324957166778
  Basis Set: (AUG-CC-PVTZ AUX)
    Blend: AUG-CC-PVTZ-RI
    Molecular point group: c1

    Geometry (in Angstrom), charge = 0, multiplicity = 1:

       Center              X                  Y                   Z               Mass
    ------------   -----------------  -----------------  -----------------  -----------------
         N            0.164424674811    -0.954340411673    -0.008219193374    14.003074004430
         N           -0.228953325189     1.410402588327    -0.000581193374    14.003074004430
         C            2.031596674811     0.576658588327     0.010529806626    12.000000000000
         C            2.973621374811    -0.401592011673    -0.762994293374    12.000000000000
         C            2.935786674811    -0.380941411673     0.755016806626    12.000000000000
         C            0.576094674811     0.329339588327     0.001711806626    12.000000000000
         C           -2.093512325189    -0.118736411673    -0.007944193374    12.000000000000
         C           -1.159572325189    -1.157915411673    -0.012222193374    12.000000000000
         C           -1.548315325189     1.166933588327    -0.004658193374    12.000000000000
         C           -3.574376325189    -0.367076411673     0.021876806626    12.000000000000
         H            2.295710674811     1.629263588327     0.019142806626     1.007825032230
         H            3.794921674811     0.061496588327    -1.254307193374     1.007825032230
         H            2.458339674811    -1.198207411673    -1.243894193374     1.007825032230
         H            2.445635674811    -1.216045411673     1.243744806626     1.007825032230
         H            3.781825674811     0.043353588327     1.285959806626     1.007825032230
         H           -1.485342325189    -2.199145411673    -0.025887193374     1.007825032230
         H           -2.195877325189     2.044886588327    -0.012084193374     1.007825032230
         H           -3.824672325189    -1.301157411673    -0.488334193374     1.007825032230
         H           -4.116641325189     0.445574588327    -0.468933193374     1.007825032230
         H           -3.940026325189    -0.439668411673     1.051194806626     1.007825032230

  Basis Set: AUG-CC-PVTZ
    Blend: AUG-CC-PVTZ
  Basis Set: (AUG-CC-PVTZ AUX)
    Blend: AUG-CC-PVTZ-JKFIT
	 Reference Energy          =    -417.7773324957166778 [Eh]
	 Singles Energy            =      -0.0000000000000000 [Eh]
	 Same-Spin Energy          =      -0.4576117162721740 [Eh]
	 Opposite-Spin Energy      =      -1.4479244150105415 [Eh]
	 Correlation Energy        =      -1.9055361312827155 [Eh]
	 Total Energy              =    -419.6828686269993796 [Eh]

	 ================> DF-SCS-MP2 Energies <==================
	-----------------------------------------------------------
	 SCS Same-Spin Scale       =       0.3333333333333333 [-]
	 SCS Opposite-Spin Scale   =       1.2000000000000000 [-]
	 SCS Same-Spin Energy      =      -0.1525372387573913 [Eh]
	 SCS Opposite-Spin Energy  =      -1.7375092980126496 [Eh]
	 SCS Correlation Energy    =      -1.8900465367700410 [Eh]
	 SCS Total Energy          =    -419.6673790324867355 [Eh]
	-----------------------------------------------------------

  Dipole Moment: [D]
     X:    -2.0382      Y:    -0.5605      Z:     0.0741     Total:     2.1151

*** Psi4 exiting successfully. Buy a developer a beer!
