                               Psi4 1.4a3.dev225

  ==> Input File <==

--------------------------------------------------------------------------
#psi4
#
memory 32 gb

molecule  {
0 1
  N        0.1723510    -0.9422650    -0.0110160
  N       -0.2210270     1.4224780    -0.0033780
  C        2.0395230     0.5887340     0.0077330
  C        2.9514110    -0.3582210    -0.7410450
  C        2.9437130    -0.3688660     0.7522200
  C        0.5840210     0.3414150    -0.0010850
  C       -2.0855860    -0.1066610    -0.0107410
  C       -1.1516460    -1.1458400    -0.0150190
  C       -1.5403890     1.1790090    -0.0074550
  C       -3.5664500    -0.3550010     0.0190800
  H        2.3036370     1.6413390     0.0163460
  H        3.8028480     0.0735720    -1.2571040
  H        2.4662660    -1.1861320    -1.2466910
  H        2.4535620    -1.2039700     1.2409480
  H        3.7897520     0.0554290     1.2831630
  H       -1.4774160    -2.1870700    -0.0286840
  H       -2.1879510     2.0569620    -0.0148810
  H       -3.8167460    -1.2890820    -0.4911310
  H       -4.1087150     0.4576500    -0.4717300
  H       -3.9254199    -0.4262668     1.0295933
units angstrom
no_reorient  #important for SAPT in psi4, default
symmetry c1  #important for SAPT in psi4, default
}

set PROPERTIES_ORIGIN ["COM"]
properties('MP2/aug-cc-pvtz', properties = ['dipole'])
--------------------------------------------------------------------------

    Molecular point group: c1
  Charge       = 0
  Multiplicity = 1
  Basis Set: AUG-CC-PVTZ
    Blend: AUG-CC-PVTZ
  Basis Set: (AUG-CC-PVTZ AUX)
    Blend: AUG-CC-PVTZ-JKFIT

    Orbital Energies [Eh]
    ---------------------

    Doubly Occupied:

       1A    -15.563985     2A    -15.563939     3A    -11.313455
       4A    -11.291767     5A    -11.290274     6A    -11.245476
       7A    -11.235739     8A    -11.231277     9A    -11.225815
      10A    -11.225134    11A     -1.301650    12A     -1.182496
      13A     -1.147115    14A     -1.088395    15A     -0.968230
      16A     -0.891354    17A     -0.875329    18A     -0.818608
      19A     -0.796440    20A     -0.715758    21A     -0.694769
      22A     -0.645902    23A     -0.613821    24A     -0.600202
      25A     -0.592038    26A     -0.582400    27A     -0.559713
      28A     -0.554821    29A     -0.523430    30A     -0.511089
      31A     -0.471752    32A     -0.434224    33A     -0.424221
      34A     -0.414210    35A     -0.402691    36A     -0.334463

  @DF-RHF Final Energy:  -417.77956789461996

   => Energetics <=

    Nuclear Repulsion Energy =            493.6301099554362395
    One-Electron Energy =               -1544.1553932076303681
    Two-Electron Energy =                 632.7457153575742268
    Total Energy =                       -417.7795678946199587
  Basis Set: (AUG-CC-PVTZ AUX)
    Blend: AUG-CC-PVTZ-RI
    Molecular point group: c1

    Geometry (in Angstrom), charge = 0, multiplicity = 1:

       Center              X                  Y                   Z               Mass
    ------------   -----------------  -----------------  -----------------  -----------------
         N            0.167071575065    -0.957151206831    -0.010292524471    14.003074004430
         N           -0.226306424935     1.407591793169    -0.002654524471    14.003074004430
         C            2.034243575065     0.573847793169     0.008456475529    12.000000000000
         C            2.946131575065    -0.373107206831    -0.740321524471    12.000000000000
         C            2.938433575065    -0.383752206831     0.752943475529    12.000000000000
         C            0.578741575065     0.326528793169    -0.000361524471    12.000000000000
         C           -2.090865424935    -0.121547206831    -0.010017524471    12.000000000000
         C           -1.156925424935    -1.160726206831    -0.014295524471    12.000000000000
         C           -1.545668424935     1.164122793169    -0.006731524471    12.000000000000
         C           -3.571729424935    -0.369887206831     0.019803475529    12.000000000000
         H            2.298357575065     1.626452793169     0.017069475529     1.007825032230
         H            3.797568575065     0.058685793169    -1.256380524471     1.007825032230
         H            2.460986575065    -1.201018206831    -1.245967524471     1.007825032230
         H            2.448282575065    -1.218856206831     1.241671475529     1.007825032230
         H            3.784472575065     0.040542793169     1.283886475529     1.007825032230
         H           -1.482695424935    -2.201956206831    -0.027960524471     1.007825032230
         H           -2.193230424935     2.042075793169    -0.014157524471     1.007825032230
         H           -3.822025424935    -1.303968206831    -0.490407524471     1.007825032230
         H           -4.113994424935     0.442763793169    -0.471006524471     1.007825032230
         H           -3.930699324935    -0.441153006831     1.030316775529     1.007825032230

  Basis Set: AUG-CC-PVTZ
    Blend: AUG-CC-PVTZ
  Basis Set: (AUG-CC-PVTZ AUX)
    Blend: AUG-CC-PVTZ-JKFIT
	 Reference Energy          =    -417.7795678946199587 [Eh]
	 Singles Energy            =      -0.0000000000000000 [Eh]
	 Same-Spin Energy          =      -0.4577208977826409 [Eh]
	 Opposite-Spin Energy      =      -1.4474334268995477 [Eh]
	 Correlation Energy        =      -1.9051543246821887 [Eh]
	 Total Energy              =    -419.6847222193021594 [Eh]

	 ================> DF-SCS-MP2 Energies <==================
	-----------------------------------------------------------
	 SCS Same-Spin Scale       =       0.3333333333333333 [-]
	 SCS Opposite-Spin Scale   =       1.2000000000000000 [-]
	 SCS Same-Spin Energy      =      -0.1525736325942136 [Eh]
	 SCS Opposite-Spin Energy  =      -1.7369201122794571 [Eh]
	 SCS Correlation Energy    =      -1.8894937448736706 [Eh]
	 SCS Total Energy          =    -419.6690616394936342 [Eh]
	-----------------------------------------------------------

  Dipole Moment: [D]
     X:    -2.0547      Y:    -0.5742      Z:     0.0514     Total:     2.1341

*** Psi4 exiting successfully. Buy a developer a beer!
