                               Psi4 1.4a3.dev225

  ==> Input File <==

--------------------------------------------------------------------------
#psi4
#
memory 32 gb

molecule  {
0 1
  N        0.1278028    -0.9271135    -0.0113559
  N       -0.2210270     1.4224780    -0.0033780
  C        2.0395230     0.5887340     0.0077330
  C        2.9514110    -0.3582210    -0.7410450
  C        2.9437130    -0.3688660     0.7522200
  C        0.5840210     0.3414150    -0.0010850
  C       -2.0855860    -0.1066610    -0.0107410
  C       -1.1516460    -1.1458400    -0.0150190
  C       -1.5403890     1.1790090    -0.0074550
  C       -3.5664500    -0.3550010     0.0190800
  H        2.3036370     1.6413390     0.0163460
  H        3.8028480     0.0735720    -1.2571040
  H        2.4662660    -1.1861320    -1.2466910
  H        2.4535620    -1.2039700     1.2409480
  H        3.7897520     0.0554290     1.2831630
  H       -1.4774160    -2.1870700    -0.0286840
  H       -2.1879510     2.0569620    -0.0148810
  H       -3.8167460    -1.2890820    -0.4911310
  H       -4.1087150     0.4576500    -0.4717300
  H       -3.9321000    -0.4275930     1.0483980
units angstrom
no_reorient  #important for SAPT in psi4, default
symmetry c1  #important for SAPT in psi4, default
}

set PROPERTIES_ORIGIN ["COM"]
properties('MP2/aug-cc-pvtz', properties = ['dipole'])
--------------------------------------------------------------------------

    Molecular point group: c1
  Charge       = 0
  Multiplicity = 1
  Basis Set: AUG-CC-PVTZ
    Blend: AUG-CC-PVTZ
  Basis Set: (AUG-CC-PVTZ AUX)
    Blend: AUG-CC-PVTZ-JKFIT

    Orbital Energies [Eh]
    ---------------------

    Doubly Occupied:

       1A    -15.562992     2A    -15.558774     3A    -11.314495
       4A    -11.286947     5A    -11.286463     6A    -11.243298
       7A    -11.236586     8A    -11.233649     9A    -11.227346
      10A    -11.226660    11A     -1.307351    12A     -1.187265
      13A     -1.149340    14A     -1.086486    15A     -0.968253
      16A     -0.888776    17A     -0.875740    18A     -0.820032
      19A     -0.800592    20A     -0.718440    21A     -0.696034
      22A     -0.648510    23A     -0.615493    24A     -0.598585
      25A     -0.589917    26A     -0.583907    27A     -0.559590
      28A     -0.553770    29A     -0.526467    30A     -0.512524
      31A     -0.470856    32A     -0.436570    33A     -0.425051
      34A     -0.417842    35A     -0.396739    36A     -0.331932

  @DF-RHF Final Energy:  -417.78007769420378

   => Energetics <=

    Nuclear Repulsion Energy =            494.2491162363482999
    One-Electron Energy =               -1545.3718431097477151
    Two-Electron Energy =                 633.3426491791956323
    Total Energy =                       -417.7800776942037828
  Basis Set: (AUG-CC-PVTZ AUX)
    Blend: AUG-CC-PVTZ-RI
    Molecular point group: c1

    Geometry (in Angstrom), charge = 0, multiplicity = 1:

       Center              X                  Y                   Z               Mass
    ------------   -----------------  -----------------  -----------------  -----------------
         N            0.127225966277    -0.943572082147    -0.010738269765    14.003074004430
         N           -0.221603833723     1.406019417853    -0.002760369765    14.003074004430
         C            2.038946166277     0.572275417853     0.008350630235    12.000000000000
         C            2.950834166277    -0.374679582147    -0.740427369765    12.000000000000
         C            2.943136166277    -0.385324582147     0.752837630235    12.000000000000
         C            0.583444166277     0.324956417853    -0.000467369765    12.000000000000
         C           -2.086162833723    -0.123119582147    -0.010123369765    12.000000000000
         C           -1.152222833723    -1.162298582147    -0.014401369765    12.000000000000
         C           -1.540965833723     1.162550417853    -0.006837369765    12.000000000000
         C           -3.567026833723    -0.371459582147     0.019697630235    12.000000000000
         H            2.303060166277     1.624880417853     0.016963630235     1.007825032230
         H            3.802271166277     0.057113417853    -1.256486369765     1.007825032230
         H            2.465689166277    -1.202590582147    -1.246073369765     1.007825032230
         H            2.452985166277    -1.220428582147     1.241565630235     1.007825032230
         H            3.789175166277     0.038970417853     1.283780630235     1.007825032230
         H           -1.477992833723    -2.203528582147    -0.028066369765     1.007825032230
         H           -2.188527833723     2.040503417853    -0.014263369765     1.007825032230
         H           -3.817322833723    -1.305540582147    -0.490513369765     1.007825032230
         H           -4.109291833723     0.441191417853    -0.471112369765     1.007825032230
         H           -3.932676833723    -0.444051582147     1.049015630235     1.007825032230

  Basis Set: AUG-CC-PVTZ
    Blend: AUG-CC-PVTZ
  Basis Set: (AUG-CC-PVTZ AUX)
    Blend: AUG-CC-PVTZ-JKFIT
	 Reference Energy          =    -417.7800776942037828 [Eh]
	 Singles Energy            =      -0.0000000000000000 [Eh]
	 Same-Spin Energy          =      -0.4573385472104815 [Eh]
	 Opposite-Spin Energy      =      -1.4462170642358889 [Eh]
	 Correlation Energy        =      -1.9035556114463703 [Eh]
	 Total Energy              =    -419.6836333056501758 [Eh]

	 ================> DF-SCS-MP2 Energies <==================
	-----------------------------------------------------------
	 SCS Same-Spin Scale       =       0.3333333333333333 [-]
	 SCS Opposite-Spin Scale   =       1.2000000000000000 [-]
	 SCS Same-Spin Energy      =      -0.1524461824034938 [Eh]
	 SCS Opposite-Spin Energy  =      -1.7354604770830666 [Eh]
	 SCS Correlation Energy    =      -1.8879066594865603 [Eh]
	 SCS Total Energy          =    -419.6679843536903149 [Eh]
	-----------------------------------------------------------

  Dipole Moment: [D]
     X:    -1.8966      Y:    -0.6135      Z:     0.0476     Total:     1.9940

*** Psi4 exiting successfully. Buy a developer a beer!
