                               Psi4 1.4a3.dev225

  ==> Input File <==

--------------------------------------------------------------------------
#psi4
#
memory 32 gb

molecule  {
0 1
  N        0.1723510    -0.9422650    -0.0110160
  N       -0.2210270     1.4224780    -0.0033780
  C        2.0395230     0.5887340     0.0077330
  C        2.9514110    -0.3582210    -0.7410450
  C        2.9437130    -0.3688660     0.7522200
  C        0.5840210     0.3414150    -0.0010850
  C       -2.1301209    -0.0868505    -0.0111923
  C       -1.1516460    -1.1458400    -0.0150190
  C       -1.5403890     1.1790090    -0.0074550
  C       -3.5664500    -0.3550010     0.0190800
  H        2.3036370     1.6413390     0.0163460
  H        3.8028480     0.0735720    -1.2571040
  H        2.4662660    -1.1861320    -1.2466910
  H        2.4535620    -1.2039700     1.2409480
  H        3.7897520     0.0554290     1.2831630
  H       -1.4774160    -2.1870700    -0.0286840
  H       -2.1879510     2.0569620    -0.0148810
  H       -3.8167460    -1.2890820    -0.4911310
  H       -4.1087150     0.4576500    -0.4717300
  H       -3.9321000    -0.4275930     1.0483980
units angstrom
no_reorient  #important for SAPT in psi4, default
symmetry c1  #important for SAPT in psi4, default
}

set PROPERTIES_ORIGIN ["COM"]
properties('MP2/aug-cc-pvtz', properties = ['dipole'])
--------------------------------------------------------------------------

    Molecular point group: c1
  Charge       = 0
  Multiplicity = 1
  Basis Set: AUG-CC-PVTZ
    Blend: AUG-CC-PVTZ
  Basis Set: (AUG-CC-PVTZ AUX)
    Blend: AUG-CC-PVTZ-JKFIT

    Orbital Energies [Eh]
    ---------------------

    Doubly Occupied:

       1A    -15.565746     2A    -15.563169     3A    -11.314201
       4A    -11.297971     5A    -11.288231     6A    -11.248383
       7A    -11.236849     8A    -11.231675     9A    -11.226234
      10A    -11.225553    11A     -1.300195    12A     -1.182047
      13A     -1.146908    14A     -1.090923    15A     -0.970820
      16A     -0.887035    17A     -0.874636    18A     -0.819015
      19A     -0.794974    20A     -0.714414    21A     -0.693920
      22A     -0.645491    23A     -0.615401    24A     -0.602426
      25A     -0.598681    26A     -0.578689    27A     -0.558573
      28A     -0.551525    29A     -0.523608    30A     -0.511314
      31A     -0.475836    32A     -0.432734    33A     -0.424617
      34A     -0.414398    35A     -0.400797    36A     -0.330746

  @DF-RHF Final Energy:  -417.77544633130736

   => Energetics <=

    Nuclear Repulsion Energy =            493.0327156333479479
    One-Electron Energy =               -1542.9408514169365390
    Two-Electron Energy =                 632.1326894522810562
    Total Energy =                       -417.7754463313074211
  Basis Set: (AUG-CC-PVTZ AUX)
    Blend: AUG-CC-PVTZ-RI
    Molecular point group: c1

    Geometry (in Angstrom), charge = 0, multiplicity = 1:

       Center              X                  Y                   Z               Mass
    ------------   -----------------  -----------------  -----------------  -----------------
         N            0.171107474683    -0.958914196600    -0.010393477658    14.003074004430
         N           -0.222270525317     1.405828803400    -0.002755477658    14.003074004430
         C            2.038279474683     0.572084803400     0.008355522342    12.000000000000
         C            2.950167474683    -0.374870196600    -0.740422477658    12.000000000000
         C            2.942469474683    -0.385515196600     0.752842522342    12.000000000000
         C            0.582777474683     0.324765803400    -0.000462477658    12.000000000000
         C           -2.131364425317    -0.103499696600    -0.010569777658    12.000000000000
         C           -1.152889525317    -1.162489196600    -0.014396477658    12.000000000000
         C           -1.541632525317     1.162359803400    -0.006832477658    12.000000000000
         C           -3.567693525317    -0.371650196600     0.019702522342    12.000000000000
         H            2.302393474683     1.624689803400     0.016968522342     1.007825032230
         H            3.801604474683     0.056922803400    -1.256481477658     1.007825032230
         H            2.465022474683    -1.202781196600    -1.246068477658     1.007825032230
         H            2.452318474683    -1.220619196600     1.241570522342     1.007825032230
         H            3.788508474683     0.038779803400     1.283785522342     1.007825032230
         H           -1.478659525317    -2.203719196600    -0.028061477658     1.007825032230
         H           -2.189194525317     2.040312803400    -0.014258477658     1.007825032230
         H           -3.817989525317    -1.305731196600    -0.490508477658     1.007825032230
         H           -4.109958525317     0.441000803400    -0.471107477658     1.007825032230
         H           -3.933343525317    -0.444242196600     1.049020522342     1.007825032230

  Basis Set: AUG-CC-PVTZ
    Blend: AUG-CC-PVTZ
  Basis Set: (AUG-CC-PVTZ AUX)
    Blend: AUG-CC-PVTZ-JKFIT
	 Reference Energy          =    -417.7754463313073643 [Eh]
	 Singles Energy            =      -0.0000000000000000 [Eh]
	 Same-Spin Energy          =      -0.4581122918453678 [Eh]
	 Opposite-Spin Energy      =      -1.4482073233252630 [Eh]
	 Correlation Energy        =      -1.9063196151706308 [Eh]
	 Total Energy              =    -419.6817659464779808 [Eh]

	 ================> DF-SCS-MP2 Energies <==================
	-----------------------------------------------------------
	 SCS Same-Spin Scale       =       0.3333333333333333 [-]
	 SCS Opposite-Spin Scale   =       1.2000000000000000 [-]
	 SCS Same-Spin Energy      =      -0.1527040972817893 [Eh]
	 SCS Opposite-Spin Energy  =      -1.7378487879903155 [Eh]
	 SCS Correlation Energy    =      -1.8905528852721047 [Eh]
	 SCS Total Energy          =    -419.6659992165794506 [Eh]
	-----------------------------------------------------------

  Dipole Moment: [D]
     X:    -2.0864      Y:    -0.6306      Z:     0.0520     Total:     2.1803

*** Psi4 exiting successfully. Buy a developer a beer!
