                               Psi4 1.4a3.dev225

  ==> Input File <==

--------------------------------------------------------------------------
#psi4
#
memory 32 gb

molecule  {
0 1
  N        0.1723510    -0.9422650    -0.0110160
  N       -0.2210270     1.4224780    -0.0033780
  C        2.0395230     0.5887340     0.0077330
  C        2.9514110    -0.3582210    -0.7410450
  C        2.9437130    -0.3688660     0.7522200
  C        0.5840210     0.3414150    -0.0010850
  C       -2.0855860    -0.1066610    -0.0107410
  C       -1.1516460    -1.1458400    -0.0150190
  C       -1.5403890     1.1790090    -0.0074550
  C       -3.5664500    -0.3550010     0.0190800
  H        2.3036370     1.6413390     0.0163460
  H        3.8028480     0.0735720    -1.2571040
  H        2.4662660    -1.1861320    -1.2466910
  H        2.4535620    -1.2039700     1.2409480
  H        3.7897520     0.0554290     1.2831630
  H       -1.4774160    -2.1870700    -0.0286840
  H       -2.1879510     2.0569620    -0.0148810
  H       -3.8167460    -1.2890820    -0.4911310
  H       -4.2079111     0.6063076    -0.5615135
  H       -3.9321000    -0.4275930     1.0483980
units angstrom
no_reorient  #important for SAPT in psi4, default
symmetry c1  #important for SAPT in psi4, default
}

set PROPERTIES_ORIGIN ["COM"]
properties('MP2/aug-cc-pvtz', properties = ['dipole'])
--------------------------------------------------------------------------

    Molecular point group: c1
  Charge       = 0
  Multiplicity = 1
  Basis Set: AUG-CC-PVTZ
    Blend: AUG-CC-PVTZ
  Basis Set: (AUG-CC-PVTZ AUX)
    Blend: AUG-CC-PVTZ-JKFIT

    Orbital Energies [Eh]
    ---------------------

    Doubly Occupied:

       1A    -15.564983     2A    -15.564769     3A    -11.314555
       4A    -11.293587     5A    -11.291203     6A    -11.260752
       7A    -11.247611     8A    -11.231938     9A    -11.226430
      10A    -11.225748    11A     -1.302697    12A     -1.183485
      13A     -1.147786    14A     -1.087130    15A     -0.960351
      16A     -0.891285    17A     -0.870901    18A     -0.819192
      19A     -0.796629    20A     -0.715454    21A     -0.695540
      22A     -0.645697    23A     -0.614642    24A     -0.597492
      25A     -0.592154    26A     -0.581845    27A     -0.559998
      28A     -0.524292    29A     -0.520690    30A     -0.511165
      31A     -0.472323    32A     -0.434494    33A     -0.424871
      34A     -0.415136    35A     -0.403372    36A     -0.335050

  @DF-RHF Final Energy:  -417.75942451821288

   => Energetics <=

    Nuclear Repulsion Energy =            492.7704551314024002
    One-Electron Energy =               -1542.4092693570985375
    Two-Electron Energy =                 631.8793897074831420
    Total Energy =                       -417.7594245182128816
  Basis Set: (AUG-CC-PVTZ AUX)
    Blend: AUG-CC-PVTZ-RI
    Molecular point group: c1

    Geometry (in Angstrom), charge = 0, multiplicity = 1:

       Center              X                  Y                   Z               Mass
    ------------   -----------------  -----------------  -----------------  -----------------
         N            0.167867377455    -0.958258600941    -0.009759023092    14.003074004430
         N           -0.225510622545     1.406484399059    -0.002121023092    14.003074004430
         C            2.035039377455     0.572740399059     0.008989976908    12.000000000000
         C            2.946927377455    -0.374214600941    -0.739788023092    12.000000000000
         C            2.939229377455    -0.384859600941     0.753476976908    12.000000000000
         C            0.579537377455     0.325421399059     0.000171976908    12.000000000000
         C           -2.090069622545    -0.122654600941    -0.009484023092    12.000000000000
         C           -1.156129622545    -1.161833600941    -0.013762023092    12.000000000000
         C           -1.544872622545     1.163015399059    -0.006198023092    12.000000000000
         C           -3.570933622545    -0.370994600941     0.020336976908    12.000000000000
         H            2.299153377455     1.625345399059     0.017602976908     1.007825032230
         H            3.798364377455     0.057578399059    -1.255847023092     1.007825032230
         H            2.461782377455    -1.202125600941    -1.245434023092     1.007825032230
         H            2.449078377455    -1.219963600941     1.242204976908     1.007825032230
         H            3.785268377455     0.039435399059     1.284419976908     1.007825032230
         H           -1.481899622545    -2.203063600941    -0.027427023092     1.007825032230
         H           -2.192434622545     2.040968399059    -0.013624023092     1.007825032230
         H           -3.821229622545    -1.305075600941    -0.489874023092     1.007825032230
         H           -4.212394722545     0.590313999059    -0.560256523092     1.007825032230
         H           -3.936583622545    -0.443586600941     1.049654976908     1.007825032230

  Basis Set: AUG-CC-PVTZ
    Blend: AUG-CC-PVTZ
  Basis Set: (AUG-CC-PVTZ AUX)
    Blend: AUG-CC-PVTZ-JKFIT
	 Reference Energy          =    -417.7594245182128816 [Eh]
	 Singles Energy            =      -0.0000000000000000 [Eh]
	 Same-Spin Energy          =      -0.4577006740464826 [Eh]
	 Opposite-Spin Energy      =      -1.4490870559685243 [Eh]
	 Correlation Energy        =      -1.9067877300150069 [Eh]
	 Total Energy              =    -419.6662122482279074 [Eh]

	 ================> DF-SCS-MP2 Energies <==================
	-----------------------------------------------------------
	 SCS Same-Spin Scale       =       0.3333333333333333 [-]
	 SCS Opposite-Spin Scale   =       1.2000000000000000 [-]
	 SCS Same-Spin Energy      =      -0.1525668913488275 [Eh]
	 SCS Opposite-Spin Energy  =      -1.7389044671622291 [Eh]
	 SCS Correlation Energy    =      -1.8914713585110567 [Eh]
	 SCS Total Energy          =    -419.6508958767239506 [Eh]
	-----------------------------------------------------------

  Dipole Moment: [D]
     X:    -1.9302      Y:    -0.6285      Z:     0.0843     Total:     2.0317

*** Psi4 exiting successfully. Buy a developer a beer!
