                               Psi4 1.4a3.dev225

  ==> Input File <==

--------------------------------------------------------------------------
#psi4
#
memory 32 gb

molecule  {
0 1
  N        0.1723510    -0.9422650    -0.0110160
  N       -0.2210270     1.4224780    -0.0033780
  C        2.0395230     0.5887340     0.0077330
  C        2.9514110    -0.3582210    -0.7410450
  C        2.9437130    -0.3688660     0.7522200
  C        0.5840210     0.3414150    -0.0010850
  C       -2.0855860    -0.1066610    -0.0107410
  C       -1.0179582    -1.2945921    -0.0156314
  C       -1.5403890     1.1790090    -0.0074550
  C       -3.5664500    -0.3550010     0.0190800
  H        2.3036370     1.6413390     0.0163460
  H        3.8028480     0.0735720    -1.2571040
  H        2.4662660    -1.1861320    -1.2466910
  H        2.4535620    -1.2039700     1.2409480
  H        3.7897520     0.0554290     1.2831630
  H       -1.4774160    -2.1870700    -0.0286840
  H       -2.1879510     2.0569620    -0.0148810
  H       -3.8167460    -1.2890820    -0.4911310
  H       -4.1087150     0.4576500    -0.4717300
  H       -3.9321000    -0.4275930     1.0483980
units angstrom
no_reorient  #important for SAPT in psi4, default
symmetry c1  #important for SAPT in psi4, default
}

set PROPERTIES_ORIGIN ["COM"]
properties('MP2/aug-cc-pvtz', properties = ['dipole'])
--------------------------------------------------------------------------

    Molecular point group: c1
  Charge       = 0
  Multiplicity = 1
  Basis Set: AUG-CC-PVTZ
    Blend: AUG-CC-PVTZ
  Basis Set: (AUG-CC-PVTZ AUX)
    Blend: AUG-CC-PVTZ-JKFIT

    Orbital Energies [Eh]
    ---------------------

    Doubly Occupied:

       1A    -15.564703     2A    -15.561552     3A    -11.317689
       4A    -11.301995     5A    -11.274581     6A    -11.253650
       7A    -11.234830     8A    -11.233262     9A    -11.227076
      10A    -11.226390    11A     -1.311776    12A     -1.200849
      13A     -1.147902    14A     -1.065968    15A     -0.970211
      16A     -0.893530    17A     -0.863806    18A     -0.820162
      19A     -0.795173    20A     -0.741571    21A     -0.689344
      22A     -0.652788    23A     -0.617220    24A     -0.600056
      25A     -0.592706    26A     -0.580983    27A     -0.562323
      28A     -0.548558    29A     -0.526696    30A     -0.512258
      31A     -0.461576    32A     -0.439622    33A     -0.425575
      34A     -0.423874    35A     -0.384672    36A     -0.313576

  @DF-RHF Final Energy:  -417.73934239161207

   => Energetics <=

    Nuclear Repulsion Energy =            492.2182058819868189
    One-Electron Energy =               -1541.2380955632365840
    Two-Electron Energy =                 631.2805472896377523
    Total Energy =                       -417.7393423916121264
  Basis Set: (AUG-CC-PVTZ AUX)
    Blend: AUG-CC-PVTZ-RI
    Molecular point group: c1

    Geometry (in Angstrom), charge = 0, multiplicity = 1:

       Center              X                  Y                   Z               Mass
    ------------   -----------------  -----------------  -----------------  -----------------
         N            0.155157278936    -0.943828539915    -0.010379059873    14.003074004430
         N           -0.238220721064     1.420914460085    -0.002741059873    14.003074004430
         C            2.022329278936     0.587170460085     0.008369940127    12.000000000000
         C            2.934217278936    -0.359784539915    -0.740408059873    12.000000000000
         C            2.926519278936    -0.370429539915     0.752856940127    12.000000000000
         C            0.566827278936     0.339851460085    -0.000448059873    12.000000000000
         C           -2.102779721064    -0.108224539915    -0.010104059873    12.000000000000
         C           -1.035151921064    -1.296155639915    -0.014994459873    12.000000000000
         C           -1.557582721064     1.177445460085    -0.006818059873    12.000000000000
         C           -3.583643721064    -0.356564539915     0.019716940127    12.000000000000
         H            2.286443278936     1.639775460085     0.016982940127     1.007825032230
         H            3.785654278936     0.072008460085    -1.256467059873     1.007825032230
         H            2.449072278936    -1.187695539915    -1.246054059873     1.007825032230
         H            2.436368278936    -1.205533539915     1.241584940127     1.007825032230
         H            3.772558278936     0.053865460085     1.283799940127     1.007825032230
         H           -1.494609721064    -2.188633539915    -0.028047059873     1.007825032230
         H           -2.205144721064     2.055398460085    -0.014244059873     1.007825032230
         H           -3.833939721064    -1.290645539915    -0.490494059873     1.007825032230
         H           -4.125908721064     0.456086460085    -0.471093059873     1.007825032230
         H           -3.949293721064    -0.429156539915     1.049034940127     1.007825032230

  Basis Set: AUG-CC-PVTZ
    Blend: AUG-CC-PVTZ
  Basis Set: (AUG-CC-PVTZ AUX)
    Blend: AUG-CC-PVTZ-JKFIT
	 Reference Energy          =    -417.7393423916120696 [Eh]
	 Singles Energy            =      -0.0000000000000000 [Eh]
	 Same-Spin Energy          =      -0.4573321901917785 [Eh]
	 Opposite-Spin Energy      =      -1.4487490174095496 [Eh]
	 Correlation Energy        =      -1.9060812076013280 [Eh]
	 Total Energy              =    -419.6454235992134159 [Eh]

	 ================> DF-SCS-MP2 Energies <==================
	-----------------------------------------------------------
	 SCS Same-Spin Scale       =       0.3333333333333333 [-]
	 SCS Opposite-Spin Scale   =       1.2000000000000000 [-]
	 SCS Same-Spin Energy      =      -0.1524440633972595 [Eh]
	 SCS Opposite-Spin Energy  =      -1.7384988208914596 [Eh]
	 SCS Correlation Energy    =      -1.8909428842887190 [Eh]
	 SCS Total Energy          =    -419.6302852759008033 [Eh]
	-----------------------------------------------------------

  Dipole Moment: [D]
     X:    -1.8601      Y:    -0.9865      Z:     0.0506     Total:     2.1061

*** Psi4 exiting successfully. Buy a developer a beer!
