                               Psi4 1.4a3.dev225

  ==> Input File <==

--------------------------------------------------------------------------
#psi4
#
memory 32 gb

molecule  {
0 1
  N        0.1723510    -0.9422650    -0.0110160
  N       -0.2210270     1.4224780    -0.0033780
  C        2.0395230     0.5887340     0.0077330
  C        2.9514110    -0.3582210    -0.7410450
  C        2.9437130    -0.3688660     0.7522200
  C        0.5840210     0.3414150    -0.0010850
  C       -2.0855860    -0.1066610    -0.0107410
  C       -1.1516460    -1.1458400    -0.0150190
  C       -1.5403890     1.1790090    -0.0074550
  C       -3.5664500    -0.3550010     0.0190800
  H        2.3036370     1.6413390     0.0163460
  H        3.8028480     0.0735720    -1.2571040
  H        2.4662660    -1.1861320    -1.2466910
  H        2.4535620    -1.2039700     1.2409480
  H        3.7897520     0.0554290     1.2831630
  H       -1.4774160    -2.1870700    -0.0286840
  H       -2.1879510     2.0569620    -0.0148810
  H       -3.8281920    -1.3317975    -0.5144629
  H       -4.1087150     0.4576500    -0.4717300
  H       -3.9321000    -0.4275930     1.0483980
units angstrom
no_reorient  #important for SAPT in psi4, default
symmetry c1  #important for SAPT in psi4, default
}

set PROPERTIES_ORIGIN ["COM"]
properties('MP2/aug-cc-pvtz', properties = ['dipole'])
--------------------------------------------------------------------------

    Molecular point group: c1
  Charge       = 0
  Multiplicity = 1
  Basis Set: AUG-CC-PVTZ
    Blend: AUG-CC-PVTZ
  Basis Set: (AUG-CC-PVTZ AUX)
    Blend: AUG-CC-PVTZ-JKFIT

    Orbital Energies [Eh]
    ---------------------

    Doubly Occupied:

       1A    -15.564251     2A    -15.564157     3A    -11.313741
       4A    -11.292017     5A    -11.290727     6A    -11.246092
       7A    -11.244048     8A    -11.231447     9A    -11.225965
      10A    -11.225284    11A     -1.301920    12A     -1.182762
      13A     -1.147252    14A     -1.087620    15A     -0.964692
      16A     -0.891547    17A     -0.873129    18A     -0.818749
      19A     -0.796531    20A     -0.715878    21A     -0.694453
      22A     -0.646049    23A     -0.613458    24A     -0.597136
      25A     -0.591853    26A     -0.582032    27A     -0.558399
      28A     -0.547680    29A     -0.523493    30A     -0.511174
      31A     -0.472000    32A     -0.434210    33A     -0.424384
      34A     -0.414468    35A     -0.402887    36A     -0.334487

  @DF-RHF Final Energy:  -417.77744930708241

   => Energetics <=

    Nuclear Repulsion Energy =            493.3346735785171404
    One-Electron Energy =               -1543.5723064013736803
    Two-Electron Energy =                 632.4601835157741334
    Total Energy =                       -417.7774493070824064
  Basis Set: (AUG-CC-PVTZ AUX)
    Blend: AUG-CC-PVTZ-RI
    Molecular point group: c1

    Geometry (in Angstrom), charge = 0, multiplicity = 1:

       Center              X                  Y                   Z               Mass
    ------------   -----------------  -----------------  -----------------  -----------------
         N            0.167207817145    -0.956820174076    -0.010258496459    14.003074004430
         N           -0.226170182855     1.407922825924    -0.002620496459    14.003074004430
         C            2.034379817145     0.574178825924     0.008490503541    12.000000000000
         C            2.946267817145    -0.372776174076    -0.740287496459    12.000000000000
         C            2.938569817145    -0.383421174076     0.752977503541    12.000000000000
         C            0.578877817145     0.326859825924    -0.000327496459    12.000000000000
         C           -2.090729182855    -0.121216174076    -0.009983496459    12.000000000000
         C           -1.156789182855    -1.160395174076    -0.014261496459    12.000000000000
         C           -1.545532182855     1.164453825924    -0.006697496459    12.000000000000
         C           -3.571593182855    -0.369556174076     0.019837503541    12.000000000000
         H            2.298493817145     1.626783825924     0.017103503541     1.007825032230
         H            3.797704817145     0.059016825924    -1.256346496459     1.007825032230
         H            2.461122817145    -1.200687174076    -1.245933496459     1.007825032230
         H            2.448418817145    -1.218525174076     1.241705503541     1.007825032230
         H            3.784608817145     0.040873825924     1.283920503541     1.007825032230
         H           -1.482559182855    -2.201625174076    -0.027926496459     1.007825032230
         H           -2.193094182855     2.042406825924    -0.014123496459     1.007825032230
         H           -3.833335182855    -1.346352674076    -0.513705396459     1.007825032230
         H           -4.113858182855     0.443094825924    -0.470972496459     1.007825032230
         H           -3.937243182855    -0.442148174076     1.049155503541     1.007825032230

  Basis Set: AUG-CC-PVTZ
    Blend: AUG-CC-PVTZ
  Basis Set: (AUG-CC-PVTZ AUX)
    Blend: AUG-CC-PVTZ-JKFIT
	 Reference Energy          =    -417.7774493070824064 [Eh]
	 Singles Energy            =      -0.0000000000000000 [Eh]
	 Same-Spin Energy          =      -0.4577074713073946 [Eh]
	 Opposite-Spin Energy      =      -1.4478603178765974 [Eh]
	 Correlation Energy        =      -1.9055677891839919 [Eh]
	 Total Energy              =    -419.6830170962663829 [Eh]

	 ================> DF-SCS-MP2 Energies <==================
	-----------------------------------------------------------
	 SCS Same-Spin Scale       =       0.3333333333333333 [-]
	 SCS Opposite-Spin Scale   =       1.2000000000000000 [-]
	 SCS Same-Spin Energy      =      -0.1525691571024649 [Eh]
	 SCS Opposite-Spin Energy  =      -1.7374323814519168 [Eh]
	 SCS Correlation Energy    =      -1.8900015385543816 [Eh]
	 SCS Total Energy          =    -419.6674508456367789 [Eh]
	-----------------------------------------------------------

  Dipole Moment: [D]
     X:    -2.0278      Y:    -0.5552      Z:     0.0544     Total:     2.1031

*** Psi4 exiting successfully. Buy a developer a beer!
