                               Psi4 1.4a3.dev225

  ==> Input File <==

--------------------------------------------------------------------------
#psi4
#
memory 32 gb

molecule  {
0 1
  N        0.1723510    -0.9422650    -0.0110160
  N       -0.2210270     1.4224780    -0.0033780
  C        2.0395230     0.5887340     0.0077330
  C        2.9514110    -0.3582210    -0.7410450
  C        2.9437130    -0.3688660     0.7522200
  C        0.5840210     0.3414150    -0.0010850
  C       -2.1079399    -0.0969501    -0.0109672
  C       -1.1516460    -1.1458400    -0.0150190
  C       -1.5403890     1.1790090    -0.0074550
  C       -3.5664500    -0.3550010     0.0190800
  H        2.3036370     1.6413390     0.0163460
  H        3.8028480     0.0735720    -1.2571040
  H        2.4662660    -1.1861320    -1.2466910
  H        2.4535620    -1.2039700     1.2409480
  H        3.7897520     0.0554290     1.2831630
  H       -1.4774160    -2.1870700    -0.0286840
  H       -2.1879510     2.0569620    -0.0148810
  H       -3.8167460    -1.2890820    -0.4911310
  H       -4.1087150     0.4576500    -0.4717300
  H       -3.9321000    -0.4275930     1.0483980
units angstrom
no_reorient  #important for SAPT in psi4, default
symmetry c1  #important for SAPT in psi4, default
}

set PROPERTIES_ORIGIN ["COM"]
properties('MP2/aug-cc-pvtz', properties = ['dipole'])
--------------------------------------------------------------------------

    Molecular point group: c1
  Charge       = 0
  Multiplicity = 1
  Basis Set: AUG-CC-PVTZ
    Blend: AUG-CC-PVTZ
  Basis Set: (AUG-CC-PVTZ AUX)
    Blend: AUG-CC-PVTZ-JKFIT

    Orbital Energies [Eh]
    ---------------------

    Doubly Occupied:

       1A    -15.564887     2A    -15.563603     3A    -11.313874
       4A    -11.294990     5A    -11.289282     6A    -11.247000
       7A    -11.237508     8A    -11.231502     9A    -11.226049
      10A    -11.225368    11A     -1.300928    12A     -1.182288
      13A     -1.147015    14A     -1.089387    15A     -0.969004
      16A     -0.888988    17A     -0.874856    18A     -0.818834
      19A     -0.795746    20A     -0.715096    21A     -0.694346
      22A     -0.645675    23A     -0.614187    24A     -0.599917
      25A     -0.595789    26A     -0.580289    27A     -0.558465
      28A     -0.553596    29A     -0.523560    30A     -0.511205
      31A     -0.474000    32A     -0.433415    33A     -0.424452
      34A     -0.414314    35A     -0.401851    36A     -0.332570

  @DF-RHF Final Energy:  -417.77824810252218

   => Energetics <=

    Nuclear Repulsion Energy =            493.2818184255160645
    One-Electron Energy =               -1543.4524549783895964
    Two-Electron Energy =                 632.3923884503512909
    Total Energy =                       -417.7782481025221841
  Basis Set: (AUG-CC-PVTZ AUX)
    Blend: AUG-CC-PVTZ-RI
    Molecular point group: c1

    Geometry (in Angstrom), charge = 0, multiplicity = 1:

       Center              X                  Y                   Z               Mass
    ------------   -----------------  -----------------  -----------------  -----------------
         N            0.169122366771    -0.958010324102    -0.010413623179    14.003074004430
         N           -0.224255633229     1.406732675898    -0.002775623179    14.003074004430
         C            2.036294366771     0.572988675898     0.008335376821    12.000000000000
         C            2.948182366771    -0.373966324102    -0.740442623179    12.000000000000
         C            2.940484366771    -0.384611324102     0.752822376821    12.000000000000
         C            0.580792366771     0.325669675898    -0.000482623179    12.000000000000
         C           -2.111168533229    -0.112695424102    -0.010364823179    12.000000000000
         C           -1.154874633229    -1.161585324102    -0.014416623179    12.000000000000
         C           -1.543617633229     1.163263675898    -0.006852623179    12.000000000000
         C           -3.569678633229    -0.370746324102     0.019682376821    12.000000000000
         H            2.300408366771     1.625593675898     0.016948376821     1.007825032230
         H            3.799619366771     0.057826675898    -1.256501623179     1.007825032230
         H            2.463037366771    -1.201877324102    -1.246088623179     1.007825032230
         H            2.450333366771    -1.219715324102     1.241550376821     1.007825032230
         H            3.786523366771     0.039683675898     1.283765376821     1.007825032230
         H           -1.480644633229    -2.202815324102    -0.028081623179     1.007825032230
         H           -2.191179633229     2.041216675898    -0.014278623179     1.007825032230
         H           -3.819974633229    -1.304827324102    -0.490528623179     1.007825032230
         H           -4.111943633229     0.441904675898    -0.471127623179     1.007825032230
         H           -3.935328633229    -0.443338324102     1.049000376821     1.007825032230

  Basis Set: AUG-CC-PVTZ
    Blend: AUG-CC-PVTZ
  Basis Set: (AUG-CC-PVTZ AUX)
    Blend: AUG-CC-PVTZ-JKFIT
	 Reference Energy          =    -417.7782481025221841 [Eh]
	 Singles Energy            =      -0.0000000000000000 [Eh]
	 Same-Spin Energy          =      -0.4578938377811183 [Eh]
	 Opposite-Spin Energy      =      -1.4478251396678643 [Eh]
	 Correlation Energy        =      -1.9057189774489827 [Eh]
	 Total Energy              =    -419.6839670799711826 [Eh]

	 ================> DF-SCS-MP2 Energies <==================
	-----------------------------------------------------------
	 SCS Same-Spin Scale       =       0.3333333333333333 [-]
	 SCS Opposite-Spin Scale   =       1.2000000000000000 [-]
	 SCS Same-Spin Energy      =      -0.1526312792603728 [Eh]
	 SCS Opposite-Spin Energy  =      -1.7373901676014372 [Eh]
	 SCS Correlation Energy    =      -1.8900214468618100 [Eh]
	 SCS Total Energy          =    -419.6682695493839788 [Eh]
	-----------------------------------------------------------

  Dipole Moment: [D]
     X:    -2.0669      Y:    -0.6015      Z:     0.0490     Total:     2.1532

*** Psi4 exiting successfully. Buy a developer a beer!
