                               Psi4 1.4a3.dev225

  ==> Input File <==

--------------------------------------------------------------------------
#psi4
#
memory 32 gb

molecule  {
0 1
  N        0.1723510    -0.9422650    -0.0110160
  N       -0.2210270     1.4224780    -0.0033780
  C        2.0395230     0.5887340     0.0077330
  C        2.9514110    -0.3582210    -0.7410450
  C        2.9437130    -0.3688660     0.7522200
  C        0.5840210     0.3414150    -0.0010850
  C       -2.0855860    -0.1066610    -0.0107410
  C       -1.1516460    -1.1458400    -0.0150190
  C       -1.5403890     1.1790090    -0.0074550
  C       -3.5664500    -0.3550010     0.0190800
  H        2.3036370     1.6413390     0.0163460
  H        3.8028480     0.0735720    -1.2571040
  H        2.4662660    -1.1861320    -1.2466910
  H        2.4535620    -1.2039700     1.2409480
  H        3.7897520     0.0554290     1.2831630
  H       -1.4774160    -2.1870700    -0.0286840
  H       -2.1879510     2.0569620    -0.0148810
  H       -3.8167460    -1.2890820    -0.4911310
  H       -4.1087150     0.4576500    -0.4717300
  H       -3.9488002    -0.4309085     1.0954098
units angstrom
no_reorient  #important for SAPT in psi4, default
symmetry c1  #important for SAPT in psi4, default
}

set PROPERTIES_ORIGIN ["COM"]
properties('MP2/aug-cc-pvtz', properties = ['dipole'])
--------------------------------------------------------------------------

    Molecular point group: c1
  Charge       = 0
  Multiplicity = 1
  Basis Set: AUG-CC-PVTZ
    Blend: AUG-CC-PVTZ
  Basis Set: (AUG-CC-PVTZ AUX)
    Blend: AUG-CC-PVTZ-JKFIT

    Orbital Energies [Eh]
    ---------------------

    Doubly Occupied:

       1A    -15.564255     2A    -15.564211     3A    -11.313793
       4A    -11.292142     5A    -11.290652     6A    -11.246037
       7A    -11.244010     8A    -11.231477     9A    -11.225996
      10A    -11.225315    11A     -1.301953    12A     -1.182793
      13A     -1.147288    14A     -1.087631    15A     -0.964713
      16A     -0.891470    17A     -0.873340    18A     -0.818778
      19A     -0.796532    20A     -0.716013    21A     -0.694868
      22A     -0.645973    23A     -0.613472    24A     -0.595919
      25A     -0.588884    26A     -0.582731    27A     -0.555698
      28A     -0.553920    29A     -0.523653    30A     -0.511115
      31A     -0.472002    32A     -0.433977    33A     -0.424412
      34A     -0.414494    35A     -0.402966    36A     -0.334130

  @DF-RHF Final Energy:  -417.77753144528293

   => Energetics <=

    Nuclear Repulsion Energy =            493.3314959001637590
    One-Electron Energy =               -1543.5648291367590446
    Two-Electron Energy =                 632.4558017913122967
    Total Energy =                       -417.7775314452828752
  Basis Set: (AUG-CC-PVTZ AUX)
    Blend: AUG-CC-PVTZ-RI
    Molecular point group: c1

    Geometry (in Angstrom), charge = 0, multiplicity = 1:

       Center              X                  Y                   Z               Mass
    ------------   -----------------  -----------------  -----------------  -----------------
         N            0.167247309541    -0.957116318197    -0.010787224205    14.003074004430
         N           -0.226130690459     1.407626681803    -0.003149224205    14.003074004430
         C            2.034419309541     0.573882681803     0.007961775795    12.000000000000
         C            2.946307309541    -0.373072318197    -0.740816224205    12.000000000000
         C            2.938609309541    -0.383717318197     0.752448775795    12.000000000000
         C            0.578917309541     0.326563681803    -0.000856224205    12.000000000000
         C           -2.090689690459    -0.121512318197    -0.010512224205    12.000000000000
         C           -1.156749690459    -1.160691318197    -0.014790224205    12.000000000000
         C           -1.545492690459     1.164157681803    -0.007226224205    12.000000000000
         C           -3.571553690459    -0.369852318197     0.019308775795    12.000000000000
         H            2.298533309541     1.626487681803     0.016574775795     1.007825032230
         H            3.797744309541     0.058720681803    -1.256875224205     1.007825032230
         H            2.461162309541    -1.200983318197    -1.246462224205     1.007825032230
         H            2.448458309541    -1.218821318197     1.241176775795     1.007825032230
         H            3.784648309541     0.040577681803     1.283391775795     1.007825032230
         H           -1.482519690459    -2.201921318197    -0.028455224205     1.007825032230
         H           -2.193054690459     2.042110681803    -0.014652224205     1.007825032230
         H           -3.821849690459    -1.303933318197    -0.490902224205     1.007825032230
         H           -4.113818690459     0.442798681803    -0.471501224205     1.007825032230
         H           -3.953903890459    -0.445759818197     1.095638575795     1.007825032230

  Basis Set: AUG-CC-PVTZ
    Blend: AUG-CC-PVTZ
  Basis Set: (AUG-CC-PVTZ AUX)
    Blend: AUG-CC-PVTZ-JKFIT
	 Reference Energy          =    -417.7775314452829321 [Eh]
	 Singles Energy            =      -0.0000000000000000 [Eh]
	 Same-Spin Energy          =      -0.4576852292906644 [Eh]
	 Opposite-Spin Energy      =      -1.4478153135679719 [Eh]
	 Correlation Energy        =      -1.9055005428586362 [Eh]
	 Total Energy              =    -419.6830319881415789 [Eh]

	 ================> DF-SCS-MP2 Energies <==================
	-----------------------------------------------------------
	 SCS Same-Spin Scale       =       0.3333333333333333 [-]
	 SCS Opposite-Spin Scale   =       1.2000000000000000 [-]
	 SCS Same-Spin Energy      =      -0.1525617430968881 [Eh]
	 SCS Opposite-Spin Energy  =      -1.7373783762815662 [Eh]
	 SCS Correlation Energy    =      -1.8899401193784544 [Eh]
	 SCS Total Energy          =    -419.6674715646614118 [Eh]
	-----------------------------------------------------------

  Dipole Moment: [D]
     X:    -2.0256      Y:    -0.5698      Z:     0.0311     Total:     2.1045

*** Psi4 exiting successfully. Buy a developer a beer!
