                               Psi4 1.4a3.dev225

  ==> Input File <==

--------------------------------------------------------------------------
#psi4
#
memory 32 gb

molecule  {
0 1
  N        0.1723510    -0.9422650    -0.0110160
  N       -0.2210270     1.4224780    -0.0033780
  C        2.0395230     0.5887340     0.0077330
  C        2.8308644    -0.2330387    -0.6420606
  C        2.9437130    -0.3688660     0.7522200
  C        0.5840210     0.3414150    -0.0010850
  C       -2.0855860    -0.1066610    -0.0107410
  C       -1.1516460    -1.1458400    -0.0150190
  C       -1.5403890     1.1790090    -0.0074550
  C       -3.5664500    -0.3550010     0.0190800
  H        2.3036370     1.6413390     0.0163460
  H        3.8028480     0.0735720    -1.2571040
  H        2.4662660    -1.1861320    -1.2466910
  H        2.4535620    -1.2039700     1.2409480
  H        3.7897520     0.0554290     1.2831630
  H       -1.4774160    -2.1870700    -0.0286840
  H       -2.1879510     2.0569620    -0.0148810
  H       -3.8167460    -1.2890820    -0.4911310
  H       -4.1087150     0.4576500    -0.4717300
  H       -3.9321000    -0.4275930     1.0483980
units angstrom
no_reorient  #important for SAPT in psi4, default
symmetry c1  #important for SAPT in psi4, default
}

set PROPERTIES_ORIGIN ["COM"]
properties('MP2/aug-cc-pvtz', properties = ['dipole'])
--------------------------------------------------------------------------

    Molecular point group: c1
  Charge       = 0
  Multiplicity = 1
  Basis Set: AUG-CC-PVTZ
    Blend: AUG-CC-PVTZ
  Basis Set: (AUG-CC-PVTZ AUX)
    Blend: AUG-CC-PVTZ-JKFIT

    Orbital Energies [Eh]
    ---------------------

    Doubly Occupied:

       1A    -15.565893     2A    -15.565725     3A    -11.314612
       4A    -11.292853     5A    -11.291237     6A    -11.247259
       7A    -11.239069     8A    -11.225614     9A    -11.222749
      10A    -11.214581    11A     -1.304635    12A     -1.202932
      13A     -1.182035    14A     -1.093107    15A     -0.969460
      16A     -0.892869    17A     -0.877094    18A     -0.817311
      19A     -0.785190    20A     -0.721639    21A     -0.700222
      22A     -0.654592    23A     -0.623406    24A     -0.599440
      25A     -0.592235    26A     -0.584109    27A     -0.560320
      28A     -0.555993    29A     -0.522256    30A     -0.490641
      31A     -0.468831    32A     -0.455354    33A     -0.414759
      34A     -0.410604    35A     -0.402892    36A     -0.338023

  @DF-RHF Final Energy:  -417.73093066507460

   => Energetics <=

    Nuclear Repulsion Energy =            497.5519168634917264
    One-Electron Energy =               -1551.7666151679368340
    Two-Electron Energy =                 636.4837676393705124
    Total Energy =                       -417.7309306650746521
  Basis Set: (AUG-CC-PVTZ AUX)
    Blend: AUG-CC-PVTZ-RI
    Molecular point group: c1

    Geometry (in Angstrom), charge = 0, multiplicity = 1:

       Center              X                  Y                   Z               Mass
    ------------   -----------------  -----------------  -----------------  -----------------
         N            0.177910207971    -0.968344537607    -0.019292562226    14.003074004430
         N           -0.215467792029     1.396398462393    -0.011654562226    14.003074004430
         C            2.045082207971     0.562654462393    -0.000543562226    12.000000000000
         C            2.836423607971    -0.259118237607    -0.650337162226    12.000000000000
         C            2.949272207971    -0.394945537607     0.743943437774    12.000000000000
         C            0.589580207971     0.315335462393    -0.009361562226    12.000000000000
         C           -2.080026792029    -0.132740537607    -0.019017562226    12.000000000000
         C           -1.146086792029    -1.171919537607    -0.023295562226    12.000000000000
         C           -1.534829792029     1.152929462393    -0.015731562226    12.000000000000
         C           -3.560890792029    -0.381080537607     0.010803437774    12.000000000000
         H            2.309196207971     1.615259462393     0.008069437774     1.007825032230
         H            3.808407207971     0.047492462393    -1.265380562226     1.007825032230
         H            2.471825207971    -1.212211537607    -1.254967562226     1.007825032230
         H            2.459121207971    -1.230049537607     1.232671437774     1.007825032230
         H            3.795311207971     0.029349462393     1.274886437774     1.007825032230
         H           -1.471856792029    -2.213149537607    -0.036960562226     1.007825032230
         H           -2.182391792029     2.030882462393    -0.023157562226     1.007825032230
         H           -3.811186792029    -1.315161537607    -0.499407562226     1.007825032230
         H           -4.103155792029     0.431570462393    -0.480006562226     1.007825032230
         H           -3.926540792029    -0.453672537607     1.040121437774     1.007825032230

  Basis Set: AUG-CC-PVTZ
    Blend: AUG-CC-PVTZ
  Basis Set: (AUG-CC-PVTZ AUX)
    Blend: AUG-CC-PVTZ-JKFIT
	 Reference Energy          =    -417.7309306650745953 [Eh]
	 Singles Energy            =      -0.0000000000000000 [Eh]
	 Same-Spin Energy          =      -0.4596794067546821 [Eh]
	 Opposite-Spin Energy      =      -1.4492831213077779 [Eh]
	 Correlation Energy        =      -1.9089625280624600 [Eh]
	 Total Energy              =    -419.6398931931370271 [Eh]

	 ================> DF-SCS-MP2 Energies <==================
	-----------------------------------------------------------
	 SCS Same-Spin Scale       =       0.3333333333333333 [-]
	 SCS Opposite-Spin Scale   =       1.2000000000000000 [-]
	 SCS Same-Spin Energy      =      -0.1532264689182273 [Eh]
	 SCS Opposite-Spin Energy  =      -1.7391397455693334 [Eh]
	 SCS Correlation Energy    =      -1.8923662144875608 [Eh]
	 SCS Total Energy          =    -419.6232968795621332 [Eh]
	-----------------------------------------------------------

  Dipole Moment: [D]
     X:    -2.1871      Y:    -0.5749      Z:    -0.0107     Total:     2.2614

*** Psi4 exiting successfully. Buy a developer a beer!
