                               Psi4 1.4a3.dev225

  ==> Input File <==

--------------------------------------------------------------------------
#psi4
#
memory 32 gb

molecule  {
0 1
  N        0.1723510    -0.9422650    -0.0110160
  N       -0.2210270     1.4224780    -0.0033780
  C        2.0395230     0.5887340     0.0077330
  C        2.9514110    -0.3582210    -0.7410450
  C        2.9317598    -0.3562067     0.7423780
  C        0.5840210     0.3414150    -0.0010850
  C       -2.0855860    -0.1066610    -0.0107410
  C       -1.1516460    -1.1458400    -0.0150190
  C       -1.5403890     1.1790090    -0.0074550
  C       -3.5664500    -0.3550010     0.0190800
  H        2.3036370     1.6413390     0.0163460
  H        3.8028480     0.0735720    -1.2571040
  H        2.4662660    -1.1861320    -1.2466910
  H        2.4535620    -1.2039700     1.2409480
  H        3.7897520     0.0554290     1.2831630
  H       -1.4774160    -2.1870700    -0.0286840
  H       -2.1879510     2.0569620    -0.0148810
  H       -3.8167460    -1.2890820    -0.4911310
  H       -4.1087150     0.4576500    -0.4717300
  H       -3.9321000    -0.4275930     1.0483980
units angstrom
no_reorient  #important for SAPT in psi4, default
symmetry c1  #important for SAPT in psi4, default
}

set PROPERTIES_ORIGIN ["COM"]
properties('MP2/aug-cc-pvtz', properties = ['dipole'])
--------------------------------------------------------------------------

    Molecular point group: c1
  Charge       = 0
  Multiplicity = 1
  Basis Set: AUG-CC-PVTZ
    Blend: AUG-CC-PVTZ
  Basis Set: (AUG-CC-PVTZ AUX)
    Blend: AUG-CC-PVTZ-JKFIT

    Orbital Energies [Eh]
    ---------------------

    Doubly Occupied:

       1A    -15.564167     2A    -15.564115     3A    -11.313557
       4A    -11.291916     5A    -11.290413     6A    -11.245729
       7A    -11.238207     8A    -11.230492     9A    -11.225352
      10A    -11.224143    11A     -1.301892    12A     -1.182753
      13A     -1.151443    14A     -1.088773    15A     -0.967288
      16A     -0.891449    17A     -0.874735    18A     -0.817031
      19A     -0.796411    20A     -0.716150    21A     -0.695355
      22A     -0.646281    23A     -0.614981    24A     -0.598392
      25A     -0.591569    26A     -0.582619    27A     -0.558323
      28A     -0.555109    29A     -0.522546    30A     -0.506828
      31A     -0.472023    32A     -0.436950    33A     -0.424770
      34A     -0.414270    35A     -0.402836    36A     -0.334993

  @DF-RHF Final Energy:  -417.77912673678247

   => Energetics <=

    Nuclear Repulsion Energy =            493.9220842548126029
    One-Electron Energy =               -1544.7346942480362486
    Two-Electron Energy =                 633.0334832564412864
    Total Energy =                       -417.7791267367824730
  Basis Set: (AUG-CC-PVTZ AUX)
    Blend: AUG-CC-PVTZ-RI
    Molecular point group: c1

    Geometry (in Angstrom), charge = 0, multiplicity = 1:

       Center              X                  Y                   Z               Mass
    ------------   -----------------  -----------------  -----------------  -----------------
         N            0.168191547066    -0.958274193728    -0.009553048784    14.003074004430
         N           -0.225186452934     1.406468806272    -0.001915048784    14.003074004430
         C            2.035363547066     0.572724806272     0.009195951216    12.000000000000
         C            2.947251547066    -0.374230193728    -0.739582048784    12.000000000000
         C            2.927600347066    -0.372215893728     0.743840951216    12.000000000000
         C            0.579861547066     0.325405806272     0.000377951216    12.000000000000
         C           -2.089745452934    -0.122670193728    -0.009278048784    12.000000000000
         C           -1.155805452934    -1.161849193728    -0.013556048784    12.000000000000
         C           -1.544548452934     1.162999806272    -0.005992048784    12.000000000000
         C           -3.570609452934    -0.371010193728     0.020542951216    12.000000000000
         H            2.299477547066     1.625329806272     0.017808951216     1.007825032230
         H            3.798688547066     0.057562806272    -1.255641048784     1.007825032230
         H            2.462106547066    -1.202141193728    -1.245228048784     1.007825032230
         H            2.449402547066    -1.219979193728     1.242410951216     1.007825032230
         H            3.785592547066     0.039419806272     1.284625951216     1.007825032230
         H           -1.481575452934    -2.203079193728    -0.027221048784     1.007825032230
         H           -2.192110452934     2.040952806272    -0.013418048784     1.007825032230
         H           -3.820905452934    -1.305091193728    -0.489668048784     1.007825032230
         H           -4.112874452934     0.441640806272    -0.470267048784     1.007825032230
         H           -3.936259452934    -0.443602193728     1.049860951216     1.007825032230

  Basis Set: AUG-CC-PVTZ
    Blend: AUG-CC-PVTZ
  Basis Set: (AUG-CC-PVTZ AUX)
    Blend: AUG-CC-PVTZ-JKFIT
	 Reference Energy          =    -417.7791267367824730 [Eh]
	 Singles Energy            =      -0.0000000000000000 [Eh]
	 Same-Spin Energy          =      -0.4577904776375391 [Eh]
	 Opposite-Spin Energy      =      -1.4474647226300590 [Eh]
	 Correlation Energy        =      -1.9052552002675980 [Eh]
	 Total Energy              =    -419.6843819370500910 [Eh]

	 ================> DF-SCS-MP2 Energies <==================
	-----------------------------------------------------------
	 SCS Same-Spin Scale       =       0.3333333333333333 [-]
	 SCS Opposite-Spin Scale   =       1.2000000000000000 [-]
	 SCS Same-Spin Energy      =      -0.1525968258791797 [Eh]
	 SCS Opposite-Spin Energy  =      -1.7369576671560707 [Eh]
	 SCS Correlation Energy    =      -1.8895544930352504 [Eh]
	 SCS Total Energy          =    -419.6686812298177074 [Eh]
	-----------------------------------------------------------

  Dipole Moment: [D]
     X:    -2.0539      Y:    -0.5769      Z:     0.0562     Total:     2.1342

*** Psi4 exiting successfully. Buy a developer a beer!
