                               Psi4 1.4a3.dev225

  ==> Input File <==

--------------------------------------------------------------------------
#psi4
#
memory 32 gb

molecule  {
0 1
  N        0.1723510    -0.9422650    -0.0110160
  N       -0.2210270     1.4224780    -0.0033780
  C        2.0395230     0.5887340     0.0077330
  C        2.9514110    -0.3582210    -0.7410450
  C        2.9437130    -0.3688660     0.7522200
  C        0.5840210     0.3414150    -0.0010850
  C       -2.0403869    -0.1249051    -0.0102857
  C       -1.1516460    -1.1458400    -0.0150190
  C       -1.5403890     1.1790090    -0.0074550
  C       -3.5664500    -0.3550010     0.0190800
  H        2.3036370     1.6413390     0.0163460
  H        3.8028480     0.0735720    -1.2571040
  H        2.4662660    -1.1861320    -1.2466910
  H        2.4535620    -1.2039700     1.2409480
  H        3.7897520     0.0554290     1.2831630
  H       -1.4774160    -2.1870700    -0.0286840
  H       -2.1879510     2.0569620    -0.0148810
  H       -3.8167460    -1.2890820    -0.4911310
  H       -4.1087150     0.4576500    -0.4717300
  H       -3.9321000    -0.4275930     1.0483980
units angstrom
no_reorient  #important for SAPT in psi4, default
symmetry c1  #important for SAPT in psi4, default
}

set PROPERTIES_ORIGIN ["COM"]
properties('MP2/aug-cc-pvtz', properties = ['dipole'])
--------------------------------------------------------------------------

    Molecular point group: c1
  Charge       = 0
  Multiplicity = 1
  Basis Set: AUG-CC-PVTZ
    Blend: AUG-CC-PVTZ
  Basis Set: (AUG-CC-PVTZ AUX)
    Blend: AUG-CC-PVTZ-JKFIT

    Orbital Energies [Eh]
    ---------------------

    Doubly Occupied:

       1A    -15.564993     2A    -15.562264     3A    -11.312858
       4A    -11.292645     5A    -11.285249     6A    -11.242871
       7A    -11.239296     8A    -11.230985     9A    -11.225487
      10A    -11.224805    11A     -1.303560    12A     -1.183320
      13A     -1.147548    14A     -1.086390    15A     -0.963147
      16A     -0.896880    17A     -0.873855    18A     -0.818286
      19A     -0.797704    20A     -0.717404    21A     -0.695686
      22A     -0.646510    23A     -0.613435    24A     -0.596508
      25A     -0.588447    26A     -0.581653    27A     -0.557997
      28A     -0.556245    29A     -0.523282    30A     -0.510892
      31A     -0.466394    32A     -0.435851    33A     -0.423839
      34A     -0.414404    35A     -0.404220    36A     -0.337826

  @DF-RHF Final Energy:  -417.77752143162149

   => Energetics <=

    Nuclear Repulsion Energy =            494.0978913159794388
    One-Electron Energy =               -1545.1053525721979440
    Two-Electron Energy =                 633.2299398245969542
    Total Energy =                       -417.7775214316214942
  Basis Set: (AUG-CC-PVTZ AUX)
    Blend: AUG-CC-PVTZ-RI
    Molecular point group: c1

    Geometry (in Angstrom), charge = 0, multiplicity = 1:

       Center              X                  Y                   Z               Mass
    ------------   -----------------  -----------------  -----------------  -----------------
         N            0.163076652205    -0.955508467032    -0.010474614615    14.003074004430
         N           -0.230301347795     1.409234532968    -0.002836614615    14.003074004430
         C            2.030248652205     0.575490532968     0.008274385385    12.000000000000
         C            2.942136652205    -0.371464467032    -0.740503614615    12.000000000000
         C            2.934438652205    -0.382109467032     0.752761385385    12.000000000000
         C            0.574746652205     0.328171532968    -0.000543614615    12.000000000000
         C           -2.049661247795    -0.138148567032    -0.009744314615    12.000000000000
         C           -1.160920347795    -1.159083467032    -0.014477614615    12.000000000000
         C           -1.549663347795     1.165765532968    -0.006913614615    12.000000000000
         C           -3.575724347795    -0.368244467032     0.019621385385    12.000000000000
         H            2.294362652205     1.628095532968     0.016887385385     1.007825032230
         H            3.793573652205     0.060328532968    -1.256562614615     1.007825032230
         H            2.456991652205    -1.199375467032    -1.246149614615     1.007825032230
         H            2.444287652205    -1.217213467032     1.241489385385     1.007825032230
         H            3.780477652205     0.042185532968     1.283704385385     1.007825032230
         H           -1.486690347795    -2.200313467032    -0.028142614615     1.007825032230
         H           -2.197225347795     2.043718532968    -0.014339614615     1.007825032230
         H           -3.826020347795    -1.302325467032    -0.490589614615     1.007825032230
         H           -4.117989347795     0.444406532968    -0.471188614615     1.007825032230
         H           -3.941374347795    -0.440836467032     1.048939385385     1.007825032230

  Basis Set: AUG-CC-PVTZ
    Blend: AUG-CC-PVTZ
  Basis Set: (AUG-CC-PVTZ AUX)
    Blend: AUG-CC-PVTZ-JKFIT
	 Reference Energy          =    -417.7775214316214942 [Eh]
	 Singles Energy            =      -0.0000000000000000 [Eh]
	 Same-Spin Energy          =      -0.4574542300862147 [Eh]
	 Opposite-Spin Energy      =      -1.4472255445026212 [Eh]
	 Correlation Energy        =      -1.9046797745888360 [Eh]
	 Total Energy              =    -419.6822012062103227 [Eh]

	 ================> DF-SCS-MP2 Energies <==================
	-----------------------------------------------------------
	 SCS Same-Spin Scale       =       0.3333333333333333 [-]
	 SCS Opposite-Spin Scale   =       1.2000000000000000 [-]
	 SCS Same-Spin Energy      =      -0.1524847433620715 [Eh]
	 SCS Opposite-Spin Energy  =      -1.7366706534031453 [Eh]
	 SCS Correlation Energy    =      -1.8891553967652168 [Eh]
	 SCS Total Energy          =    -419.6666768283866986 [Eh]
	-----------------------------------------------------------

  Dipole Moment: [D]
     X:    -2.0070      Y:    -0.5180      Z:     0.0410     Total:     2.0732

*** Psi4 exiting successfully. Buy a developer a beer!
