                               Psi4 1.4a3.dev225

  ==> Input File <==

--------------------------------------------------------------------------
#psi4
#
memory 32 gb

molecule  {
0 1
  N        0.1723510    -0.9422650    -0.0110160
  N       -0.2210270     1.4224780    -0.0033780
  C        2.0395230     0.5887340     0.0077330
  C        2.9514110    -0.3582210    -0.7410450
  C        2.9437130    -0.3688660     0.7522200
  C        0.5840210     0.3414150    -0.0010850
  C       -2.0855860    -0.1066610    -0.0107410
  C       -1.1516460    -1.1458400    -0.0150190
  C       -1.5403890     1.1790090    -0.0074550
  C       -3.5664500    -0.3550010     0.0190800
  H        2.3036370     1.6413390     0.0163460
  H        3.8028480     0.0735720    -1.2571040
  H        2.4662660    -1.1861320    -1.2466910
  H        2.4535620    -1.2039700     1.2409480
  H        3.7897520     0.0554290     1.2831630
  H       -1.4774160    -2.1870700    -0.0286840
  H       -2.1879510     2.0569620    -0.0148810
  H       -3.8053000    -1.2463665    -0.4677991
  H       -4.1087150     0.4576500    -0.4717300
  H       -3.9321000    -0.4275930     1.0483980
units angstrom
no_reorient  #important for SAPT in psi4, default
symmetry c1  #important for SAPT in psi4, default
}

set PROPERTIES_ORIGIN ["COM"]
properties('MP2/aug-cc-pvtz', properties = ['dipole'])
--------------------------------------------------------------------------

    Molecular point group: c1
  Charge       = 0
  Multiplicity = 1
  Basis Set: AUG-CC-PVTZ
    Blend: AUG-CC-PVTZ
  Basis Set: (AUG-CC-PVTZ AUX)
    Blend: AUG-CC-PVTZ-JKFIT

    Orbital Energies [Eh]
    ---------------------

    Doubly Occupied:

       1A    -15.563900     2A    -15.563874     3A    -11.313373
       4A    -11.291741     5A    -11.290064     6A    -11.245229
       7A    -11.232057     8A    -11.231228     9A    -11.225774
      10A    -11.225093    11A     -1.301566    12A     -1.182412
      13A     -1.147090    14A     -1.088877    15A     -0.970115
      16A     -0.891234    17A     -0.876526    18A     -0.818569
      19A     -0.796416    20A     -0.715800    21A     -0.695241
      22A     -0.645786    23A     -0.614140    24A     -0.600466
      25A     -0.591310    26A     -0.583129    27A     -0.562248
      28A     -0.557215    29A     -0.523448    30A     -0.511027
      31A     -0.471655    32A     -0.434113    33A     -0.424174
      34A     -0.414126    35A     -0.402658    36A     -0.334273

  @DF-RHF Final Energy:  -417.77857958407270

   => Energetics <=

    Nuclear Repulsion Energy =            493.7628491567615470
    One-Electron Energy =               -1544.4109618932434387
    Two-Electron Energy =                 632.8695331524091898
    Total Energy =                       -417.7785795840726450
  Basis Set: (AUG-CC-PVTZ AUX)
    Blend: AUG-CC-PVTZ-RI
    Molecular point group: c1

    Geometry (in Angstrom), charge = 0, multiplicity = 1:

       Center              X                  Y                   Z               Mass
    ------------   -----------------  -----------------  -----------------  -----------------
         N            0.167035752900    -0.957462303223    -0.010609237830    14.003074004430
         N           -0.226342247100     1.407280696777    -0.002971237830    14.003074004430
         C            2.034207752900     0.573536696777     0.008139762170    12.000000000000
         C            2.946095752900    -0.373418303223    -0.740638237830    12.000000000000
         C            2.938397752900    -0.384063303223     0.752626762170    12.000000000000
         C            0.578705752900     0.326217696777    -0.000678237830    12.000000000000
         C           -2.090901247100    -0.121858303223    -0.010334237830    12.000000000000
         C           -1.156961247100    -1.161037303223    -0.014612237830    12.000000000000
         C           -1.545704247100     1.163811696777    -0.007048237830    12.000000000000
         C           -3.571765247100    -0.370198303223     0.019486762170    12.000000000000
         H            2.298321752900     1.626141696777     0.016752762170     1.007825032230
         H            3.797532752900     0.058374696777    -1.256697237830     1.007825032230
         H            2.460950752900    -1.201329303223    -1.246284237830     1.007825032230
         H            2.448246752900    -1.219167303223     1.241354762170     1.007825032230
         H            3.784436752900     0.040231696777     1.283569762170     1.007825032230
         H           -1.482731247100    -2.202267303223    -0.028277237830     1.007825032230
         H           -2.193266247100     2.041764696777    -0.014474237830     1.007825032230
         H           -3.810615247100    -1.261563803223    -0.467392337830     1.007825032230
         H           -4.114030247100     0.442452696777    -0.471323237830     1.007825032230
         H           -3.937415247100    -0.442790303223     1.048804762170     1.007825032230

  Basis Set: AUG-CC-PVTZ
    Blend: AUG-CC-PVTZ
  Basis Set: (AUG-CC-PVTZ AUX)
    Blend: AUG-CC-PVTZ-JKFIT
	 Reference Energy          =    -417.7785795840727019 [Eh]
	 Singles Energy            =      -0.0000000000000000 [Eh]
	 Same-Spin Energy          =      -0.4577184793588183 [Eh]
	 Opposite-Spin Energy      =      -1.4472648930337781 [Eh]
	 Correlation Energy        =      -1.9049833723925964 [Eh]
	 Total Energy              =    -419.6835629564653232 [Eh]

	 ================> DF-SCS-MP2 Energies <==================
	-----------------------------------------------------------
	 SCS Same-Spin Scale       =       0.3333333333333333 [-]
	 SCS Opposite-Spin Scale   =       1.2000000000000000 [-]
	 SCS Same-Spin Energy      =      -0.1525728264529394 [Eh]
	 SCS Opposite-Spin Energy  =      -1.7367178716405338 [Eh]
	 SCS Correlation Energy    =      -1.8892906980934732 [Eh]
	 SCS Total Energy          =    -419.6678702821661773 [Eh]
	-----------------------------------------------------------

  Dipole Moment: [D]
     X:    -2.0643      Y:    -0.5884      Z:     0.0394     Total:     2.1468

*** Psi4 exiting successfully. Buy a developer a beer!
