                               Psi4 1.4a3.dev225

  ==> Input File <==

--------------------------------------------------------------------------
#psi4
#
memory 32 gb

molecule  {
0 1
  N        0.1723510    -0.9422650    -0.0110160
  N       -0.2210270     1.4224780    -0.0033780
  C        2.0395230     0.5887340     0.0077330
  C        2.9514110    -0.3582210    -0.7410450
  C        2.9437130    -0.3688660     0.7522200
  C        0.5840210     0.3414150    -0.0010850
  C       -2.0855860    -0.1066610    -0.0107410
  C       -1.1650148    -1.1309648    -0.0149578
  C       -1.5403890     1.1790090    -0.0074550
  C       -3.5664500    -0.3550010     0.0190800
  H        2.3036370     1.6413390     0.0163460
  H        3.8028480     0.0735720    -1.2571040
  H        2.4662660    -1.1861320    -1.2466910
  H        2.4535620    -1.2039700     1.2409480
  H        3.7897520     0.0554290     1.2831630
  H       -1.4774160    -2.1870700    -0.0286840
  H       -2.1879510     2.0569620    -0.0148810
  H       -3.8167460    -1.2890820    -0.4911310
  H       -4.1087150     0.4576500    -0.4717300
  H       -3.9321000    -0.4275930     1.0483980
units angstrom
no_reorient  #important for SAPT in psi4, default
symmetry c1  #important for SAPT in psi4, default
}

set PROPERTIES_ORIGIN ["COM"]
properties('MP2/aug-cc-pvtz', properties = ['dipole'])
--------------------------------------------------------------------------

    Molecular point group: c1
  Charge       = 0
  Multiplicity = 1
  Basis Set: AUG-CC-PVTZ
    Blend: AUG-CC-PVTZ
  Basis Set: (AUG-CC-PVTZ AUX)
    Blend: AUG-CC-PVTZ-JKFIT

    Orbital Energies [Eh]
    ---------------------

    Doubly Occupied:

       1A    -15.564499     2A    -15.563964     3A    -11.313140
       4A    -11.292019     5A    -11.290483     6A    -11.244101
       7A    -11.238394     8A    -11.231143     9A    -11.225752
      10A    -11.225071    11A     -1.301160    12A     -1.180595
      13A     -1.147221    14A     -1.090842    15A     -0.967024
      16A     -0.892946    17A     -0.874776    18A     -0.818514
      19A     -0.795874    20A     -0.714965    21A     -0.694960
      22A     -0.645694    23A     -0.613762    24A     -0.599030
      25A     -0.590282    26A     -0.580554    27A     -0.558053
      28A     -0.555716    29A     -0.523000    30A     -0.511015
      31A     -0.472166    32A     -0.434595    33A     -0.424302
      34A     -0.412667    35A     -0.403808    36A     -0.336818

  @DF-RHF Final Energy:  -417.77890353481848

   => Energetics <=

    Nuclear Repulsion Energy =            493.6974124582089871
    One-Electron Energy =               -1544.2948255613573565
    Two-Electron Energy =                 632.8185095683300005
    Total Energy =                       -417.7789035348184825
  Basis Set: (AUG-CC-PVTZ AUX)
    Blend: AUG-CC-PVTZ-RI
    Molecular point group: c1

    Geometry (in Angstrom), charge = 0, multiplicity = 1:

       Center              X                  Y                   Z               Mass
    ------------   -----------------  -----------------  -----------------  -----------------
         N            0.168318237421    -0.958472507628    -0.010439344292    14.003074004430
         N           -0.225059762579     1.406270492372    -0.002801344292    14.003074004430
         C            2.035490237421     0.572526492372     0.008309655708    12.000000000000
         C            2.947378237421    -0.374428507628    -0.740468344292    12.000000000000
         C            2.939680237421    -0.385073507628     0.752796655708    12.000000000000
         C            0.579988237421     0.325207492372    -0.000508344292    12.000000000000
         C           -2.089618762579    -0.122868507628    -0.010164344292    12.000000000000
         C           -1.169047562579    -1.147172307628    -0.014381144292    12.000000000000
         C           -1.544421762579     1.162801492372    -0.006878344292    12.000000000000
         C           -3.570482762579    -0.371208507628     0.019656655708    12.000000000000
         H            2.299604237421     1.625131492372     0.016922655708     1.007825032230
         H            3.798815237421     0.057364492372    -1.256527344292     1.007825032230
         H            2.462233237421    -1.202339507628    -1.246114344292     1.007825032230
         H            2.449529237421    -1.220177507628     1.241524655708     1.007825032230
         H            3.785719237421     0.039221492372     1.283739655708     1.007825032230
         H           -1.481448762579    -2.203277507628    -0.028107344292     1.007825032230
         H           -2.191983762579     2.040754492372    -0.014304344292     1.007825032230
         H           -3.820778762579    -1.305289507628    -0.490554344292     1.007825032230
         H           -4.112747762579     0.441442492372    -0.471153344292     1.007825032230
         H           -3.936132762579    -0.443800507628     1.048974655708     1.007825032230

  Basis Set: AUG-CC-PVTZ
    Blend: AUG-CC-PVTZ
  Basis Set: (AUG-CC-PVTZ AUX)
    Blend: AUG-CC-PVTZ-JKFIT
	 Reference Energy          =    -417.7789035348184825 [Eh]
	 Singles Energy            =      -0.0000000000000000 [Eh]
	 Same-Spin Energy          =      -0.4577438059881327 [Eh]
	 Opposite-Spin Energy      =      -1.4476794476866677 [Eh]
	 Correlation Energy        =      -1.9054232536748004 [Eh]
	 Total Energy              =    -419.6843267884933084 [Eh]

	 ================> DF-SCS-MP2 Energies <==================
	-----------------------------------------------------------
	 SCS Same-Spin Scale       =       0.3333333333333333 [-]
	 SCS Opposite-Spin Scale   =       1.2000000000000000 [-]
	 SCS Same-Spin Energy      =      -0.1525812686627109 [Eh]
	 SCS Opposite-Spin Energy  =      -1.7372153372240011 [Eh]
	 SCS Correlation Energy    =      -1.8897966058867119 [Eh]
	 SCS Total Energy          =    -419.6687001407051980 [Eh]
	-----------------------------------------------------------

  Dipole Moment: [D]
     X:    -2.0506      Y:    -0.5357      Z:     0.0458     Total:     2.1199

*** Psi4 exiting successfully. Buy a developer a beer!
