                               Psi4 1.4a3.dev225

  ==> Input File <==

--------------------------------------------------------------------------
#psi4
#
memory 32 gb

molecule  {
0 1
  N        0.1723510    -0.9422650    -0.0110160
  N       -0.2210270     1.4224780    -0.0033780
  C        2.0395230     0.5887340     0.0077330
  C        2.9514110    -0.3582210    -0.7410450
  C        2.9437130    -0.3688660     0.7522200
  C        0.5840210     0.3414150    -0.0010850
  C       -2.0855860    -0.1066610    -0.0107410
  C       -1.1516460    -1.1458400    -0.0150190
  C       -1.5403890     1.1790090    -0.0074550
  C       -3.5664500    -0.3550010     0.0190800
  H        2.3036370     1.6413390     0.0163460
  H        3.8028480     0.0735720    -1.2571040
  H        2.4662660    -1.1861320    -1.2466910
  H        2.4535620    -1.2039700     1.2409480
  H        3.7897520     0.0554290     1.2831630
  H       -1.4774160    -2.1870700    -0.0286840
  H       -2.2473081     2.1374373    -0.0155617
  H       -3.8167460    -1.2890820    -0.4911310
  H       -4.1087150     0.4576500    -0.4717300
  H       -3.9321000    -0.4275930     1.0483980
units angstrom
no_reorient  #important for SAPT in psi4, default
symmetry c1  #important for SAPT in psi4, default
}

set PROPERTIES_ORIGIN ["COM"]
properties('MP2/aug-cc-pvtz', properties = ['dipole'])
--------------------------------------------------------------------------

    Molecular point group: c1
  Charge       = 0
  Multiplicity = 1
  Basis Set: AUG-CC-PVTZ
    Blend: AUG-CC-PVTZ
  Basis Set: (AUG-CC-PVTZ AUX)
    Blend: AUG-CC-PVTZ-JKFIT

    Orbital Energies [Eh]
    ---------------------

    Doubly Occupied:

       1A    -15.565276     2A    -15.564491     3A    -11.314585
       4A    -11.301447     5A    -11.292718     6A    -11.246805
       7A    -11.237982     8A    -11.231810     9A    -11.226231
      10A    -11.225549    11A     -1.302437    12A     -1.182730
      13A     -1.147545    14A     -1.087936    15A     -0.966616
      16A     -0.887075    17A     -0.874832    18A     -0.819000
      19A     -0.792138    20A     -0.715854    21A     -0.691355
      22A     -0.643663    23A     -0.613491    24A     -0.598520
      25A     -0.591188    26A     -0.569387    27A     -0.558722
      28A     -0.555026    29A     -0.522942    30A     -0.511458
      31A     -0.472445    32A     -0.434625    33A     -0.424595
      34A     -0.415008    35A     -0.402240    36A     -0.334989

  @DF-RHF Final Energy:  -417.77215243887917

   => Energetics <=

    Nuclear Repulsion Energy =            493.0375047552464594
    One-Electron Energy =               -1542.9738934227782465
    Two-Electron Energy =                 632.1642362286527259
    Total Energy =                       -417.7721524388791750
  Basis Set: (AUG-CC-PVTZ AUX)
    Blend: AUG-CC-PVTZ-RI
    Molecular point group: c1

    Geometry (in Angstrom), charge = 0, multiplicity = 1:

       Center              X                  Y                   Z               Mass
    ------------   -----------------  -----------------  -----------------  -----------------
         N            0.167567933657    -0.957746119030    -0.010428750767    14.003074004430
         N           -0.225810066343     1.406996880970    -0.002790750767    14.003074004430
         C            2.034739933657     0.573252880970     0.008320249233    12.000000000000
         C            2.946627933657    -0.373702119030    -0.740457750767    12.000000000000
         C            2.938929933657    -0.384347119030     0.752807249233    12.000000000000
         C            0.579237933657     0.325933880970    -0.000497750767    12.000000000000
         C           -2.090369066343    -0.122142119030    -0.010153750767    12.000000000000
         C           -1.156429066343    -1.161321119030    -0.014431750767    12.000000000000
         C           -1.545172066343     1.163527880970    -0.006867750767    12.000000000000
         C           -3.571233066343    -0.370482119030     0.019667249233    12.000000000000
         H            2.298853933657     1.625857880970     0.016933249233     1.007825032230
         H            3.798064933657     0.058090880970    -1.256516750767     1.007825032230
         H            2.461482933657    -1.201613119030    -1.246103750767     1.007825032230
         H            2.448778933657    -1.219451119030     1.241535249233     1.007825032230
         H            3.784968933657     0.039947880970     1.283750249233     1.007825032230
         H           -1.482199066343    -2.202551119030    -0.028096750767     1.007825032230
         H           -2.252091166343     2.121956180970    -0.014974450767     1.007825032230
         H           -3.821529066343    -1.304563119030    -0.490543750767     1.007825032230
         H           -4.113498066343     0.442168880970    -0.471142750767     1.007825032230
         H           -3.936883066343    -0.443074119030     1.048985249233     1.007825032230

  Basis Set: AUG-CC-PVTZ
    Blend: AUG-CC-PVTZ
  Basis Set: (AUG-CC-PVTZ AUX)
    Blend: AUG-CC-PVTZ-JKFIT
	 Reference Energy          =    -417.7721524388791750 [Eh]
	 Singles Energy            =      -0.0000000000000000 [Eh]
	 Same-Spin Energy          =      -0.4580316008146370 [Eh]
	 Opposite-Spin Energy      =      -1.4485474238324481 [Eh]
	 Correlation Energy        =      -1.9065790246470851 [Eh]
	 Total Energy              =    -419.6787314635262760 [Eh]

	 ================> DF-SCS-MP2 Energies <==================
	-----------------------------------------------------------
	 SCS Same-Spin Scale       =       0.3333333333333333 [-]
	 SCS Opposite-Spin Scale   =       1.2000000000000000 [-]
	 SCS Same-Spin Energy      =      -0.1526772002715457 [Eh]
	 SCS Opposite-Spin Energy  =      -1.7382569085989377 [Eh]
	 SCS Correlation Energy    =      -1.8909341088704834 [Eh]
	 SCS Total Energy          =    -419.6630865477496855 [Eh]
	-----------------------------------------------------------

  Dipole Moment: [D]
     X:    -1.9912      Y:    -0.6069      Z:     0.0466     Total:     2.0821

*** Psi4 exiting successfully. Buy a developer a beer!
