                               Psi4 1.4a3.dev225

  ==> Input File <==

--------------------------------------------------------------------------
#psi4
#
memory 32 gb

molecule  {
0 1
  N        0.1723510    -0.9422650    -0.0110160
  N       -0.2210270     1.4224780    -0.0033780
  C        2.0395230     0.5887340     0.0077330
  C        2.9514110    -0.3582210    -0.7410450
  C        2.9437130    -0.3688660     0.7522200
  C        0.5840210     0.3414150    -0.0010850
  C       -2.0855860    -0.1066610    -0.0107410
  C       -1.1516460    -1.1458400    -0.0150190
  C       -1.5403890     1.1790090    -0.0074550
  C       -3.5664500    -0.3550010     0.0190800
  H        2.3036370     1.6413390     0.0163460
  H        3.8028480     0.0735720    -1.2571040
  H        2.4662660    -1.1861320    -1.2466910
  H        2.4535620    -1.2039700     1.2409480
  H        3.7897520     0.0554290     1.2831630
  H       -1.4774160    -2.1870700    -0.0286840
  H       -2.1285939     1.9764867    -0.0142003
  H       -3.8167460    -1.2890820    -0.4911310
  H       -4.1087150     0.4576500    -0.4717300
  H       -3.9321000    -0.4275930     1.0483980
units angstrom
no_reorient  #important for SAPT in psi4, default
symmetry c1  #important for SAPT in psi4, default
}

set PROPERTIES_ORIGIN ["COM"]
properties('MP2/aug-cc-pvtz', properties = ['dipole'])
--------------------------------------------------------------------------

    Molecular point group: c1
  Charge       = 0
  Multiplicity = 1
  Basis Set: AUG-CC-PVTZ
    Blend: AUG-CC-PVTZ
  Basis Set: (AUG-CC-PVTZ AUX)
    Blend: AUG-CC-PVTZ-JKFIT

    Orbital Energies [Eh]
    ---------------------

    Doubly Occupied:

       1A    -15.563757     2A    -15.563181     3A    -11.312721
       4A    -11.291222     5A    -11.278577     6A    -11.244777
       7A    -11.238344     8A    -11.230962     9A    -11.225587
      10A    -11.224906    11A     -1.301323    12A     -1.182984
      13A     -1.146918    14A     -1.088802    15A     -0.968285
      16A     -0.898565    17A     -0.874673    18A     -0.818395
      19A     -0.802172    20A     -0.716453    21A     -0.699258
      22A     -0.648893    23A     -0.614253    24A     -0.598552
      25A     -0.596168    26A     -0.588333    27A     -0.558056
      28A     -0.555086    29A     -0.523692    30A     -0.510836
      31A     -0.471360    32A     -0.433823    33A     -0.424038
      34A     -0.413799    35A     -0.403228    36A     -0.333920

  @DF-RHF Final Energy:  -417.77399014741167

   => Energetics <=

    Nuclear Repulsion Energy =            494.1077330515328754
    One-Electron Energy =               -1545.0716468864311537
    Two-Electron Energy =                 633.1899236874866119
    Total Energy =                       -417.7739901474116095
  Basis Set: (AUG-CC-PVTZ AUX)
    Blend: AUG-CC-PVTZ-RI
    Molecular point group: c1

    Geometry (in Angstrom), charge = 0, multiplicity = 1:

       Center              X                  Y                   Z               Mass
    ------------   -----------------  -----------------  -----------------  -----------------
         N            0.166675636388    -0.956536358270    -0.010438983523    14.003074004430
         N           -0.226702363612     1.408206641730    -0.002800983523    14.003074004430
         C            2.033847636388     0.574462641730     0.008310016477    12.000000000000
         C            2.945735636388    -0.372492358270    -0.740467983523    12.000000000000
         C            2.938037636388    -0.383137358270     0.752797016477    12.000000000000
         C            0.578345636388     0.327143641730    -0.000507983523    12.000000000000
         C           -2.091261363612    -0.120932358270    -0.010163983523    12.000000000000
         C           -1.157321363612    -1.160111358270    -0.014441983523    12.000000000000
         C           -1.546064363612     1.164737641730    -0.006877983523    12.000000000000
         C           -3.572125363612    -0.369272358270     0.019657016477    12.000000000000
         H            2.297961636388     1.627067641730     0.016923016477     1.007825032230
         H            3.797172636388     0.059300641730    -1.256526983523     1.007825032230
         H            2.460590636388    -1.200403358270    -1.246113983523     1.007825032230
         H            2.447886636388    -1.218241358270     1.241525016477     1.007825032230
         H            3.784076636388     0.041157641730     1.283740016477     1.007825032230
         H           -1.483091363612    -2.201341358270    -0.028106983523     1.007825032230
         H           -2.134269263612     1.962215341730    -0.013623283523     1.007825032230
         H           -3.822421363612    -1.303353358270    -0.490553983523     1.007825032230
         H           -4.114390363612     0.443378641730    -0.471152983523     1.007825032230
         H           -3.937775363612    -0.441864358270     1.048975016477     1.007825032230

  Basis Set: AUG-CC-PVTZ
    Blend: AUG-CC-PVTZ
  Basis Set: (AUG-CC-PVTZ AUX)
    Blend: AUG-CC-PVTZ-JKFIT
	 Reference Energy          =    -417.7739901474116664 [Eh]
	 Singles Energy            =      -0.0000000000000000 [Eh]
	 Same-Spin Energy          =      -0.4574956161503068 [Eh]
	 Opposite-Spin Energy      =      -1.4469440824330331 [Eh]
	 Correlation Energy        =      -1.9044396985833398 [Eh]
	 Total Energy              =    -419.6784298459950264 [Eh]

	 ================> DF-SCS-MP2 Energies <==================
	-----------------------------------------------------------
	 SCS Same-Spin Scale       =       0.3333333333333333 [-]
	 SCS Opposite-Spin Scale   =       1.2000000000000000 [-]
	 SCS Same-Spin Energy      =      -0.1524985387167689 [Eh]
	 SCS Opposite-Spin Energy  =      -1.7363328989196396 [Eh]
	 SCS Correlation Energy    =      -1.8888314376364086 [Eh]
	 SCS Total Energy          =    -419.6628215850480501 [Eh]
	-----------------------------------------------------------

  Dipole Moment: [D]
     X:    -2.0878      Y:    -0.5565      Z:     0.0460     Total:     2.1611

*** Psi4 exiting successfully. Buy a developer a beer!
