                               Psi4 1.4a3.dev225

  ==> Input File <==

--------------------------------------------------------------------------
#psi4
#
memory 32 gb

molecule  {
0 1
  N        0.1723510    -0.9422650    -0.0110160
  N       -0.2210270     1.4224780    -0.0033780
  C        2.0395230     0.5887340     0.0077330
  C        2.9514110    -0.3582210    -0.7410450
  C        2.9437130    -0.3688660     0.7522200
  C        0.5840210     0.3414150    -0.0010850
  C       -2.0855860    -0.1066610    -0.0107410
  C       -1.1516460    -1.1458400    -0.0150190
  C       -1.5403890     1.1790090    -0.0074550
  C       -3.5664500    -0.3550010     0.0190800
  H        2.3036370     1.6413390     0.0163460
  H        3.8028480     0.0735720    -1.2571040
  H        2.4662660    -1.1861320    -1.2466910
  H        2.4535620    -1.2039700     1.2409480
  H        3.7897520     0.0554290     1.2831630
  H       -1.4774160    -2.1870700    -0.0286840
  H       -2.2176295     2.0971996    -0.0152213
  H       -3.8167460    -1.2890820    -0.4911310
  H       -4.1087150     0.4576500    -0.4717300
  H       -3.9321000    -0.4275930     1.0483980
units angstrom
no_reorient  #important for SAPT in psi4, default
symmetry c1  #important for SAPT in psi4, default
}

set PROPERTIES_ORIGIN ["COM"]
properties('MP2/aug-cc-pvtz', properties = ['dipole'])
--------------------------------------------------------------------------

    Molecular point group: c1
  Charge       = 0
  Multiplicity = 1
  Basis Set: AUG-CC-PVTZ
    Blend: AUG-CC-PVTZ
  Basis Set: (AUG-CC-PVTZ AUX)
    Blend: AUG-CC-PVTZ-JKFIT

    Orbital Energies [Eh]
    ---------------------

    Doubly Occupied:

       1A    -15.564621     2A    -15.564224     3A    -11.314034
       4A    -11.296020     5A    -11.292263     6A    -11.246170
       7A    -11.238060     8A    -11.231554     9A    -11.226034
      10A    -11.225352    11A     -1.302046    12A     -1.182588
      13A     -1.147332    14A     -1.087981    15A     -0.966799
      16A     -0.888915    17A     -0.874769    18A     -0.818814
      19A     -0.794117    20A     -0.715773    21A     -0.692916
      22A     -0.644680    23A     -0.613510    24A     -0.598410
      25A     -0.591177    26A     -0.576359    27A     -0.558518
      28A     -0.555036    29A     -0.523283    30A     -0.511265
      31A     -0.472111    32A     -0.434374    33A     -0.424421
      34A     -0.414615    35A     -0.402515    36A     -0.334655

  @DF-RHF Final Energy:  -417.77705442315556

   => Energetics <=

    Nuclear Repulsion Energy =            493.2831075952690867
    One-Electron Energy =               -1543.4697069158880822
    Two-Electron Energy =                 632.4095448974635474
    Total Energy =                       -417.7770544231555050
  Basis Set: (AUG-CC-PVTZ AUX)
    Blend: AUG-CC-PVTZ-RI
    Molecular point group: c1

    Geometry (in Angstrom), charge = 0, multiplicity = 1:

       Center              X                  Y                   Z               Mass
    ------------   -----------------  -----------------  -----------------  -----------------
         N            0.167344858964    -0.957443678464    -0.010431309332    14.003074004430
         N           -0.226033141036     1.407299321536    -0.002793309332    14.003074004430
         C            2.034516858964     0.573555321536     0.008317690668    12.000000000000
         C            2.946404858964    -0.373399678464    -0.740460309332    12.000000000000
         C            2.938706858964    -0.384044678464     0.752804690668    12.000000000000
         C            0.579014858964     0.326236321536    -0.000500309332    12.000000000000
         C           -2.090592141036    -0.121839678464    -0.010156309332    12.000000000000
         C           -1.156652141036    -1.161018678464    -0.014434309332    12.000000000000
         C           -1.545395141036     1.163830321536    -0.006870309332    12.000000000000
         C           -3.571456141036    -0.370179678464     0.019664690668    12.000000000000
         H            2.298630858964     1.626160321536     0.016930690668     1.007825032230
         H            3.797841858964     0.058393321536    -1.256519309332     1.007825032230
         H            2.461259858964    -1.201310678464    -1.246106309332     1.007825032230
         H            2.448555858964    -1.219148678464     1.241532690668     1.007825032230
         H            3.784745858964     0.040250321536     1.283747690668     1.007825032230
         H           -1.482422141036    -2.202248678464    -0.028099309332     1.007825032230
         H           -2.222635641036     2.082020921536    -0.014636609332     1.007825032230
         H           -3.821752141036    -1.304260678464    -0.490546309332     1.007825032230
         H           -4.113721141036     0.442471321536    -0.471145309332     1.007825032230
         H           -3.937106141036    -0.442771678464     1.048982690668     1.007825032230

  Basis Set: AUG-CC-PVTZ
    Blend: AUG-CC-PVTZ
  Basis Set: (AUG-CC-PVTZ AUX)
    Blend: AUG-CC-PVTZ-JKFIT
	 Reference Energy          =    -417.7770544231555618 [Eh]
	 Singles Energy            =      -0.0000000000000000 [Eh]
	 Same-Spin Energy          =      -0.4578599196051469 [Eh]
	 Opposite-Spin Energy      =      -1.4479934996962420 [Eh]
	 Correlation Energy        =      -1.9058534193013890 [Eh]
	 Total Energy              =    -419.6829078424569275 [Eh]

	 ================> DF-SCS-MP2 Energies <==================
	-----------------------------------------------------------
	 SCS Same-Spin Scale       =       0.3333333333333333 [-]
	 SCS Opposite-Spin Scale   =       1.2000000000000000 [-]
	 SCS Same-Spin Energy      =      -0.1526199732017156 [Eh]
	 SCS Opposite-Spin Energy  =      -1.7375921996354904 [Eh]
	 SCS Correlation Energy    =      -1.8902121728372061 [Eh]
	 SCS Total Energy          =    -419.6672665959927713 [Eh]
	-----------------------------------------------------------

  Dipole Moment: [D]
     X:    -2.0213      Y:    -0.5878      Z:     0.0464     Total:     2.1055

*** Psi4 exiting successfully. Buy a developer a beer!
