                               Psi4 1.4a3.dev225

  ==> Input File <==

--------------------------------------------------------------------------
#psi4
#
memory 32 gb

molecule  {
0 1
  N        0.1723510    -0.9422650    -0.0110160
  N       -0.2210270     1.4224780    -0.0033780
  C        2.0395230     0.5887340     0.0077330
  C        2.9514110    -0.3582210    -0.7410450
  C        2.9437130    -0.3688660     0.7522200
  C        0.5840210     0.3414150    -0.0010850
  C       -2.0855860    -0.1066610    -0.0107410
  C       -1.1516460    -1.1458400    -0.0150190
  C       -1.5403890     1.1790090    -0.0074550
  C       -3.5664500    -0.3550010     0.0190800
  H        2.3036370     1.6413390     0.0163460
  H        3.8028480     0.0735720    -1.2571040
  H        2.4662660    -1.1861320    -1.2466910
  H        2.4535620    -1.2039700     1.2409480
  H        3.7897520     0.0554290     1.2831630
  H       -1.4774160    -2.1870700    -0.0286840
  H       -2.1879510     2.0569620    -0.0148810
  H       -3.8086118    -1.2823779    -0.5070383
  H       -4.1087150     0.4576500    -0.4717300
  H       -3.9321000    -0.4275930     1.0483980
units angstrom
no_reorient  #important for SAPT in psi4, default
symmetry c1  #important for SAPT in psi4, default
}

set PROPERTIES_ORIGIN ["COM"]
properties('MP2/aug-cc-pvtz', properties = ['dipole'])
--------------------------------------------------------------------------

    Molecular point group: c1
  Charge       = 0
  Multiplicity = 1
  Basis Set: AUG-CC-PVTZ
    Blend: AUG-CC-PVTZ
  Basis Set: (AUG-CC-PVTZ AUX)
    Blend: AUG-CC-PVTZ-JKFIT

    Orbital Energies [Eh]
    ---------------------

    Doubly Occupied:

       1A    -15.564012     2A    -15.563989     3A    -11.313519
       4A    -11.291843     5A    -11.290285     6A    -11.245477
       7A    -11.238150     8A    -11.231316     9A    -11.225852
      10A    -11.225171    11A     -1.301699    12A     -1.182542
      13A     -1.147148    14A     -1.088165    15A     -0.967107
      16A     -0.891343    17A     -0.874600    18A     -0.818643
      19A     -0.796420    20A     -0.715810    21A     -0.694684
      22A     -0.645900    23A     -0.613449    24A     -0.599239
      25A     -0.591343    26A     -0.582343    27A     -0.558972
      28A     -0.554129    29A     -0.523455    30A     -0.511102
      31A     -0.471715    32A     -0.434189    33A     -0.424256
      34A     -0.414255    35A     -0.402707    36A     -0.334412

  @DF-RHF Final Energy:  -417.77951964522077

   => Energetics <=

    Nuclear Repulsion Energy =            493.5572364939217778
    One-Electron Energy =               -1544.0150291211643889
    Two-Electron Energy =                 632.6782729820220084
    Total Energy =                       -417.7795196452207165
  Basis Set: (AUG-CC-PVTZ AUX)
    Blend: AUG-CC-PVTZ-RI
    Molecular point group: c1

    Geometry (in Angstrom), charge = 0, multiplicity = 1:

       Center              X                  Y                   Z               Mass
    ------------   -----------------  -----------------  -----------------  -----------------
         N            0.167060645543    -0.957191629000    -0.010314302338    14.003074004430
         N           -0.226317354457     1.407551371000    -0.002676302338    14.003074004430
         C            2.034232645543     0.573807371000     0.008434697662    12.000000000000
         C            2.946120645543    -0.373147629000    -0.740343302338    12.000000000000
         C            2.938422645543    -0.383792629000     0.752921697662    12.000000000000
         C            0.578730645543     0.326488371000    -0.000383302338    12.000000000000
         C           -2.090876354457    -0.121587629000    -0.010039302338    12.000000000000
         C           -1.156936354457    -1.160766629000    -0.014317302338    12.000000000000
         C           -1.545679354457     1.164082371000    -0.006753302338    12.000000000000
         C           -3.571740354457    -0.369927629000     0.019781697662    12.000000000000
         H            2.298346645543     1.626412371000     0.017047697662     1.007825032230
         H            3.797557645543     0.058645371000    -1.256402302338     1.007825032230
         H            2.460975645543    -1.201058629000    -1.245989302338     1.007825032230
         H            2.448271645543    -1.218896629000     1.241649697662     1.007825032230
         H            3.784461645543     0.040502371000     1.283864697662     1.007825032230
         H           -1.482706354457    -2.201996629000    -0.027982302338     1.007825032230
         H           -2.193241354457     2.042035371000    -0.014179302338     1.007825032230
         H           -3.813902154457    -1.297304529000    -0.506336602338     1.007825032230
         H           -4.114005354457     0.442723371000    -0.471028302338     1.007825032230
         H           -3.937390354457    -0.442519629000     1.049099697662     1.007825032230

  Basis Set: AUG-CC-PVTZ
    Blend: AUG-CC-PVTZ
  Basis Set: (AUG-CC-PVTZ AUX)
    Blend: AUG-CC-PVTZ-JKFIT
	 Reference Energy          =    -417.7795196452207733 [Eh]
	 Singles Energy            =      -0.0000000000000000 [Eh]
	 Same-Spin Energy          =      -0.4577141642570366 [Eh]
	 Opposite-Spin Energy      =      -1.4475480304280919 [Eh]
	 Correlation Energy        =      -1.9052621946851285 [Eh]
	 Total Energy              =    -419.6847818399058951 [Eh]

	 ================> DF-SCS-MP2 Energies <==================
	-----------------------------------------------------------
	 SCS Same-Spin Scale       =       0.3333333333333333 [-]
	 SCS Opposite-Spin Scale   =       1.2000000000000000 [-]
	 SCS Same-Spin Energy      =      -0.1525713880856789 [Eh]
	 SCS Opposite-Spin Energy  =      -1.7370576365137103 [Eh]
	 SCS Correlation Energy    =      -1.8896290245993892 [Eh]
	 SCS Total Energy          =    -419.6691486698201743 [Eh]
	-----------------------------------------------------------

  Dipole Moment: [D]
     X:    -2.0459      Y:    -0.5691      Z:     0.0414     Total:     2.1240

*** Psi4 exiting successfully. Buy a developer a beer!
