                               Psi4 1.4a3.dev225

  ==> Input File <==

--------------------------------------------------------------------------
#psi4
#
memory 32 gb

molecule  {
0 1
  N        0.1723510    -0.9422650    -0.0110160
  N       -0.2210270     1.4224780    -0.0033780
  C        2.0395230     0.5887340     0.0077330
  C        2.9514110    -0.3582210    -0.7410450
  C        2.9437130    -0.3688660     0.7522200
  C        0.5840210     0.3414150    -0.0010850
  C       -2.0855860    -0.1066610    -0.0107410
  C       -1.1516460    -1.1458400    -0.0150190
  C       -1.5403890     1.1790090    -0.0074550
  C       -3.5664500    -0.3550010     0.0190800
  H        2.3036370     1.6413390     0.0163460
  H        3.8028480     0.0735720    -1.2571040
  H        2.4662660    -1.1861320    -1.2466910
  H        2.4761565    -1.1654741     1.2184191
  H        3.7897520     0.0554290     1.2831630
  H       -1.4774160    -2.1870700    -0.0286840
  H       -2.1879510     2.0569620    -0.0148810
  H       -3.8167460    -1.2890820    -0.4911310
  H       -4.1087150     0.4576500    -0.4717300
  H       -3.9321000    -0.4275930     1.0483980
units angstrom
no_reorient  #important for SAPT in psi4, default
symmetry c1  #important for SAPT in psi4, default
}

set PROPERTIES_ORIGIN ["COM"]
properties('MP2/aug-cc-pvtz', properties = ['dipole'])
--------------------------------------------------------------------------

    Molecular point group: c1
  Charge       = 0
  Multiplicity = 1
  Basis Set: AUG-CC-PVTZ
    Blend: AUG-CC-PVTZ
  Basis Set: (AUG-CC-PVTZ AUX)
    Blend: AUG-CC-PVTZ-JKFIT

    Orbital Energies [Eh]
    ---------------------

    Doubly Occupied:

       1A    -15.564031     2A    -15.563996     3A    -11.313511
       4A    -11.291880     5A    -11.290381     6A    -11.245599
       7A    -11.238140     8A    -11.231025     9A    -11.225259
      10A    -11.219943    11A     -1.301728    12A     -1.182583
      13A     -1.147733    14A     -1.088250    15A     -0.967228
      16A     -0.891413    17A     -0.875038    18A     -0.823681
      19A     -0.797075    20A     -0.716400    21A     -0.696310
      22A     -0.646119    23A     -0.615849    24A     -0.598332
      25A     -0.591689    26A     -0.582470    27A     -0.558315
      28A     -0.555042    29A     -0.525445    30A     -0.514610
      31A     -0.471796    32A     -0.434471    33A     -0.424090
      34A     -0.414396    35A     -0.402807    36A     -0.334278

  @DF-RHF Final Energy:  -417.77868665162242

   => Energetics <=

    Nuclear Repulsion Energy =            493.7522559426612929
    One-Electron Energy =               -1544.3800602757276010
    Two-Electron Energy =                 632.8491176814437722
    Total Energy =                       -417.7786866516224791
  Basis Set: (AUG-CC-PVTZ AUX)
    Blend: AUG-CC-PVTZ-RI
    Molecular point group: c1

    Geometry (in Angstrom), charge = 0, multiplicity = 1:

       Center              X                  Y                   Z               Mass
    ------------   -----------------  -----------------  -----------------  -----------------
         N            0.166951956892    -0.957430587240    -0.010264532087    14.003074004430
         N           -0.226426043108     1.407312412760    -0.002626532087    14.003074004430
         C            2.034123956892     0.573568412760     0.008484467913    12.000000000000
         C            2.946011956892    -0.373386587240    -0.740293532087    12.000000000000
         C            2.938313956892    -0.384031587240     0.752971467913    12.000000000000
         C            0.578621956892     0.326249412760    -0.000333532087    12.000000000000
         C           -2.090985043108    -0.121826587240    -0.009989532087    12.000000000000
         C           -1.157045043108    -1.161005587240    -0.014267532087    12.000000000000
         C           -1.545788043108     1.163843412760    -0.006703532087    12.000000000000
         C           -3.571849043108    -0.370166587240     0.019831467913    12.000000000000
         H            2.298237956892     1.626173412760     0.017097467913     1.007825032230
         H            3.797448956892     0.058406412760    -1.256352532087     1.007825032230
         H            2.460866956892    -1.201297587240    -1.245939532087     1.007825032230
         H            2.470757456892    -1.180639687240     1.219170567913     1.007825032230
         H            3.784352956892     0.040263412760     1.283914467913     1.007825032230
         H           -1.482815043108    -2.202235587240    -0.027932532087     1.007825032230
         H           -2.193350043108     2.041796412760    -0.014129532087     1.007825032230
         H           -3.822145043108    -1.304247587240    -0.490379532087     1.007825032230
         H           -4.114114043108     0.442484412760    -0.470978532087     1.007825032230
         H           -3.937499043108    -0.442758587240     1.049149467913     1.007825032230

  Basis Set: AUG-CC-PVTZ
    Blend: AUG-CC-PVTZ
  Basis Set: (AUG-CC-PVTZ AUX)
    Blend: AUG-CC-PVTZ-JKFIT
	 Reference Energy          =    -417.7786866516224222 [Eh]
	 Singles Energy            =      -0.0000000000000000 [Eh]
	 Same-Spin Energy          =      -0.4576335411918975 [Eh]
	 Opposite-Spin Energy      =      -1.4472443896371843 [Eh]
	 Correlation Energy        =      -1.9048779308290817 [Eh]
	 Total Energy              =    -419.6835645824514813 [Eh]

	 ================> DF-SCS-MP2 Energies <==================
	-----------------------------------------------------------
	 SCS Same-Spin Scale       =       0.3333333333333333 [-]
	 SCS Opposite-Spin Scale   =       1.2000000000000000 [-]
	 SCS Same-Spin Energy      =      -0.1525445137306325 [Eh]
	 SCS Opposite-Spin Energy  =      -1.7366932675646212 [Eh]
	 SCS Correlation Energy    =      -1.8892377812952537 [Eh]
	 SCS Total Energy          =    -419.6679244329176868 [Eh]
	-----------------------------------------------------------

  Dipole Moment: [D]
     X:    -2.0442      Y:    -0.5771      Z:     0.0562     Total:     2.1249

*** Psi4 exiting successfully. Buy a developer a beer!
