                               Psi4 1.4a3.dev225

  ==> Input File <==

--------------------------------------------------------------------------
#psi4
#
memory 32 gb

molecule  {
0 1
  N        0.1723510    -0.9422650    -0.0110160
  N       -0.2210270     1.4224780    -0.0033780
  C        2.0395230     0.5887340     0.0077330
  C        2.8911377    -0.2956299    -0.6915528
  C        2.9437130    -0.3688660     0.7522200
  C        0.5840210     0.3414150    -0.0010850
  C       -2.0855860    -0.1066610    -0.0107410
  C       -1.1516460    -1.1458400    -0.0150190
  C       -1.5403890     1.1790090    -0.0074550
  C       -3.5664500    -0.3550010     0.0190800
  H        2.3036370     1.6413390     0.0163460
  H        3.8028480     0.0735720    -1.2571040
  H        2.4662660    -1.1861320    -1.2466910
  H        2.4535620    -1.2039700     1.2409480
  H        3.7897520     0.0554290     1.2831630
  H       -1.4774160    -2.1870700    -0.0286840
  H       -2.1879510     2.0569620    -0.0148810
  H       -3.8167460    -1.2890820    -0.4911310
  H       -4.1087150     0.4576500    -0.4717300
  H       -3.9321000    -0.4275930     1.0483980
units angstrom
no_reorient  #important for SAPT in psi4, default
symmetry c1  #important for SAPT in psi4, default
}

set PROPERTIES_ORIGIN ["COM"]
properties('MP2/aug-cc-pvtz', properties = ['dipole'])
--------------------------------------------------------------------------

    Molecular point group: c1
  Charge       = 0
  Multiplicity = 1
  Basis Set: AUG-CC-PVTZ
    Blend: AUG-CC-PVTZ
  Basis Set: (AUG-CC-PVTZ AUX)
    Blend: AUG-CC-PVTZ-JKFIT

    Orbital Energies [Eh]
    ---------------------

    Doubly Occupied:

       1A    -15.564762     2A    -15.564667     3A    -11.313801
       4A    -11.292225     5A    -11.290673     6A    -11.246281
       7A    -11.238511     8A    -11.227216     9A    -11.224636
      10A    -11.219524    11A     -1.302781    12A     -1.184401
      13A     -1.170158    14A     -1.090932    15A     -0.968109
      16A     -0.891908    17A     -0.875250    18A     -0.813638
      19A     -0.793803    20A     -0.717965    21A     -0.697743
      22A     -0.649119    23A     -0.619372    24A     -0.598751
      25A     -0.591688    26A     -0.583188    27A     -0.558798
      28A     -0.555418    29A     -0.521440    30A     -0.487073
      31A     -0.473325    32A     -0.454217    33A     -0.420137
      34A     -0.414219    35A     -0.403071    36A     -0.336881

  @DF-RHF Final Energy:  -417.76855140636508

   => Energetics <=

    Nuclear Repulsion Energy =            495.4851399343901335
    One-Electron Energy =               -1547.7960239888723208
    Two-Electron Energy =                 634.5423326481170534
    Total Energy =                       -417.7685514063650771
  Basis Set: (AUG-CC-PVTZ AUX)
    Blend: AUG-CC-PVTZ-RI
    Molecular point group: c1

    Geometry (in Angstrom), charge = 0, multiplicity = 1:

       Center              X                  Y                   Z               Mass
    ------------   -----------------  -----------------  -----------------  -----------------
         N            0.172515996497    -0.962742883653    -0.014863214686    14.003074004430
         N           -0.220862003503     1.402000116347    -0.007225214686    14.003074004430
         C            2.039687996497     0.568256116347     0.003885785314    12.000000000000
         C            2.891302696497    -0.316107783653    -0.695400014686    12.000000000000
         C            2.943877996497    -0.389343883653     0.748372785314    12.000000000000
         C            0.584185996497     0.320937116347    -0.004932214686    12.000000000000
         C           -2.085421003503    -0.127138883653    -0.014588214686    12.000000000000
         C           -1.151481003503    -1.166317883653    -0.018866214686    12.000000000000
         C           -1.540224003503     1.158531116347    -0.011302214686    12.000000000000
         C           -3.566285003503    -0.375478883653     0.015232785314    12.000000000000
         H            2.303801996497     1.620861116347     0.012498785314     1.007825032230
         H            3.803012996497     0.053094116347    -1.260951214686     1.007825032230
         H            2.466430996497    -1.206609883653    -1.250538214686     1.007825032230
         H            2.453726996497    -1.224447883653     1.237100785314     1.007825032230
         H            3.789916996497     0.034951116347     1.279315785314     1.007825032230
         H           -1.477251003503    -2.207547883653    -0.032531214686     1.007825032230
         H           -2.187786003503     2.036484116347    -0.018728214686     1.007825032230
         H           -3.816581003503    -1.309559883653    -0.494978214686     1.007825032230
         H           -4.108550003503     0.437172116347    -0.475577214686     1.007825032230
         H           -3.931935003503    -0.448070883653     1.044550785314     1.007825032230

  Basis Set: AUG-CC-PVTZ
    Blend: AUG-CC-PVTZ
  Basis Set: (AUG-CC-PVTZ AUX)
    Blend: AUG-CC-PVTZ-JKFIT
	 Reference Energy          =    -417.7685514063650771 [Eh]
	 Singles Energy            =      -0.0000000000000000 [Eh]
	 Same-Spin Energy          =      -0.4583557954575406 [Eh]
	 Opposite-Spin Energy      =      -1.4477158163932513 [Eh]
	 Correlation Energy        =      -1.9060716118507919 [Eh]
	 Total Energy              =    -419.6746230182158683 [Eh]

	 ================> DF-SCS-MP2 Energies <==================
	-----------------------------------------------------------
	 SCS Same-Spin Scale       =       0.3333333333333333 [-]
	 SCS Opposite-Spin Scale   =       1.2000000000000000 [-]
	 SCS Same-Spin Energy      =      -0.1527852651525135 [Eh]
	 SCS Opposite-Spin Energy  =      -1.7372589796719016 [Eh]
	 SCS Correlation Energy    =      -1.8900442448244150 [Eh]
	 SCS Total Energy          =    -419.6585956511895006 [Eh]
	-----------------------------------------------------------

  Dipole Moment: [D]
     X:    -2.0960      Y:    -0.5840      Z:     0.0047     Total:     2.1758

*** Psi4 exiting successfully. Buy a developer a beer!
