                               Psi4 1.4a3.dev225

  ==> Input File <==

--------------------------------------------------------------------------
#psi4
#
memory 32 gb

molecule  {
0 1
  N        0.1723510    -0.9422650    -0.0110160
  N       -0.2210270     1.4224780    -0.0033780
  C        2.0395230     0.5887340     0.0077330
  C        2.9514110    -0.3582210    -0.7410450
  C        2.9437130    -0.3688660     0.7522200
  C        0.5840210     0.3414150    -0.0010850
  C       -2.2169818    -0.0426287    -0.0120806
  C       -1.1516460    -1.1458400    -0.0150190
  C       -1.5403890     1.1790090    -0.0074550
  C       -3.5664500    -0.3550010     0.0190800
  H        2.3036370     1.6413390     0.0163460
  H        3.8028480     0.0735720    -1.2571040
  H        2.4662660    -1.1861320    -1.2466910
  H        2.4535620    -1.2039700     1.2409480
  H        3.7897520     0.0554290     1.2831630
  H       -1.4774160    -2.1870700    -0.0286840
  H       -2.1879510     2.0569620    -0.0148810
  H       -3.8167460    -1.2890820    -0.4911310
  H       -4.1087150     0.4576500    -0.4717300
  H       -3.9321000    -0.4275930     1.0483980
units angstrom
no_reorient  #important for SAPT in psi4, default
symmetry c1  #important for SAPT in psi4, default
}

set PROPERTIES_ORIGIN ["COM"]
properties('MP2/aug-cc-pvtz', properties = ['dipole'])
--------------------------------------------------------------------------

    Molecular point group: c1
  Charge       = 0
  Multiplicity = 1
  Basis Set: AUG-CC-PVTZ
    Blend: AUG-CC-PVTZ
  Basis Set: (AUG-CC-PVTZ AUX)
    Blend: AUG-CC-PVTZ-JKFIT

    Orbital Energies [Eh]
    ---------------------

    Doubly Occupied:

       1A    -15.568836     2A    -15.561527     3A    -11.315407
       4A    -11.308074     5A    -11.284500     6A    -11.253903
       7A    -11.234293     8A    -11.232326     9A    -11.226927
      10A    -11.226246    11A     -1.297766    12A     -1.181314
      13A     -1.146779    14A     -1.100033    15A     -0.977103
      16A     -0.884821    17A     -0.869245    18A     -0.819686
      19A     -0.791218    20A     -0.712050    21A     -0.692327
      22A     -0.645483    23A     -0.630013    24A     -0.609088
      25A     -0.605005    26A     -0.577055    27A     -0.558795
      28A     -0.539518    29A     -0.523334    30A     -0.511724
      31A     -0.479622    32A     -0.430477    33A     -0.425130
      34A     -0.415099    35A     -0.394734    36A     -0.323399

  @DF-RHF Final Energy:  -417.75028515035365

   => Energetics <=

    Nuclear Repulsion Energy =            492.1422501792137041
    One-Electron Energy =               -1541.0793585712219738
    Two-Electron Energy =                 631.1868232416545652
    Total Energy =                       -417.7502851503536476
  Basis Set: (AUG-CC-PVTZ AUX)
    Blend: AUG-CC-PVTZ-RI
    Molecular point group: c1

    Geometry (in Angstrom), charge = 0, multiplicity = 1:

       Center              X                  Y                   Z               Mass
    ------------   -----------------  -----------------  -----------------  -----------------
         N            0.178881166573    -0.962871865103    -0.010313978476    14.003074004430
         N           -0.214496833427     1.401871134897    -0.002675978476    14.003074004430
         C            2.046053166573     0.568127134897     0.008435021524    12.000000000000
         C            2.957941166573    -0.378827865103    -0.740342978476    12.000000000000
         C            2.950243166573    -0.389472865103     0.752922021524    12.000000000000
         C            0.590551166573     0.320808134897    -0.000382978476    12.000000000000
         C           -2.210451633427    -0.063235565103    -0.011378578476    12.000000000000
         C           -1.145115833427    -1.166446865103    -0.014316978476    12.000000000000
         C           -1.533858833427     1.158402134897    -0.006752978476    12.000000000000
         C           -3.559919833427    -0.375607865103     0.019782021524    12.000000000000
         H            2.310167166573     1.620732134897     0.017048021524     1.007825032230
         H            3.809378166573     0.052965134897    -1.256401978476     1.007825032230
         H            2.472796166573    -1.206738865103    -1.245988978476     1.007825032230
         H            2.460092166573    -1.224576865103     1.241650021524     1.007825032230
         H            3.796282166573     0.034822134897     1.283865021524     1.007825032230
         H           -1.470885833427    -2.207676865103    -0.027981978476     1.007825032230
         H           -2.181420833427     2.036355134897    -0.014178978476     1.007825032230
         H           -3.810215833427    -1.309688865103    -0.490428978476     1.007825032230
         H           -4.102184833427     0.437043134897    -0.471027978476     1.007825032230
         H           -3.925569833427    -0.448199865103     1.049100021524     1.007825032230

  Basis Set: AUG-CC-PVTZ
    Blend: AUG-CC-PVTZ
  Basis Set: (AUG-CC-PVTZ AUX)
    Blend: AUG-CC-PVTZ-JKFIT
	 Reference Energy          =    -417.7502851503536476 [Eh]
	 Singles Energy            =      -0.0000000000000000 [Eh]
	 Same-Spin Energy          =      -0.4593125315789500 [Eh]
	 Opposite-Spin Energy      =      -1.4505928997807436 [Eh]
	 Correlation Energy        =      -1.9099054313596935 [Eh]
	 Total Energy              =    -419.6601905817133229 [Eh]

	 ================> DF-SCS-MP2 Energies <==================
	-----------------------------------------------------------
	 SCS Same-Spin Scale       =       0.3333333333333333 [-]
	 SCS Opposite-Spin Scale   =       1.2000000000000000 [-]
	 SCS Same-Spin Energy      =      -0.1531041771929833 [Eh]
	 SCS Opposite-Spin Energy  =      -1.7407114797368923 [Eh]
	 SCS Correlation Energy    =      -1.8938156569298756 [Eh]
	 SCS Total Energy          =    -419.6441008072835075 [Eh]
	-----------------------------------------------------------

  Dipole Moment: [D]
     X:    -2.1688      Y:    -0.7526      Z:     0.0651     Total:     2.2965

*** Psi4 exiting successfully. Buy a developer a beer!
