                               Psi4 1.4a3.dev225

  ==> Input File <==

--------------------------------------------------------------------------
#psi4
#
memory 32 gb

molecule  {
0 1
  N        0.1723510    -0.9422650    -0.0110160
  N       -0.2210270     1.4224780    -0.0033780
  C        2.0395230     0.5887340     0.0077330
  C        2.9514110    -0.3582210    -0.7410450
  C        2.9437130    -0.3688660     0.7522200
  C        0.5840210     0.3414150    -0.0010850
  C       -2.0855860    -0.1066610    -0.0107410
  C       -1.1516460    -1.1458400    -0.0150190
  C       -1.5403890     1.1790090    -0.0074550
  C       -3.5664500    -0.3550010     0.0190800
  H        2.3036370     1.6413390     0.0163460
  H        3.8028480     0.0735720    -1.2571040
  H        2.4662660    -1.1861320    -1.2466910
  H        2.4535620    -1.2039700     1.2409480
  H        3.7897520     0.0554290     1.2831630
  H       -1.4774160    -2.1870700    -0.0286840
  H       -2.1879510     2.0569620    -0.0148810
  H       -3.8167460    -1.2890820    -0.4911310
  H       -4.1087150     0.4576500    -0.4717300
  H       -3.9655005    -0.4342240     1.1424216
units angstrom
no_reorient  #important for SAPT in psi4, default
symmetry c1  #important for SAPT in psi4, default
}

set PROPERTIES_ORIGIN ["COM"]
properties('MP2/aug-cc-pvtz', properties = ['dipole'])
--------------------------------------------------------------------------

    Molecular point group: c1
  Charge       = 0
  Multiplicity = 1
  Basis Set: AUG-CC-PVTZ
    Blend: AUG-CC-PVTZ
  Basis Set: (AUG-CC-PVTZ AUX)
    Blend: AUG-CC-PVTZ-JKFIT

    Orbital Energies [Eh]
    ---------------------

    Doubly Occupied:

       1A    -15.564492     2A    -15.564451     3A    -11.314106
       4A    -11.292483     5A    -11.290997     6A    -11.249810
       7A    -11.246371     8A    -11.231661     9A    -11.226162
      10A    -11.225481    11A     -1.302227    12A     -1.183060
      13A     -1.147461    14A     -1.087333    15A     -0.962821
      16A     -0.891650    17A     -0.872164    18A     -0.818934
      19A     -0.796664    20A     -0.716258    21A     -0.695023
      22A     -0.646109    23A     -0.613558    24A     -0.595563
      25A     -0.585689    26A     -0.582974    27A     -0.556437
      28A     -0.548134    29A     -0.523853    30A     -0.511113
      31A     -0.472212    32A     -0.433775    33A     -0.424585
      34A     -0.414748    35A     -0.403212    36A     -0.333905

  @DF-RHF Final Energy:  -417.77322487949817

   => Energetics <=

    Nuclear Repulsion Energy =            493.1324362744002201
    One-Electron Energy =               -1543.1603712054354673
    Two-Electron Energy =                 632.2547100515371312
    Total Energy =                       -417.7732248794982297
  Basis Set: (AUG-CC-PVTZ AUX)
    Blend: AUG-CC-PVTZ-RI
    Molecular point group: c1

    Geometry (in Angstrom), charge = 0, multiplicity = 1:

       Center              X                  Y                   Z               Mass
    ------------   -----------------  -----------------  -----------------  -----------------
         N            0.167372834812    -0.957091397744    -0.011140581266    14.003074004430
         N           -0.226005165188     1.407651602256    -0.003502581266    14.003074004430
         C            2.034544834812     0.573907602256     0.007608418734    12.000000000000
         C            2.946432834812    -0.373047397744    -0.741169581266    12.000000000000
         C            2.938734834812    -0.383692397744     0.752095418734    12.000000000000
         C            0.579042834812     0.326588602256    -0.001209581266    12.000000000000
         C           -2.090564165188    -0.121487397744    -0.010865581266    12.000000000000
         C           -1.156624165188    -1.160666397744    -0.015143581266    12.000000000000
         C           -1.545367165188     1.164182602256    -0.007579581266    12.000000000000
         C           -3.571428165188    -0.369827397744     0.018955418734    12.000000000000
         H            2.298658834812     1.626512602256     0.016221418734     1.007825032230
         H            3.797869834812     0.058745602256    -1.257228581266     1.007825032230
         H            2.461287834812    -1.200958397744    -1.246815581266     1.007825032230
         H            2.448583834812    -1.218796397744     1.240823418734     1.007825032230
         H            3.784773834812     0.040602602256     1.283038418734     1.007825032230
         H           -1.482394165188    -2.201896397744    -0.028808581266     1.007825032230
         H           -2.192929165188     2.042135602256    -0.015005581266     1.007825032230
         H           -3.821724165188    -1.303908397744    -0.491255581266     1.007825032230
         H           -4.113693165188     0.442823602256    -0.471854581266     1.007825032230
         H           -3.970478665188    -0.449050397744     1.142297018734     1.007825032230

  Basis Set: AUG-CC-PVTZ
    Blend: AUG-CC-PVTZ
  Basis Set: (AUG-CC-PVTZ AUX)
    Blend: AUG-CC-PVTZ-JKFIT
	 Reference Energy          =    -417.7732248794981729 [Eh]
	 Singles Energy            =      -0.0000000000000000 [Eh]
	 Same-Spin Energy          =      -0.4576576666393186 [Eh]
	 Opposite-Spin Energy      =      -1.4481312778079911 [Eh]
	 Correlation Energy        =      -1.9057889444473097 [Eh]
	 Total Energy              =    -419.6790138239454677 [Eh]

	 ================> DF-SCS-MP2 Energies <==================
	-----------------------------------------------------------
	 SCS Same-Spin Scale       =       0.3333333333333333 [-]
	 SCS Opposite-Spin Scale   =       1.2000000000000000 [-]
	 SCS Same-Spin Energy      =      -0.1525525555464395 [Eh]
	 SCS Opposite-Spin Energy  =      -1.7377575333695894 [Eh]
	 SCS Correlation Energy    =      -1.8903100889160289 [Eh]
	 SCS Total Energy          =    -419.6635349684141829 [Eh]
	-----------------------------------------------------------

  Dipole Moment: [D]
     X:    -1.9992      Y:    -0.5659      Z:     0.0128     Total:     2.0778

*** Psi4 exiting successfully. Buy a developer a beer!
