                               Psi4 1.4a3.dev225

  ==> Input File <==

--------------------------------------------------------------------------
#psi4
#
memory 32 gb

molecule  {
0 1
  N        0.1723510    -0.9422650    -0.0110160
  N       -0.2210270     1.4224780    -0.0033780
  C        2.0395230     0.5887340     0.0077330
  C        2.9514110    -0.3582210    -0.7410450
  C        2.9437130    -0.3688660     0.7522200
  C        0.5643040     0.3380647    -0.0012045
  C       -2.0855860    -0.1066610    -0.0107410
  C       -1.1516460    -1.1458400    -0.0150190
  C       -1.5403890     1.1790090    -0.0074550
  C       -3.5664500    -0.3550010     0.0190800
  H        2.3036370     1.6413390     0.0163460
  H        3.8028480     0.0735720    -1.2571040
  H        2.4662660    -1.1861320    -1.2466910
  H        2.4535620    -1.2039700     1.2409480
  H        3.7897520     0.0554290     1.2831630
  H       -1.4774160    -2.1870700    -0.0286840
  H       -2.1879510     2.0569620    -0.0148810
  H       -3.8167460    -1.2890820    -0.4911310
  H       -4.1087150     0.4576500    -0.4717300
  H       -3.9321000    -0.4275930     1.0483980
units angstrom
no_reorient  #important for SAPT in psi4, default
symmetry c1  #important for SAPT in psi4, default
}

set PROPERTIES_ORIGIN ["COM"]
properties('MP2/aug-cc-pvtz', properties = ['dipole'])
--------------------------------------------------------------------------

    Molecular point group: c1
  Charge       = 0
  Multiplicity = 1
  Basis Set: AUG-CC-PVTZ
    Blend: AUG-CC-PVTZ
  Basis Set: (AUG-CC-PVTZ AUX)
    Blend: AUG-CC-PVTZ-JKFIT

    Orbital Energies [Eh]
    ---------------------

    Doubly Occupied:

       1A    -15.564499     2A    -15.564472     3A    -11.312320
       4A    -11.292836     5A    -11.291364     6A    -11.246538
       7A    -11.238803     8A    -11.230637     9A    -11.224136
      10A    -11.223449    11A     -1.305812    12A     -1.186525
      13A     -1.144555    14A     -1.089135    15A     -0.966491
      16A     -0.893439    17A     -0.872643    18A     -0.817037
      19A     -0.795892    20A     -0.715859    21A     -0.695477
      22A     -0.645355    23A     -0.611664    24A     -0.599588
      25A     -0.592553    26A     -0.583255    27A     -0.559868
      28A     -0.555937    29A     -0.521020    30A     -0.509861
      31A     -0.471077    32A     -0.431837    33A     -0.422386
      34A     -0.415934    35A     -0.406117    36A     -0.336571

  @DF-RHF Final Energy:  -417.77997001722196

   => Energetics <=

    Nuclear Repulsion Energy =            493.6799866212828078
    One-Electron Energy =               -1544.2500292019160497
    Two-Electron Energy =                 632.7900725634112860
    Total Energy =                       -417.7799700172220128
  Basis Set: (AUG-CC-PVTZ AUX)
    Blend: AUG-CC-PVTZ-RI
    Molecular point group: c1

    Geometry (in Angstrom), charge = 0, multiplicity = 1:

       Center              X                  Y                   Z               Mass
    ------------   -----------------  -----------------  -----------------  -----------------
         N            0.168886375109    -0.956841400633    -0.010423172388    14.003074004430
         N           -0.224491624891     1.407901599367    -0.002785172388    14.003074004430
         C            2.036058375109     0.574157599367     0.008325827612    12.000000000000
         C            2.947946375109    -0.372797400633    -0.740452172388    12.000000000000
         C            2.940248375109    -0.383442400633     0.752812827612    12.000000000000
         C            0.560839375109     0.323488299367    -0.000611672388    12.000000000000
         C           -2.089050624891    -0.121237400633    -0.010148172388    12.000000000000
         C           -1.155110624891    -1.160416400633    -0.014426172388    12.000000000000
         C           -1.543853624891     1.164432599367    -0.006862172388    12.000000000000
         C           -3.569914624891    -0.369577400633     0.019672827612    12.000000000000
         H            2.300172375109     1.626762599367     0.016938827612     1.007825032230
         H            3.799383375109     0.058995599367    -1.256511172388     1.007825032230
         H            2.462801375109    -1.200708400633    -1.246098172388     1.007825032230
         H            2.450097375109    -1.218546400633     1.241540827612     1.007825032230
         H            3.786287375109     0.040852599367     1.283755827612     1.007825032230
         H           -1.480880624891    -2.201646400633    -0.028091172388     1.007825032230
         H           -2.191415624891     2.042385599367    -0.014288172388     1.007825032230
         H           -3.820210624891    -1.303658400633    -0.490538172388     1.007825032230
         H           -4.112179624891     0.443073599367    -0.471137172388     1.007825032230
         H           -3.935564624891    -0.442169400633     1.048990827612     1.007825032230

  Basis Set: AUG-CC-PVTZ
    Blend: AUG-CC-PVTZ
  Basis Set: (AUG-CC-PVTZ AUX)
    Blend: AUG-CC-PVTZ-JKFIT
	 Reference Energy          =    -417.7799700172219559 [Eh]
	 Singles Energy            =      -0.0000000000000000 [Eh]
	 Same-Spin Energy          =      -0.4573823683087351 [Eh]
	 Opposite-Spin Energy      =      -1.4470377192010457 [Eh]
	 Correlation Energy        =      -1.9044200875097808 [Eh]
	 Total Energy              =    -419.6843901047317331 [Eh]

	 ================> DF-SCS-MP2 Energies <==================
	-----------------------------------------------------------
	 SCS Same-Spin Scale       =       0.3333333333333333 [-]
	 SCS Opposite-Spin Scale   =       1.2000000000000000 [-]
	 SCS Same-Spin Energy      =      -0.1524607894362450 [Eh]
	 SCS Opposite-Spin Energy  =      -1.7364452630412548 [Eh]
	 SCS Correlation Energy    =      -1.8889060524774999 [Eh]
	 SCS Total Energy          =    -419.6688760696994791 [Eh]
	-----------------------------------------------------------

  Dipole Moment: [D]
     X:    -2.1820      Y:    -0.5723      Z:     0.0454     Total:     2.2563

*** Psi4 exiting successfully. Buy a developer a beer!
