                               Psi4 1.4a3.dev225

  ==> Input File <==

--------------------------------------------------------------------------
#psi4
#
memory 32 gb

molecule  {
0 1
  N        0.1723510    -0.9422650    -0.0110160
  N       -0.2210270     1.4224780    -0.0033780
  C        2.0395230     0.5887340     0.0077330
  C        2.9514110    -0.3582210    -0.7410450
  C        2.9437130    -0.3688660     0.7522200
  C        0.5840210     0.3414150    -0.0010850
  C       -2.0855860    -0.1066610    -0.0107410
  C       -1.1516460    -1.1458400    -0.0150190
  C       -1.4912194     1.1880825    -0.0073031
  C       -3.5664500    -0.3550010     0.0190800
  H        2.3036370     1.6413390     0.0163460
  H        3.8028480     0.0735720    -1.2571040
  H        2.4662660    -1.1861320    -1.2466910
  H        2.4535620    -1.2039700     1.2409480
  H        3.7897520     0.0554290     1.2831630
  H       -1.4774160    -2.1870700    -0.0286840
  H       -2.1879510     2.0569620    -0.0148810
  H       -3.8167460    -1.2890820    -0.4911310
  H       -4.1087150     0.4576500    -0.4717300
  H       -3.9321000    -0.4275930     1.0483980
units angstrom
no_reorient  #important for SAPT in psi4, default
symmetry c1  #important for SAPT in psi4, default
}

set PROPERTIES_ORIGIN ["COM"]
properties('MP2/aug-cc-pvtz', properties = ['dipole'])
--------------------------------------------------------------------------

    Molecular point group: c1
  Charge       = 0
  Multiplicity = 1
  Basis Set: AUG-CC-PVTZ
    Blend: AUG-CC-PVTZ
  Basis Set: (AUG-CC-PVTZ AUX)
    Blend: AUG-CC-PVTZ-JKFIT

    Orbital Energies [Eh]
    ---------------------

    Doubly Occupied:

       1A    -15.562813     2A    -15.562653     3A    -11.315516
       4A    -11.291155     5A    -11.288219     6A    -11.246178
       7A    -11.238265     8A    -11.232129     9A    -11.226570
      10A    -11.225888    11A     -1.309622    12A     -1.193224
      13A     -1.147284    14A     -1.083396    15A     -0.968901
      16A     -0.889240    17A     -0.873180    18A     -0.819247
      19A     -0.797506    20A     -0.717033    21A     -0.696300
      22A     -0.645036    23A     -0.613362    24A     -0.598727
      25A     -0.592388    26A     -0.579124    27A     -0.561241
      28A     -0.554069    29A     -0.523024    30A     -0.512058
      31A     -0.473438    32A     -0.434195    33A     -0.425391
      34A     -0.422337    35A     -0.399848    36A     -0.330074

  @DF-RHF Final Energy:  -417.77790449196283

   => Energetics <=

    Nuclear Repulsion Energy =            494.0698190440072040
    One-Electron Energy =               -1544.9981819796860236
    Two-Electron Energy =                 633.1504584437158201
    Total Energy =                       -417.7779044919628859
  Basis Set: (AUG-CC-PVTZ AUX)
    Blend: AUG-CC-PVTZ-RI
    Molecular point group: c1

    Geometry (in Angstrom), charge = 0, multiplicity = 1:

       Center              X                  Y                   Z               Mass
    ------------   -----------------  -----------------  -----------------  -----------------
         N            0.162721308850    -0.957953279434    -0.010447461568    14.003074004430
         N           -0.230656691150     1.406789720566    -0.002809461568    14.003074004430
         C            2.029893308850     0.573045720566     0.008301538432    12.000000000000
         C            2.941781308850    -0.373909279434    -0.740476461568    12.000000000000
         C            2.934083308850    -0.384554279434     0.752788538432    12.000000000000
         C            0.574391308850     0.325726720566    -0.000516461568    12.000000000000
         C           -2.095215691150    -0.122349279434    -0.010172461568    12.000000000000
         C           -1.161275691150    -1.161528279434    -0.014450461568    12.000000000000
         C           -1.500849091150     1.172394220566    -0.006734561568    12.000000000000
         C           -3.576079691150    -0.370689279434     0.019648538432    12.000000000000
         H            2.294007308850     1.625650720566     0.016914538432     1.007825032230
         H            3.793218308850     0.057883720566    -1.256535461568     1.007825032230
         H            2.456636308850    -1.201820279434    -1.246122461568     1.007825032230
         H            2.443932308850    -1.219658279434     1.241516538432     1.007825032230
         H            3.780122308850     0.039740720566     1.283731538432     1.007825032230
         H           -1.487045691150    -2.202758279434    -0.028115461568     1.007825032230
         H           -2.197580691150     2.041273720566    -0.014312461568     1.007825032230
         H           -3.826375691150    -1.304770279434    -0.490562461568     1.007825032230
         H           -4.118344691150     0.441961720566    -0.471161461568     1.007825032230
         H           -3.941729691150    -0.443281279434     1.048966538432     1.007825032230

  Basis Set: AUG-CC-PVTZ
    Blend: AUG-CC-PVTZ
  Basis Set: (AUG-CC-PVTZ AUX)
    Blend: AUG-CC-PVTZ-JKFIT
	 Reference Energy          =    -417.7779044919628291 [Eh]
	 Singles Energy            =      -0.0000000000000000 [Eh]
	 Same-Spin Energy          =      -0.4573926003643583 [Eh]
	 Opposite-Spin Energy      =      -1.4466210842324461 [Eh]
	 Correlation Energy        =      -1.9040136845968043 [Eh]
	 Total Energy              =    -419.6819181765596340 [Eh]

	 ================> DF-SCS-MP2 Energies <==================
	-----------------------------------------------------------
	 SCS Same-Spin Scale       =       0.3333333333333333 [-]
	 SCS Opposite-Spin Scale   =       1.2000000000000000 [-]
	 SCS Same-Spin Energy      =      -0.1524642001214528 [Eh]
	 SCS Opposite-Spin Energy  =      -1.7359453010789352 [Eh]
	 SCS Correlation Energy    =      -1.8884095012003879 [Eh]
	 SCS Total Energy          =    -419.6663139931632145 [Eh]
	-----------------------------------------------------------

  Dipole Moment: [D]
     X:    -1.9855      Y:    -0.5407      Z:     0.0479     Total:     2.0583

*** Psi4 exiting successfully. Buy a developer a beer!
