                               Psi4 1.4a3.dev225

  ==> Input File <==

--------------------------------------------------------------------------
#psi4
#
memory 32 gb

molecule  {
0 1
  N        0.1723510    -0.9422650    -0.0110160
  N       -0.2210270     1.4224780    -0.0033780
  C        2.0395230     0.5887340     0.0077330
  C        2.9514110    -0.3582210    -0.7410450
  C        2.9437130    -0.3688660     0.7522200
  C        0.5840210     0.3414150    -0.0010850
  C       -2.0855860    -0.1066610    -0.0107410
  C       -1.1516460    -1.1458400    -0.0150190
  C       -1.5403890     1.1790090    -0.0074550
  C       -3.5664500    -0.3550010     0.0190800
  H        2.3036370     1.6413390     0.0163460
  H        3.8028480     0.0735720    -1.2571040
  H        2.4662660    -1.1861320    -1.2466910
  H        2.4535620    -1.2039700     1.2409480
  H        3.7897520     0.0554290     1.2831630
  H       -1.4774160    -2.1870700    -0.0286840
  H       -2.1879510     2.0569620    -0.0148810
  H       -3.8396380    -1.3745129    -0.5377948
  H       -4.1087150     0.4576500    -0.4717300
  H       -3.9321000    -0.4275930     1.0483980
units angstrom
no_reorient  #important for SAPT in psi4, default
symmetry c1  #important for SAPT in psi4, default
}

set PROPERTIES_ORIGIN ["COM"]
properties('MP2/aug-cc-pvtz', properties = ['dipole'])
--------------------------------------------------------------------------

    Molecular point group: c1
  Charge       = 0
  Multiplicity = 1
  Basis Set: AUG-CC-PVTZ
    Blend: AUG-CC-PVTZ
  Basis Set: (AUG-CC-PVTZ AUX)
    Blend: AUG-CC-PVTZ-JKFIT

    Orbital Energies [Eh]
    ---------------------

    Doubly Occupied:

       1A    -15.564478     2A    -15.564327     3A    -11.313977
       4A    -11.292206     5A    -11.291134     6A    -11.249898
       7A    -11.246484     8A    -11.231586     9A    -11.226087
      10A    -11.225405    11A     -1.302146    12A     -1.182984
      13A     -1.147377    14A     -1.087309    15A     -0.962783
      16A     -0.891761    17A     -0.871762    18A     -0.818864
      19A     -0.796646    20A     -0.715972    21A     -0.694238
      22A     -0.646218    23A     -0.613478    24A     -0.596607
      25A     -0.592237    26A     -0.581772    27A     -0.558823
      28A     -0.539323    29A     -0.523374    30A     -0.511247
      31A     -0.472193    32A     -0.434270    33A     -0.424517
      34A     -0.414682    35A     -0.403032    36A     -0.334638

  @DF-RHF Final Energy:  -417.77301964119573

   => Energetics <=

    Nuclear Repulsion Energy =            493.1386818831510368
    One-Electron Energy =               -1543.1757354331916758
    Two-Electron Energy =                 632.2640339088449082
    Total Energy =                       -417.7730196411956740
  Basis Set: (AUG-CC-PVTZ AUX)
    Blend: AUG-CC-PVTZ-RI
    Molecular point group: c1

    Geometry (in Angstrom), charge = 0, multiplicity = 1:

       Center              X                  Y                   Z               Mass
    ------------   -----------------  -----------------  -----------------  -----------------
         N            0.167293849267    -0.956499110254    -0.010083125774    14.003074004430
         N           -0.226084150733     1.408243889746    -0.002445125774    14.003074004430
         C            2.034465849267     0.574499889746     0.008665874226    12.000000000000
         C            2.946353849267    -0.372455110254    -0.740112125774    12.000000000000
         C            2.938655849267    -0.383100110254     0.753152874226    12.000000000000
         C            0.578963849267     0.327180889746    -0.000152125774    12.000000000000
         C           -2.090643150733    -0.120895110254    -0.009808125774    12.000000000000
         C           -1.156703150733    -1.160074110254    -0.014086125774    12.000000000000
         C           -1.545446150733     1.164774889746    -0.006522125774    12.000000000000
         C           -3.571507150733    -0.369235110254     0.020012874226    12.000000000000
         H            2.298579849267     1.627104889746     0.017278874226     1.007825032230
         H            3.797790849267     0.059337889746    -1.256171125774     1.007825032230
         H            2.461208849267    -1.200366110254    -1.245758125774     1.007825032230
         H            2.448504849267    -1.218204110254     1.241880874226     1.007825032230
         H            3.784694849267     0.041194889746     1.284095874226     1.007825032230
         H           -1.482473150733    -2.201304110254    -0.027751125774     1.007825032230
         H           -2.193008150733     2.042727889746    -0.013948125774     1.007825032230
         H           -3.844695150733    -1.388747010254    -0.536861925774     1.007825032230
         H           -4.113772150733     0.443415889746    -0.470797125774     1.007825032230
         H           -3.937157150733    -0.441827110254     1.049330874226     1.007825032230

  Basis Set: AUG-CC-PVTZ
    Blend: AUG-CC-PVTZ
  Basis Set: (AUG-CC-PVTZ AUX)
    Blend: AUG-CC-PVTZ-JKFIT
	 Reference Energy          =    -417.7730196411957309 [Eh]
	 Singles Energy            =      -0.0000000000000000 [Eh]
	 Same-Spin Energy          =      -0.4577052142990713 [Eh]
	 Opposite-Spin Energy      =      -1.4482315503313199 [Eh]
	 Correlation Energy        =      -1.9059367646303911 [Eh]
	 Total Energy              =    -419.6789564058261135 [Eh]

	 ================> DF-SCS-MP2 Energies <==================
	-----------------------------------------------------------
	 SCS Same-Spin Scale       =       0.3333333333333333 [-]
	 SCS Opposite-Spin Scale   =       1.2000000000000000 [-]
	 SCS Same-Spin Energy      =      -0.1525684047663571 [Eh]
	 SCS Opposite-Spin Energy  =      -1.7378778603975837 [Eh]
	 SCS Correlation Energy    =      -1.8904462651639409 [Eh]
	 SCS Total Energy          =    -419.6634659063596473 [Eh]
	-----------------------------------------------------------

  Dipole Moment: [D]
     X:    -2.0055      Y:    -0.5348      Z:     0.0638     Total:     2.0766

*** Psi4 exiting successfully. Buy a developer a beer!
