                               Psi4 1.4a3.dev225

  ==> Input File <==

--------------------------------------------------------------------------
#psi4
#
memory 32 gb

molecule  {
0 1
  N        0.1723510    -0.9422650    -0.0110160
  N       -0.2210270     1.4224780    -0.0033780
  C        2.0395230     0.5887340     0.0077330
  C        2.9514110    -0.3582210    -0.7410450
  C        2.9437130    -0.3688660     0.7522200
  C        0.5840210     0.3414150    -0.0010850
  C       -2.0898452    -0.0841827    -0.0235332
  C       -1.1516460    -1.1458400    -0.0150190
  C       -1.5403890     1.1790090    -0.0074550
  C       -3.5664500    -0.3550010     0.0190800
  H        2.3036370     1.6413390     0.0163460
  H        3.8028480     0.0735720    -1.2571040
  H        2.4662660    -1.1861320    -1.2466910
  H        2.4535620    -1.2039700     1.2409480
  H        3.7897520     0.0554290     1.2831630
  H       -1.4774160    -2.1870700    -0.0286840
  H       -2.1879510     2.0569620    -0.0148810
  H       -3.8167460    -1.2890820    -0.4911310
  H       -4.1087150     0.4576500    -0.4717300
  H       -3.9321000    -0.4275930     1.0483980
units angstrom
no_reorient  #important for SAPT in psi4, default
symmetry c1  #important for SAPT in psi4, default
}

set PROPERTIES_ORIGIN ["COM"]
properties('MP2/aug-cc-pvtz', properties = ['dipole'])
--------------------------------------------------------------------------

    Molecular point group: c1
  Charge       = 0
  Multiplicity = 1
  Basis Set: AUG-CC-PVTZ
    Blend: AUG-CC-PVTZ
  Basis Set: (AUG-CC-PVTZ AUX)
    Blend: AUG-CC-PVTZ-JKFIT

    Orbital Energies [Eh]
    ---------------------

    Doubly Occupied:

       1A    -15.565226     2A    -15.562936     3A    -11.313621
       4A    -11.295575     5A    -11.286600     6A    -11.245579
       7A    -11.238166     8A    -11.231412     9A    -11.225975
      10A    -11.225294    11A     -1.301759    12A     -1.182664
      13A     -1.147145    14A     -1.088274    15A     -0.967180
      16A     -0.890342    17A     -0.876056    18A     -0.818791
      19A     -0.796053    20A     -0.715581    21A     -0.695202
      22A     -0.645903    23A     -0.613679    24A     -0.598004
      25A     -0.592927    26A     -0.581474    27A     -0.558373
      28A     -0.554812    29A     -0.523587    30A     -0.511251
      31A     -0.471784    32A     -0.434166    33A     -0.424218
      34A     -0.414510    35A     -0.402739    36A     -0.334485

  @DF-RHF Final Energy:  -417.77889048475993

   => Energetics <=

    Nuclear Repulsion Energy =            493.5239539978540506
    One-Electron Energy =               -1543.9430035675889030
    Two-Electron Energy =                 632.6401590849749255
    Total Energy =                       -417.7788904847599269
  Basis Set: (AUG-CC-PVTZ AUX)
    Blend: AUG-CC-PVTZ-RI
    Molecular point group: c1

    Geometry (in Angstrom), charge = 0, multiplicity = 1:

       Center              X                  Y                   Z               Mass
    ------------   -----------------  -----------------  -----------------  -----------------
         N            0.167502965836    -0.959152953684    -0.009289018065    14.003074004430
         N           -0.225875034164     1.405590046316    -0.001651018065    14.003074004430
         C            2.034674965836     0.571846046316     0.009459981935    12.000000000000
         C            2.946562965836    -0.375108953684    -0.739318018065    12.000000000000
         C            2.938864965836    -0.385753953684     0.753946981935    12.000000000000
         C            0.579172965836     0.324527046316     0.000641981935    12.000000000000
         C           -2.094693234164    -0.101070653684    -0.021806218065    12.000000000000
         C           -1.156494034164    -1.162727953684    -0.013292018065    12.000000000000
         C           -1.545237034164     1.162121046316    -0.005728018065    12.000000000000
         C           -3.571298034164    -0.371888953684     0.020806981935    12.000000000000
         H            2.298788965836     1.624451046316     0.018072981935     1.007825032230
         H            3.797999965836     0.056684046316    -1.255377018065     1.007825032230
         H            2.461417965836    -1.203019953684    -1.244964018065     1.007825032230
         H            2.448713965836    -1.220857953684     1.242674981935     1.007825032230
         H            3.784903965836     0.038541046316     1.284889981935     1.007825032230
         H           -1.482264034164    -2.203957953684    -0.026957018065     1.007825032230
         H           -2.192799034164     2.040074046316    -0.013154018065     1.007825032230
         H           -3.821594034164    -1.305969953684    -0.489404018065     1.007825032230
         H           -4.113563034164     0.440762046316    -0.470003018065     1.007825032230
         H           -3.936948034164    -0.444480953684     1.050124981935     1.007825032230

  Basis Set: AUG-CC-PVTZ
    Blend: AUG-CC-PVTZ
  Basis Set: (AUG-CC-PVTZ AUX)
    Blend: AUG-CC-PVTZ-JKFIT
	 Reference Energy          =    -417.7788904847599269 [Eh]
	 Singles Energy            =      -0.0000000000000000 [Eh]
	 Same-Spin Energy          =      -0.4576682708087035 [Eh]
	 Opposite-Spin Energy      =      -1.4475438443271442 [Eh]
	 Correlation Energy        =      -1.9052121151358477 [Eh]
	 Total Energy              =    -419.6841025998957662 [Eh]

	 ================> DF-SCS-MP2 Energies <==================
	-----------------------------------------------------------
	 SCS Same-Spin Scale       =       0.3333333333333333 [-]
	 SCS Opposite-Spin Scale   =       1.2000000000000000 [-]
	 SCS Same-Spin Energy      =      -0.1525560902695678 [Eh]
	 SCS Opposite-Spin Energy  =      -1.7370526131925730 [Eh]
	 SCS Correlation Energy    =      -1.8896087034621407 [Eh]
	 SCS Total Energy          =    -419.6684991882220856 [Eh]
	-----------------------------------------------------------

  Dipole Moment: [D]
     X:    -2.0348      Y:    -0.6142      Z:     0.0457     Total:     2.1259

*** Psi4 exiting successfully. Buy a developer a beer!
