                               Psi4 1.4a3.dev225

  ==> Input File <==

--------------------------------------------------------------------------
#psi4
#
memory 32 gb

molecule  {
0 1
  N        0.1723510    -0.9422650    -0.0110160
  N       -0.2210270     1.4224780    -0.0033780
  C        2.0395230     0.5887340     0.0077330
  C        2.9514110    -0.3582210    -0.7410450
  C        2.9437130    -0.3688660     0.7522200
  C        0.5840210     0.3414150    -0.0010850
  C       -2.0855860    -0.1066610    -0.0107410
  C       -1.1516460    -1.1458400    -0.0150190
  C       -1.5403890     1.1790090    -0.0074550
  C       -3.5664500    -0.3550010     0.0190800
  H        2.3036370     1.6413390     0.0163460
  H        3.8028480     0.0735720    -1.2571040
  H        2.4662660    -1.1861320    -1.2466910
  H        2.4535620    -1.2039700     1.2409480
  H        3.9456719     0.1336240     1.3810126
  H       -1.4774160    -2.1870700    -0.0286840
  H       -2.1879510     2.0569620    -0.0148810
  H       -3.8167460    -1.2890820    -0.4911310
  H       -4.1087150     0.4576500    -0.4717300
  H       -3.9321000    -0.4275930     1.0483980
units angstrom
no_reorient  #important for SAPT in psi4, default
symmetry c1  #important for SAPT in psi4, default
}

set PROPERTIES_ORIGIN ["COM"]
properties('MP2/aug-cc-pvtz', properties = ['dipole'])
--------------------------------------------------------------------------

    Molecular point group: c1
  Charge       = 0
  Multiplicity = 1
  Basis Set: AUG-CC-PVTZ
    Blend: AUG-CC-PVTZ
  Basis Set: (AUG-CC-PVTZ AUX)
    Blend: AUG-CC-PVTZ-JKFIT

    Orbital Energies [Eh]
    ---------------------

    Doubly Occupied:

       1A    -15.565334     2A    -15.565180     3A    -11.314671
       4A    -11.292817     5A    -11.291294     6A    -11.247174
       7A    -11.246680     8A    -11.238839     9A    -11.233173
      10A    -11.227596    11A     -1.302872    12A     -1.183681
      13A     -1.147273    14A     -1.088680    15A     -0.967469
      16A     -0.892386    17A     -0.874660    18A     -0.808213
      19A     -0.794245    20A     -0.715569    21A     -0.695790
      22A     -0.632783    23A     -0.614001    24A     -0.598768
      25A     -0.592370    26A     -0.582658    27A     -0.557569
      28A     -0.555772    29A     -0.522960    30A     -0.492315
      31A     -0.471822    32A     -0.434016    33A     -0.425033
      34A     -0.415236    35A     -0.403892    36A     -0.335156

  @DF-RHF Final Energy:  -417.75811389579587

   => Energetics <=

    Nuclear Repulsion Energy =            492.6575782319840755
    One-Electron Energy =               -1542.1754872083779446
    Two-Electron Energy =                 631.7597950805978826
    Total Energy =                       -417.7581138957958728
  Basis Set: (AUG-CC-PVTZ AUX)
    Blend: AUG-CC-PVTZ-RI
    Molecular point group: c1

    Geometry (in Angstrom), charge = 0, multiplicity = 1:

       Center              X                  Y                   Z               Mass
    ------------   -----------------  -----------------  -----------------  -----------------
         N            0.165949836756    -0.957728979501    -0.011169338814    14.003074004430
         N           -0.227428163244     1.407014020499    -0.003531338814    14.003074004430
         C            2.033121836756     0.573270020499     0.007579661186    12.000000000000
         C            2.945009836756    -0.373684979501    -0.741198338814    12.000000000000
         C            2.937311836756    -0.384329979501     0.752066661186    12.000000000000
         C            0.577619836756     0.325951020499    -0.001238338814    12.000000000000
         C           -2.091987163244    -0.122124979501    -0.010894338814    12.000000000000
         C           -1.158047163244    -1.161303979501    -0.015172338814    12.000000000000
         C           -1.546790163244     1.163545020499    -0.007608338814    12.000000000000
         C           -3.572851163244    -0.370464979501     0.018926661186    12.000000000000
         H            2.297235836756     1.625875020499     0.016192661186     1.007825032230
         H            3.796446836756     0.058108020499    -1.257257338814     1.007825032230
         H            2.459864836756    -1.201595979501    -1.246844338814     1.007825032230
         H            2.447160836756    -1.219433979501     1.240794661186     1.007825032230
         H            3.939270736756     0.118160020499     1.380859261186     1.007825032230
         H           -1.483817163244    -2.202533979501    -0.028837338814     1.007825032230
         H           -2.194352163244     2.041498020499    -0.015034338814     1.007825032230
         H           -3.823147163244    -1.304545979501    -0.491284338814     1.007825032230
         H           -4.115116163244     0.442186020499    -0.471883338814     1.007825032230
         H           -3.938501163244    -0.443056979501     1.048244661186     1.007825032230

  Basis Set: AUG-CC-PVTZ
    Blend: AUG-CC-PVTZ
  Basis Set: (AUG-CC-PVTZ AUX)
    Blend: AUG-CC-PVTZ-JKFIT
	 Reference Energy          =    -417.7581138957958728 [Eh]
	 Singles Energy            =      -0.0000000000000000 [Eh]
	 Same-Spin Energy          =      -0.4578217472758158 [Eh]
	 Opposite-Spin Energy      =      -1.4492385365219604 [Eh]
	 Correlation Energy        =      -1.9070602837977764 [Eh]
	 Total Energy              =    -419.6651741795936346 [Eh]

	 ================> DF-SCS-MP2 Energies <==================
	-----------------------------------------------------------
	 SCS Same-Spin Scale       =       0.3333333333333333 [-]
	 SCS Opposite-Spin Scale   =       1.2000000000000000 [-]
	 SCS Same-Spin Energy      =      -0.1526072490919386 [Eh]
	 SCS Opposite-Spin Energy  =      -1.7390862438263526 [Eh]
	 SCS Correlation Energy    =      -1.8916934929182911 [Eh]
	 SCS Total Energy          =    -419.6498073887141800 [Eh]
	-----------------------------------------------------------

  Dipole Moment: [D]
     X:    -2.1696      Y:    -0.5797      Z:    -0.0404     Total:     2.2460

*** Psi4 exiting successfully. Buy a developer a beer!
