                               Psi4 1.4a3.dev225

  ==> Input File <==

--------------------------------------------------------------------------
#psi4
#
memory 32 gb

molecule  {
0 1
  N        0.1723510    -0.9422650    -0.0110160
  N       -0.2210270     1.4224780    -0.0033780
  C        2.0395230     0.5887340     0.0077330
  C        2.9514110    -0.3582210    -0.7410450
  C        2.9437130    -0.3688660     0.7522200
  C        0.5840210     0.3414150    -0.0010850
  C       -2.0855860    -0.1066610    -0.0107410
  C       -1.2010650    -1.1534386    -0.0151684
  C       -1.5403890     1.1790090    -0.0074550
  C       -3.5664500    -0.3550010     0.0190800
  H        2.3036370     1.6413390     0.0163460
  H        3.8028480     0.0735720    -1.2571040
  H        2.4662660    -1.1861320    -1.2466910
  H        2.4535620    -1.2039700     1.2409480
  H        3.7897520     0.0554290     1.2831630
  H       -1.4774160    -2.1870700    -0.0286840
  H       -2.1879510     2.0569620    -0.0148810
  H       -3.8167460    -1.2890820    -0.4911310
  H       -4.1087150     0.4576500    -0.4717300
  H       -3.9321000    -0.4275930     1.0483980
units angstrom
no_reorient  #important for SAPT in psi4, default
symmetry c1  #important for SAPT in psi4, default
}

set PROPERTIES_ORIGIN ["COM"]
properties('MP2/aug-cc-pvtz', properties = ['dipole'])
--------------------------------------------------------------------------

    Molecular point group: c1
  Charge       = 0
  Multiplicity = 1
  Basis Set: AUG-CC-PVTZ
    Blend: AUG-CC-PVTZ
  Basis Set: (AUG-CC-PVTZ AUX)
    Blend: AUG-CC-PVTZ-JKFIT

    Orbital Energies [Eh]
    ---------------------

    Doubly Occupied:

       1A    -15.565361     2A    -15.564663     3A    -11.311746
       4A    -11.293864     5A    -11.290616     6A    -11.245019
       7A    -11.237946     8A    -11.230427     9A    -11.224863
      10A    -11.224181    11A     -1.295669    12A     -1.173682
      13A     -1.145635    14A     -1.092275    15A     -0.965861
      16A     -0.897185    17A     -0.872720    18A     -0.817630
      19A     -0.794845    20A     -0.712964    21A     -0.696237
      22A     -0.644896    23A     -0.614747    24A     -0.598387
      25A     -0.592473    26A     -0.584823    27A     -0.556023
      28A     -0.555545    29A     -0.523115    30A     -0.510102
      31A     -0.467637    32A     -0.433900    33A     -0.423303
      34A     -0.407070    35A     -0.404746    36A     -0.338534

  @DF-RHF Final Energy:  -417.77483658952178

   => Energetics <=

    Nuclear Repulsion Energy =            493.0193866463683321
    One-Electron Energy =               -1542.9710581163631105
    Two-Electron Energy =                 632.1768348804730522
    Total Energy =                       -417.7748365895217830
  Basis Set: (AUG-CC-PVTZ AUX)
    Blend: AUG-CC-PVTZ-RI
    Molecular point group: c1

    Geometry (in Angstrom), charge = 0, multiplicity = 1:

       Center              X                  Y                   Z               Mass
    ------------   -----------------  -----------------  -----------------  -----------------
         N            0.171544581465    -0.956461195325    -0.010420496462    14.003074004430
         N           -0.221833418535     1.408281804675    -0.002782496462    14.003074004430
         C            2.038716581465     0.574537804675     0.008328503538    12.000000000000
         C            2.950604581465    -0.372417195325    -0.740449496462    12.000000000000
         C            2.942906581465    -0.383062195325     0.752815503538    12.000000000000
         C            0.583214581465     0.327218804675    -0.000489496462    12.000000000000
         C           -2.086392418535    -0.120857195325    -0.010145496462    12.000000000000
         C           -1.201871418535    -1.167634795325    -0.014572896462    12.000000000000
         C           -1.541195418535     1.164812804675    -0.006859496462    12.000000000000
         C           -3.567256418535    -0.369197195325     0.019675503538    12.000000000000
         H            2.302830581465     1.627142804675     0.016941503538     1.007825032230
         H            3.802041581465     0.059375804675    -1.256508496462     1.007825032230
         H            2.465459581465    -1.200328195325    -1.246095496462     1.007825032230
         H            2.452755581465    -1.218166195325     1.241543503538     1.007825032230
         H            3.788945581465     0.041232804675     1.283758503538     1.007825032230
         H           -1.478222418535    -2.201266195325    -0.028088496462     1.007825032230
         H           -2.188757418535     2.042765804675    -0.014285496462     1.007825032230
         H           -3.817552418535    -1.303278195325    -0.490535496462     1.007825032230
         H           -4.109521418535     0.443453804675    -0.471134496462     1.007825032230
         H           -3.932906418535    -0.441789195325     1.048993503538     1.007825032230

  Basis Set: AUG-CC-PVTZ
    Blend: AUG-CC-PVTZ
  Basis Set: (AUG-CC-PVTZ AUX)
    Blend: AUG-CC-PVTZ-JKFIT
	 Reference Energy          =    -417.7748365895217830 [Eh]
	 Singles Energy            =      -0.0000000000000000 [Eh]
	 Same-Spin Energy          =      -0.4580612083380895 [Eh]
	 Opposite-Spin Energy      =      -1.4487555476847356 [Eh]
	 Correlation Energy        =      -1.9068167560228251 [Eh]
	 Total Energy              =    -419.6816533455445892 [Eh]

	 ================> DF-SCS-MP2 Energies <==================
	-----------------------------------------------------------
	 SCS Same-Spin Scale       =       0.3333333333333333 [-]
	 SCS Opposite-Spin Scale   =       1.2000000000000000 [-]
	 SCS Same-Spin Energy      =      -0.1526870694460298 [Eh]
	 SCS Opposite-Spin Energy  =      -1.7385066572216827 [Eh]
	 SCS Correlation Energy    =      -1.8911937266677126 [Eh]
	 SCS Total Energy          =    -419.6660303161895058 [Eh]
	-----------------------------------------------------------

  Dipole Moment: [D]
     X:    -2.1028      Y:    -0.5582      Z:     0.0448     Total:     2.1761

*** Psi4 exiting successfully. Buy a developer a beer!
