                               Psi4 1.4a3.dev225

  ==> Input File <==

--------------------------------------------------------------------------
#psi4
#
memory 32 gb

molecule  {
0 1
  N        0.1723510    -0.9422650    -0.0110160
  N       -0.2210270     1.4224780    -0.0033780
  C        2.0395230     0.5887340     0.0077330
  C        2.9514110    -0.3582210    -0.7410450
  C        2.9437130    -0.3688660     0.7522200
  C        0.5840210     0.3414150    -0.0010850
  C       -2.0784221    -0.1518376     0.0148667
  C       -1.1516460    -1.1458400    -0.0150190
  C       -1.5403890     1.1790090    -0.0074550
  C       -3.5664500    -0.3550010     0.0190800
  H        2.3036370     1.6413390     0.0163460
  H        3.8028480     0.0735720    -1.2571040
  H        2.4662660    -1.1861320    -1.2466910
  H        2.4535620    -1.2039700     1.2409480
  H        3.7897520     0.0554290     1.2831630
  H       -1.4774160    -2.1870700    -0.0286840
  H       -2.1879510     2.0569620    -0.0148810
  H       -3.8167460    -1.2890820    -0.4911310
  H       -4.1087150     0.4576500    -0.4717300
  H       -3.9321000    -0.4275930     1.0483980
units angstrom
no_reorient  #important for SAPT in psi4, default
symmetry c1  #important for SAPT in psi4, default
}

set PROPERTIES_ORIGIN ["COM"]
properties('MP2/aug-cc-pvtz', properties = ['dipole'])
--------------------------------------------------------------------------

    Molecular point group: c1
  Charge       = 0
  Multiplicity = 1
  Basis Set: AUG-CC-PVTZ
    Blend: AUG-CC-PVTZ
  Basis Set: (AUG-CC-PVTZ AUX)
    Blend: AUG-CC-PVTZ-JKFIT

    Orbital Energies [Eh]
    ---------------------

    Doubly Occupied:

       1A    -15.566170     2A    -15.561465     3A    -11.313516
       4A    -11.297578     5A    -11.284091     6A    -11.245521
       7A    -11.238261     8A    -11.231206     9A    -11.225687
      10A    -11.225006    11A     -1.301571    12A     -1.182476
      13A     -1.147228    14A     -1.088085    15A     -0.967180
      16A     -0.895815    17A     -0.869804    18A     -0.818411
      19A     -0.796895    20A     -0.716050    21A     -0.693804
      22A     -0.645873    23A     -0.613729    24A     -0.599596
      25A     -0.592010    26A     -0.581429    27A     -0.558182
      28A     -0.554689    29A     -0.523183    30A     -0.510827
      31A     -0.470971    32A     -0.434381    33A     -0.424358
      34A     -0.414299    35A     -0.402158    36A     -0.334327

  @DF-RHF Final Energy:  -417.77682807932393

   => Energetics <=

    Nuclear Repulsion Energy =            493.5618130759675637
    One-Electron Energy =               -1544.0256255365511606
    Two-Electron Energy =                 632.6869843812595491
    Total Energy =                       -417.7768280793239910
  Basis Set: (AUG-CC-PVTZ AUX)
    Blend: AUG-CC-PVTZ-RI
    Molecular point group: c1

    Geometry (in Angstrom), charge = 0, multiplicity = 1:

       Center              X                  Y                   Z               Mass
    ------------   -----------------  -----------------  -----------------  -----------------
         N            0.166480645553    -0.953098119489    -0.012725650558    14.003074004430
         N           -0.226897354447     1.411644880511    -0.005087650558    14.003074004430
         C            2.033652645553     0.577900880511     0.006023349442    12.000000000000
         C            2.945540645553    -0.369054119489    -0.742754650558    12.000000000000
         C            2.937842645553    -0.379699119489     0.750510349442    12.000000000000
         C            0.578150645553     0.330581880511    -0.002794650558    12.000000000000
         C           -2.084292454447    -0.162670719489     0.013157049442    12.000000000000
         C           -1.157516354447    -1.156673119489    -0.016728650558    12.000000000000
         C           -1.546259354447     1.168175880511    -0.009164650558    12.000000000000
         C           -3.572320354447    -0.365834119489     0.017370349442    12.000000000000
         H            2.297766645553     1.630505880511     0.014636349442     1.007825032230
         H            3.796977645553     0.062738880511    -1.258813650558     1.007825032230
         H            2.460395645553    -1.196965119489    -1.248400650558     1.007825032230
         H            2.447691645553    -1.214803119489     1.239238349442     1.007825032230
         H            3.783881645553     0.044595880511     1.281453349442     1.007825032230
         H           -1.483286354447    -2.197903119489    -0.030393650558     1.007825032230
         H           -2.193821354447     2.046128880511    -0.016590650558     1.007825032230
         H           -3.822616354447    -1.299915119489    -0.492840650558     1.007825032230
         H           -4.114585354447     0.446816880511    -0.473439650558     1.007825032230
         H           -3.937970354447    -0.438426119489     1.046688349442     1.007825032230

  Basis Set: AUG-CC-PVTZ
    Blend: AUG-CC-PVTZ
  Basis Set: (AUG-CC-PVTZ AUX)
    Blend: AUG-CC-PVTZ-JKFIT
	 Reference Energy          =    -417.7768280793239342 [Eh]
	 Singles Energy            =      -0.0000000000000000 [Eh]
	 Same-Spin Energy          =      -0.4576918072968500 [Eh]
	 Opposite-Spin Energy      =      -1.4476331379205245 [Eh]
	 Correlation Energy        =      -1.9053249452173744 [Eh]
	 Total Energy              =    -419.6821530245413214 [Eh]

	 ================> DF-SCS-MP2 Energies <==================
	-----------------------------------------------------------
	 SCS Same-Spin Scale       =       0.3333333333333333 [-]
	 SCS Opposite-Spin Scale   =       1.2000000000000000 [-]
	 SCS Same-Spin Energy      =      -0.1525639357656167 [Eh]
	 SCS Opposite-Spin Energy  =      -1.7371597655046294 [Eh]
	 SCS Correlation Energy    =      -1.8897237012702459 [Eh]
	 SCS Total Energy          =    -419.6665517805942045 [Eh]
	-----------------------------------------------------------

  Dipole Moment: [D]
     X:    -2.0649      Y:    -0.4900      Z:     0.0475     Total:     2.1228

*** Psi4 exiting successfully. Buy a developer a beer!
