                               Psi4 1.4a3.dev225

  ==> Input File <==

--------------------------------------------------------------------------
#psi4
#
memory 32 gb

molecule  {
0 1
  N        0.1723510    -0.9422650    -0.0110160
  N       -0.2210270     1.4224780    -0.0033780
  C        2.0395230     0.5887340     0.0077330
  C        2.9514110    -0.3582210    -0.7410450
  C        2.9437130    -0.3688660     0.7522200
  C        0.5840210     0.3414150    -0.0010850
  C       -2.0855860    -0.1066610    -0.0107410
  C       -1.2853338    -0.9970879    -0.0144066
  C       -1.5403890     1.1790090    -0.0074550
  C       -3.5664500    -0.3550010     0.0190800
  H        2.3036370     1.6413390     0.0163460
  H        3.8028480     0.0735720    -1.2571040
  H        2.4662660    -1.1861320    -1.2466910
  H        2.4535620    -1.2039700     1.2409480
  H        3.7897520     0.0554290     1.2831630
  H       -1.4774160    -2.1870700    -0.0286840
  H       -2.1879510     2.0569620    -0.0148810
  H       -3.8167460    -1.2890820    -0.4911310
  H       -4.1087150     0.4576500    -0.4717300
  H       -3.9321000    -0.4275930     1.0483980
units angstrom
no_reorient  #important for SAPT in psi4, default
symmetry c1  #important for SAPT in psi4, default
}

set PROPERTIES_ORIGIN ["COM"]
properties('MP2/aug-cc-pvtz', properties = ['dipole'])
--------------------------------------------------------------------------

    Molecular point group: c1
  Charge       = 0
  Multiplicity = 1
  Basis Set: AUG-CC-PVTZ
    Blend: AUG-CC-PVTZ
  Basis Set: (AUG-CC-PVTZ AUX)
    Blend: AUG-CC-PVTZ-JKFIT

    Orbital Energies [Eh]
    ---------------------

    Doubly Occupied:

       1A    -15.569506     2A    -15.563445     3A    -11.310095
       4A    -11.306514     5A    -11.273352     6A    -11.240628
       7A    -11.229798     8A    -11.225245     9A    -11.225041
      10A    -11.224364    11A     -1.300249    12A     -1.164639
      13A     -1.155251    14A     -1.113097    15A     -0.968634
      16A     -0.916571    17A     -0.868590    18A     -0.817564
      19A     -0.783919    20A     -0.716693    21A     -0.692378
      22A     -0.646367    23A     -0.618165    24A     -0.608245
      25A     -0.591501    26A     -0.561299    27A     -0.556796
      28A     -0.545581    29A     -0.518050    30A     -0.510734
      31A     -0.461125    32A     -0.443372    33A     -0.424661
      34A     -0.409889    35A     -0.404232    36A     -0.357630

  @DF-RHF Final Energy:  -417.71536351950544

   => Energetics <=

    Nuclear Repulsion Energy =            495.4127668336529382
    One-Electron Energy =               -1547.6098151195751598
    Two-Electron Energy =                 634.4816847664167199
    Total Energy =                       -417.7153635195054449
  Basis Set: (AUG-CC-PVTZ AUX)
    Blend: AUG-CC-PVTZ-RI
    Molecular point group: c1

    Geometry (in Angstrom), charge = 0, multiplicity = 1:

       Center              X                  Y                   Z               Mass
    ------------   -----------------  -----------------  -----------------  -----------------
         N            0.179086291109    -0.970453937384    -0.010488674416    14.003074004430
         N           -0.214291708891     1.394289062616    -0.002850674416    14.003074004430
         C            2.046258291109     0.560545062616     0.008260325584    12.000000000000
         C            2.958146291109    -0.386409937384    -0.740517674416    12.000000000000
         C            2.950448291109    -0.397054937384     0.752747325584    12.000000000000
         C            0.590756291109     0.313226062616    -0.000557674416    12.000000000000
         C           -2.078850708891    -0.134849937384    -0.010213674416    12.000000000000
         C           -1.278598508891    -1.025276837384    -0.013879274416    12.000000000000
         C           -1.533653708891     1.150820062616    -0.006927674416    12.000000000000
         C           -3.559714708891    -0.383189937384     0.019607325584    12.000000000000
         H            2.310372291109     1.613150062616     0.016873325584     1.007825032230
         H            3.809583291109     0.045383062616    -1.256576674416     1.007825032230
         H            2.473001291109    -1.214320937384    -1.246163674416     1.007825032230
         H            2.460297291109    -1.232158937384     1.241475325584     1.007825032230
         H            3.796487291109     0.027240062616     1.283690325584     1.007825032230
         H           -1.470680708891    -2.215258937384    -0.028156674416     1.007825032230
         H           -2.181215708891     2.028773062616    -0.014353674416     1.007825032230
         H           -3.810010708891    -1.317270937384    -0.490603674416     1.007825032230
         H           -4.101979708891     0.429461062616    -0.471202674416     1.007825032230
         H           -3.925364708891    -0.455781937384     1.048925325584     1.007825032230

  Basis Set: AUG-CC-PVTZ
    Blend: AUG-CC-PVTZ
  Basis Set: (AUG-CC-PVTZ AUX)
    Blend: AUG-CC-PVTZ-JKFIT
	 Reference Energy          =    -417.7153635195054449 [Eh]
	 Singles Energy            =      -0.0000000000000000 [Eh]
	 Same-Spin Energy          =      -0.4577668891777900 [Eh]
	 Opposite-Spin Energy      =      -1.4507757079321393 [Eh]
	 Correlation Energy        =      -1.9085425971099292 [Eh]
	 Total Energy              =    -419.6239061166153874 [Eh]

	 ================> DF-SCS-MP2 Energies <==================
	-----------------------------------------------------------
	 SCS Same-Spin Scale       =       0.3333333333333333 [-]
	 SCS Opposite-Spin Scale   =       1.2000000000000000 [-]
	 SCS Same-Spin Energy      =      -0.1525889630592633 [Eh]
	 SCS Opposite-Spin Energy  =      -1.7409308495185671 [Eh]
	 SCS Correlation Energy    =      -1.8935198125778305 [Eh]
	 SCS Total Energy          =    -419.6088833320832805 [Eh]
	-----------------------------------------------------------

  Dipole Moment: [D]
     X:    -2.0212      Y:    -0.1875      Z:     0.0422     Total:     2.0304

*** Psi4 exiting successfully. Buy a developer a beer!
