                               Psi4 1.4a3.dev225

  ==> Input File <==

--------------------------------------------------------------------------
#psi4
#
memory 32 gb

molecule  {
0 1
  N        0.1723510    -0.9422650    -0.0110160
  N       -0.2210270     1.4224780    -0.0033780
  C        2.0395230     0.5887340     0.0077330
  C        2.9514110    -0.3582210    -0.7410450
  C        2.9437130    -0.3688660     0.7522200
  C        0.5840210     0.3414150    -0.0010850
  C       -2.0855860    -0.1066610    -0.0107410
  C       -1.1516460    -1.1458400    -0.0150190
  C       -1.5600568     1.1753796    -0.0075158
  C       -3.5664500    -0.3550010     0.0190800
  H        2.3036370     1.6413390     0.0163460
  H        3.8028480     0.0735720    -1.2571040
  H        2.4662660    -1.1861320    -1.2466910
  H        2.4535620    -1.2039700     1.2409480
  H        3.7897520     0.0554290     1.2831630
  H       -1.4774160    -2.1870700    -0.0286840
  H       -2.1879510     2.0569620    -0.0148810
  H       -3.8167460    -1.2890820    -0.4911310
  H       -4.1087150     0.4576500    -0.4717300
  H       -3.9321000    -0.4275930     1.0483980
units angstrom
no_reorient  #important for SAPT in psi4, default
symmetry c1  #important for SAPT in psi4, default
}

set PROPERTIES_ORIGIN ["COM"]
properties('MP2/aug-cc-pvtz', properties = ['dipole'])
--------------------------------------------------------------------------

    Molecular point group: c1
  Charge       = 0
  Multiplicity = 1
  Basis Set: AUG-CC-PVTZ
    Blend: AUG-CC-PVTZ
  Basis Set: (AUG-CC-PVTZ AUX)
    Blend: AUG-CC-PVTZ-JKFIT

    Orbital Energies [Eh]
    ---------------------

    Doubly Occupied:

       1A    -15.564569     2A    -15.564478     3A    -11.312797
       4A    -11.293288     5A    -11.289903     6A    -11.245379
       7A    -11.238082     8A    -11.231041     9A    -11.225603
      10A    -11.224923    11A     -1.299245    12A     -1.178384
      13A     -1.147154    14A     -1.090001    15A     -0.966449
      16A     -0.892906    17A     -0.874565    18A     -0.818438
      19A     -0.796244    20A     -0.715633    21A     -0.693871
      22A     -0.646393    23A     -0.613682    24A     -0.598336
      25A     -0.591208    26A     -0.584108    27A     -0.557304
      28A     -0.555346    29A     -0.523524    30A     -0.510761
      31A     -0.470796    32A     -0.434308    33A     -0.423831
      34A     -0.411216    35A     -0.403602    36A     -0.336093

  @DF-RHF Final Energy:  -417.77842915272947

   => Energetics <=

    Nuclear Repulsion Energy =            493.3456906135605777
    One-Electron Energy =               -1543.6013214139729826
    Two-Electron Energy =                 632.4772016476828185
    Total Energy =                       -417.7784291527294727
  Basis Set: (AUG-CC-PVTZ AUX)
    Blend: AUG-CC-PVTZ-RI
    Molecular point group: c1

    Geometry (in Angstrom), charge = 0, multiplicity = 1:

       Center              X                  Y                   Z               Mass
    ------------   -----------------  -----------------  -----------------  -----------------
         N            0.168881971912    -0.956816422336    -0.010428425796    14.003074004430
         N           -0.224496028088     1.407926577664    -0.002790425796    14.003074004430
         C            2.036053971912     0.574182577664     0.008320574204    12.000000000000
         C            2.947941971912    -0.372772422336    -0.740457425796    12.000000000000
         C            2.940243971912    -0.383417422336     0.752807574204    12.000000000000
         C            0.580551971912     0.326863577664    -0.000497425796    12.000000000000
         C           -2.089055028088    -0.121212422336    -0.010153425796    12.000000000000
         C           -1.155115028088    -1.160391422336    -0.014431425796    12.000000000000
         C           -1.563525828088     1.160828177664    -0.006928225796    12.000000000000
         C           -3.569919028088    -0.369552422336     0.019667574204    12.000000000000
         H            2.300167971912     1.626787577664     0.016933574204     1.007825032230
         H            3.799378971912     0.059020577664    -1.256516425796     1.007825032230
         H            2.462796971912    -1.200683422336    -1.246103425796     1.007825032230
         H            2.450092971912    -1.218521422336     1.241535574204     1.007825032230
         H            3.786282971912     0.040877577664     1.283750574204     1.007825032230
         H           -1.480885028088    -2.201621422336    -0.028096425796     1.007825032230
         H           -2.191420028088     2.042410577664    -0.014293425796     1.007825032230
         H           -3.820215028088    -1.303633422336    -0.490543425796     1.007825032230
         H           -4.112184028088     0.443098577664    -0.471142425796     1.007825032230
         H           -3.935569028088    -0.442144422336     1.048985574204     1.007825032230

  Basis Set: AUG-CC-PVTZ
    Blend: AUG-CC-PVTZ
  Basis Set: (AUG-CC-PVTZ AUX)
    Blend: AUG-CC-PVTZ-JKFIT
	 Reference Energy          =    -417.7784291527294727 [Eh]
	 Singles Energy            =      -0.0000000000000000 [Eh]
	 Same-Spin Energy          =      -0.4578205284389908 [Eh]
	 Opposite-Spin Energy      =      -1.4479760884686363 [Eh]
	 Correlation Energy        =      -1.9057966169076273 [Eh]
	 Total Energy              =    -419.6842257696371234 [Eh]

	 ================> DF-SCS-MP2 Energies <==================
	-----------------------------------------------------------
	 SCS Same-Spin Scale       =       0.3333333333333333 [-]
	 SCS Opposite-Spin Scale   =       1.2000000000000000 [-]
	 SCS Same-Spin Energy      =      -0.1526068428129969 [Eh]
	 SCS Opposite-Spin Energy  =      -1.7375713061623637 [Eh]
	 SCS Correlation Energy    =      -1.8901781489753606 [Eh]
	 SCS Total Energy          =    -419.6686073017048102 [Eh]
	-----------------------------------------------------------

  Dipole Moment: [D]
     X:    -2.0666      Y:    -0.5853      Z:     0.0456     Total:     2.1484

*** Psi4 exiting successfully. Buy a developer a beer!
