                               Psi4 1.4a3.dev225

  ==> Input File <==

--------------------------------------------------------------------------
#psi4
#
memory 32 gb

molecule  {
0 1
  N        0.1723510    -0.9422650    -0.0110160
  N       -0.2210270     1.4224780    -0.0033780
  C        2.0395230     0.5887340     0.0077330
  C        2.9514110    -0.3582210    -0.7410450
  C        2.9437130    -0.3688660     0.7522200
  C        0.5840210     0.3414150    -0.0010850
  C       -2.0855860    -0.1066610    -0.0107410
  C       -1.1516460    -1.1458400    -0.0150190
  C       -1.5013486     1.2710731    -0.0072197
  C       -3.5664500    -0.3550010     0.0190800
  H        2.3036370     1.6413390     0.0163460
  H        3.8028480     0.0735720    -1.2571040
  H        2.4662660    -1.1861320    -1.2466910
  H        2.4535620    -1.2039700     1.2409480
  H        3.7897520     0.0554290     1.2831630
  H       -1.4774160    -2.1870700    -0.0286840
  H       -2.1879510     2.0569620    -0.0148810
  H       -3.8167460    -1.2890820    -0.4911310
  H       -4.1087150     0.4576500    -0.4717300
  H       -3.9321000    -0.4275930     1.0483980
units angstrom
no_reorient  #important for SAPT in psi4, default
symmetry c1  #important for SAPT in psi4, default
}

set PROPERTIES_ORIGIN ["COM"]
properties('MP2/aug-cc-pvtz', properties = ['dipole'])
--------------------------------------------------------------------------

    Molecular point group: c1
  Charge       = 0
  Multiplicity = 1
  Basis Set: AUG-CC-PVTZ
    Blend: AUG-CC-PVTZ
  Basis Set: (AUG-CC-PVTZ AUX)
    Blend: AUG-CC-PVTZ-JKFIT

    Orbital Energies [Eh]
    ---------------------

    Doubly Occupied:

       1A    -15.563659     2A    -15.561986     3A    -11.315643
       4A    -11.295944     5A    -11.283750     6A    -11.251207
       7A    -11.236661     8A    -11.231870     9A    -11.226008
      10A    -11.225324    11A     -1.305276    12A     -1.193229
      13A     -1.145773    14A     -1.075597    15A     -0.969080
      16A     -0.892990    17A     -0.864633    18A     -0.818711
      19A     -0.799813    20A     -0.713467    21A     -0.703773
      22A     -0.645440    23A     -0.615255    24A     -0.599791
      25A     -0.594658    26A     -0.585031    27A     -0.559674
      28A     -0.552064    29A     -0.523138    30A     -0.511357
      31A     -0.466812    32A     -0.432017    33A     -0.425427
      34A     -0.423190    35A     -0.394904    36A     -0.322816

  @DF-RHF Final Energy:  -417.76872713089557

   => Energetics <=

    Nuclear Repulsion Energy =            492.7148541002334809
    One-Electron Energy =               -1542.3152234103390583
    Two-Electron Energy =                 631.8316421792101210
    Total Energy =                       -417.7687271308955133
  Basis Set: (AUG-CC-PVTZ AUX)
    Blend: AUG-CC-PVTZ-RI
    Molecular point group: c1

    Geometry (in Angstrom), charge = 0, multiplicity = 1:

       Center              X                  Y                   Z               Mass
    ------------   -----------------  -----------------  -----------------  -----------------
         N            0.163627830425    -0.965380595456    -0.010454925523    14.003074004430
         N           -0.229750169575     1.399362404544    -0.002816925523    14.003074004430
         C            2.030799830425     0.565618404544     0.008294074477    12.000000000000
         C            2.942687830425    -0.381336595456    -0.740483925523    12.000000000000
         C            2.934989830425    -0.391981595456     0.752781074477    12.000000000000
         C            0.575297830425     0.318299404544    -0.000523925523    12.000000000000
         C           -2.094309169575    -0.129776595456    -0.010179925523    12.000000000000
         C           -1.160369169575    -1.168955595456    -0.014457925523    12.000000000000
         C           -1.510071769575     1.247957504544    -0.006658625523    12.000000000000
         C           -3.575173169575    -0.378116595456     0.019641074477    12.000000000000
         H            2.294913830425     1.618223404544     0.016907074477     1.007825032230
         H            3.794124830425     0.050456404544    -1.256542925523     1.007825032230
         H            2.457542830425    -1.209247595456    -1.246129925523     1.007825032230
         H            2.444838830425    -1.227085595456     1.241509074477     1.007825032230
         H            3.781028830425     0.032313404544     1.283724074477     1.007825032230
         H           -1.486139169575    -2.210185595456    -0.028122925523     1.007825032230
         H           -2.196674169575     2.033846404544    -0.014319925523     1.007825032230
         H           -3.825469169575    -1.312197595456    -0.490569925523     1.007825032230
         H           -4.117438169575     0.434534404544    -0.471168925523     1.007825032230
         H           -3.940823169575    -0.450708595456     1.048959074477     1.007825032230

  Basis Set: AUG-CC-PVTZ
    Blend: AUG-CC-PVTZ
  Basis Set: (AUG-CC-PVTZ AUX)
    Blend: AUG-CC-PVTZ-JKFIT
	 Reference Energy          =    -417.7687271308955701 [Eh]
	 Singles Energy            =      -0.0000000000000000 [Eh]
	 Same-Spin Energy          =      -0.4575720649142169 [Eh]
	 Opposite-Spin Energy      =      -1.4475273783253475 [Eh]
	 Correlation Energy        =      -1.9050994432395645 [Eh]
	 Total Energy              =    -419.6738265741351483 [Eh]

	 ================> DF-SCS-MP2 Energies <==================
	-----------------------------------------------------------
	 SCS Same-Spin Scale       =       0.3333333333333333 [-]
	 SCS Opposite-Spin Scale   =       1.2000000000000000 [-]
	 SCS Same-Spin Energy      =      -0.1525240216380723 [Eh]
	 SCS Opposite-Spin Energy  =      -1.7370328539904170 [Eh]
	 SCS Correlation Energy    =      -1.8895568756284893 [Eh]
	 SCS Total Energy          =    -419.6582840065240703 [Eh]
	-----------------------------------------------------------

  Dipole Moment: [D]
     X:    -2.0627      Y:    -0.3685      Z:     0.0497     Total:     2.0960

*** Psi4 exiting successfully. Buy a developer a beer!
