                               Psi4 1.4a3.dev225

  ==> Input File <==

--------------------------------------------------------------------------
#psi4
#
memory 32 gb

molecule  {
0 1
  N        0.1723510    -0.9422650    -0.0110160
  N       -0.2210270     1.4224780    -0.0033780
  C        2.0395230     0.5887340     0.0077330
  C        3.0719576    -0.4834033    -0.8400294
  C        2.9437130    -0.3688660     0.7522200
  C        0.5840210     0.3414150    -0.0010850
  C       -2.0855860    -0.1066610    -0.0107410
  C       -1.1516460    -1.1458400    -0.0150190
  C       -1.5403890     1.1790090    -0.0074550
  C       -3.5664500    -0.3550010     0.0190800
  H        2.3036370     1.6413390     0.0163460
  H        3.8028480     0.0735720    -1.2571040
  H        2.4662660    -1.1861320    -1.2466910
  H        2.4535620    -1.2039700     1.2409480
  H        3.7897520     0.0554290     1.2831630
  H       -1.4774160    -2.1870700    -0.0286840
  H       -2.1879510     2.0569620    -0.0148810
  H       -3.8167460    -1.2890820    -0.4911310
  H       -4.1087150     0.4576500    -0.4717300
  H       -3.9321000    -0.4275930     1.0483980
units angstrom
no_reorient  #important for SAPT in psi4, default
symmetry c1  #important for SAPT in psi4, default
}

set PROPERTIES_ORIGIN ["COM"]
properties('MP2/aug-cc-pvtz', properties = ['dipole'])
--------------------------------------------------------------------------

    Molecular point group: c1
  Charge       = 0
  Multiplicity = 1
  Basis Set: AUG-CC-PVTZ
    Blend: AUG-CC-PVTZ
  Basis Set: (AUG-CC-PVTZ AUX)
    Blend: AUG-CC-PVTZ-JKFIT

    Orbital Energies [Eh]
    ---------------------

    Doubly Occupied:

       1A    -15.563649     2A    -15.563624     3A    -11.314064
       4A    -11.291743     5A    -11.290365     6A    -11.245070
       7A    -11.239814     8A    -11.239124     9A    -11.237898
      10A    -11.231349    11A     -1.301010    12A     -1.181976
      13A     -1.117793    14A     -1.078103    15A     -0.965910
      16A     -0.891273    17A     -0.877158    18A     -0.837314
      19A     -0.794527    20A     -0.714536    21A     -0.691163
      22A     -0.650737    23A     -0.598262    24A     -0.596867
      25A     -0.592670    26A     -0.579584    27A     -0.564077
      28A     -0.554832    29A     -0.551913    30A     -0.520581
      31A     -0.470782    32A     -0.438552    33A     -0.414725
      34A     -0.403335    35A     -0.391482    36A     -0.323229

  @DF-RHF Final Energy:  -417.74884333164937

   => Energetics <=

    Nuclear Repulsion Energy =            489.9282157526384367
    One-Electron Energy =               -1536.7159291950745228
    Two-Electron Energy =                 629.0388701107867746
    Total Energy =                       -417.7488433316493683
  Basis Set: (AUG-CC-PVTZ AUX)
    Blend: AUG-CC-PVTZ-RI
    Molecular point group: c1

    Geometry (in Angstrom), charge = 0, multiplicity = 1:

       Center              X                  Y                   Z               Mass
    ------------   -----------------  -----------------  -----------------  -----------------
         N            0.156333362074    -0.945937939692    -0.001575172063    14.003074004430
         N           -0.237044637926     1.418805060308     0.006062827937    14.003074004430
         C            2.023505362074     0.585061060308     0.017173827937    12.000000000000
         C            3.055939962074    -0.487076239692    -0.830588572063    12.000000000000
         C            2.927695362074    -0.372538939692     0.761660827937    12.000000000000
         C            0.568003362074     0.337742060308     0.008355827937    12.000000000000
         C           -2.101603637926    -0.110333939692    -0.001300172063    12.000000000000
         C           -1.167663637926    -1.149512939692    -0.005578172063    12.000000000000
         C           -1.556406637926     1.175336060308     0.001985827937    12.000000000000
         C           -3.582467637926    -0.358673939692     0.028520827937    12.000000000000
         H            2.287619362074     1.637666060308     0.025786827937     1.007825032230
         H            3.786830362074     0.069899060308    -1.247663172063     1.007825032230
         H            2.450248362074    -1.189804939692    -1.237250172063     1.007825032230
         H            2.437544362074    -1.207642939692     1.250388827937     1.007825032230
         H            3.773734362074     0.051756060308     1.292603827937     1.007825032230
         H           -1.493433637926    -2.190742939692    -0.019243172063     1.007825032230
         H           -2.203968637926     2.053289060308    -0.005440172063     1.007825032230
         H           -3.832763637926    -1.292754939692    -0.481690172063     1.007825032230
         H           -4.124732637926     0.453977060308    -0.462289172063     1.007825032230
         H           -3.948117637926    -0.431265939692     1.057838827937     1.007825032230

  Basis Set: AUG-CC-PVTZ
    Blend: AUG-CC-PVTZ
  Basis Set: (AUG-CC-PVTZ AUX)
    Blend: AUG-CC-PVTZ-JKFIT
	 Reference Energy          =    -417.7488433316493683 [Eh]
	 Singles Energy            =      -0.0000000000000000 [Eh]
	 Same-Spin Energy          =      -0.4580850480594625 [Eh]
	 Opposite-Spin Energy      =      -1.4507288899354185 [Eh]
	 Correlation Energy        =      -1.9088139379948810 [Eh]
	 Total Energy              =    -419.6576572696442327 [Eh]

	 ================> DF-SCS-MP2 Energies <==================
	-----------------------------------------------------------
	 SCS Same-Spin Scale       =       0.3333333333333333 [-]
	 SCS Opposite-Spin Scale   =       1.2000000000000000 [-]
	 SCS Same-Spin Energy      =      -0.1526950160198208 [Eh]
	 SCS Opposite-Spin Energy  =      -1.7408746679225022 [Eh]
	 SCS Correlation Energy    =      -1.8935696839423231 [Eh]
	 SCS Total Energy          =    -419.6424130155916714 [Eh]
	-----------------------------------------------------------

  Dipole Moment: [D]
     X:    -2.0821      Y:    -0.4893      Z:     0.1756     Total:     2.1460

*** Psi4 exiting successfully. Buy a developer a beer!
