                               Psi4 1.4a3.dev225

  ==> Input File <==

--------------------------------------------------------------------------
#psi4
#
memory 32 gb

molecule  {
0 1
  N        0.1723510    -0.9422650    -0.0110160
  N       -0.2210270     1.4224780    -0.0033780
  C        2.0395230     0.5887340     0.0077330
  C        2.9514110    -0.3582210    -0.7410450
  C        2.9437130    -0.3688660     0.7522200
  C        0.5840210     0.3414150    -0.0010850
  C       -2.0855860    -0.1066610    -0.0107410
  C       -1.1516460    -1.1458400    -0.0150190
  C       -1.5403890     1.1790090    -0.0074550
  C       -3.5664500    -0.3550010     0.0190800
  H        2.3036370     1.6413390     0.0163460
  H        3.8028480     0.0735720    -1.2571040
  H        2.4662660    -1.1861320    -1.2466910
  H        2.4535620    -1.2039700     1.2409480
  H        3.7897520     0.0554290     1.2831630
  H       -1.4774160    -2.1870700    -0.0286840
  H       -2.1879510     2.0569620    -0.0148810
  H       -3.8248039    -1.2955016    -0.4750683
  H       -4.1087150     0.4576500    -0.4717300
  H       -3.9321000    -0.4275930     1.0483980
units angstrom
no_reorient  #important for SAPT in psi4, default
symmetry c1  #important for SAPT in psi4, default
}

set PROPERTIES_ORIGIN ["COM"]
properties('MP2/aug-cc-pvtz', properties = ['dipole'])
--------------------------------------------------------------------------

    Molecular point group: c1
  Charge       = 0
  Multiplicity = 1
  Basis Set: AUG-CC-PVTZ
    Blend: AUG-CC-PVTZ
  Basis Set: (AUG-CC-PVTZ AUX)
    Blend: AUG-CC-PVTZ-JKFIT

    Orbital Energies [Eh]
    ---------------------

    Doubly Occupied:

       1A    -15.564104     2A    -15.564022     3A    -11.313560
       4A    -11.291880     5A    -11.290454     6A    -11.245761
       7A    -11.238145     8A    -11.231339     9A    -11.225869
      10A    -11.225188    11A     -1.301756    12A     -1.182602
      13A     -1.147165    14A     -1.088100    15A     -0.967124
      16A     -0.891396    17A     -0.874850    18A     -0.818658
      19A     -0.796491    20A     -0.715831    21A     -0.694881
      22A     -0.645911    23A     -0.613815    24A     -0.597512
      25A     -0.591779    26A     -0.582618    27A     -0.557911
      28A     -0.555638    29A     -0.523516    30A     -0.511091
      31A     -0.471917    32A     -0.434122    33A     -0.424283
      34A     -0.414311    35A     -0.402815    36A     -0.334315

  @DF-RHF Final Energy:  -417.77952889920613

   => Energetics <=

    Nuclear Repulsion Energy =            493.5275501622532488
    One-Electron Energy =               -1543.9527052979276505
    Two-Electron Energy =                 632.6456262364683880
    Total Energy =                       -417.7795288992060705
  Basis Set: (AUG-CC-PVTZ AUX)
    Blend: AUG-CC-PVTZ-RI
    Molecular point group: c1

    Geometry (in Angstrom), charge = 0, multiplicity = 1:

       Center              X                  Y                   Z               Mass
    ------------   -----------------  -----------------  -----------------  -----------------
         N            0.167182351005    -0.957092986700    -0.010554599992    14.003074004430
         N           -0.226195648995     1.407650013300    -0.002916599992    14.003074004430
         C            2.034354351005     0.573906013300     0.008194400008    12.000000000000
         C            2.946242351005    -0.373048986700    -0.740583599992    12.000000000000
         C            2.938544351005    -0.383693986700     0.752681400008    12.000000000000
         C            0.578852351005     0.326587013300    -0.000623599992    12.000000000000
         C           -2.090754648995    -0.121488986700    -0.010279599992    12.000000000000
         C           -1.156814648995    -1.160667986700    -0.014557599992    12.000000000000
         C           -1.545557648995     1.164181013300    -0.006993599992    12.000000000000
         C           -3.571618648995    -0.369828986700     0.019541400008    12.000000000000
         H            2.298468351005     1.626511013300     0.016807400008     1.007825032230
         H            3.797679351005     0.058744013300    -1.256642599992     1.007825032230
         H            2.461097351005    -1.200959986700    -1.246229599992     1.007825032230
         H            2.448393351005    -1.218797986700     1.241409400008     1.007825032230
         H            3.784583351005     0.040601013300     1.283624400008     1.007825032230
         H           -1.482584648995    -2.201897986700    -0.028222599992     1.007825032230
         H           -2.193119648995     2.042134013300    -0.014419599992     1.007825032230
         H           -3.829972548995    -1.310329586700    -0.474606899992     1.007825032230
         H           -4.113883648995     0.442822013300    -0.471268599992     1.007825032230
         H           -3.937268648995    -0.442420986700     1.048859400008     1.007825032230

  Basis Set: AUG-CC-PVTZ
    Blend: AUG-CC-PVTZ
  Basis Set: (AUG-CC-PVTZ AUX)
    Blend: AUG-CC-PVTZ-JKFIT
	 Reference Energy          =    -417.7795288992061273 [Eh]
	 Singles Energy            =      -0.0000000000000000 [Eh]
	 Same-Spin Energy          =      -0.4577104023318275 [Eh]
	 Opposite-Spin Energy      =      -1.4475243834849014 [Eh]
	 Correlation Energy        =      -1.9052347858167289 [Eh]
	 Total Energy              =    -419.6847636850228582 [Eh]

	 ================> DF-SCS-MP2 Energies <==================
	-----------------------------------------------------------
	 SCS Same-Spin Scale       =       0.3333333333333333 [-]
	 SCS Opposite-Spin Scale   =       1.2000000000000000 [-]
	 SCS Same-Spin Energy      =      -0.1525701341106092 [Eh]
	 SCS Opposite-Spin Energy  =      -1.7370292601818818 [Eh]
	 SCS Correlation Energy    =      -1.8895993942924909 [Eh]
	 SCS Total Energy          =    -419.6691282934986020 [Eh]
	-----------------------------------------------------------

  Dipole Moment: [D]
     X:    -2.0489      Y:    -0.5770      Z:     0.0512     Total:     2.1292

*** Psi4 exiting successfully. Buy a developer a beer!
