                               Psi4 1.4a3.dev225

  ==> Input File <==

--------------------------------------------------------------------------
#psi4
#
memory 32 gb

molecule  {
0 1
  N        0.1723510    -0.9422650    -0.0110160
  N       -0.2210270     1.4224780    -0.0033780
  C        2.0395230     0.5887340     0.0077330
  C        2.9514110    -0.3582210    -0.7410450
  C        2.9437130    -0.3688660     0.7522200
  C        0.5840210     0.3414150    -0.0010850
  C       -2.0695395    -0.2428780     0.0660664
  C       -1.1516460    -1.1458400    -0.0150190
  C       -1.5403890     1.1790090    -0.0074550
  C       -3.5664500    -0.3550010     0.0190800
  H        2.3036370     1.6413390     0.0163460
  H        3.8028480     0.0735720    -1.2571040
  H        2.4662660    -1.1861320    -1.2466910
  H        2.4535620    -1.2039700     1.2409480
  H        3.7897520     0.0554290     1.2831630
  H       -1.4774160    -2.1870700    -0.0286840
  H       -2.1879510     2.0569620    -0.0148810
  H       -3.8167460    -1.2890820    -0.4911310
  H       -4.1087150     0.4576500    -0.4717300
  H       -3.9321000    -0.4275930     1.0483980
units angstrom
no_reorient  #important for SAPT in psi4, default
symmetry c1  #important for SAPT in psi4, default
}

set PROPERTIES_ORIGIN ["COM"]
properties('MP2/aug-cc-pvtz', properties = ['dipole'])
--------------------------------------------------------------------------

    Molecular point group: c1
  Charge       = 0
  Multiplicity = 1
  Basis Set: AUG-CC-PVTZ
    Blend: AUG-CC-PVTZ
  Basis Set: (AUG-CC-PVTZ AUX)
    Blend: AUG-CC-PVTZ-JKFIT

    Orbital Energies [Eh]
    ---------------------

    Doubly Occupied:

       1A    -15.569649     2A    -15.556205     3A    -11.314012
       4A    -11.309760     5A    -11.268316     6A    -11.244822
       7A    -11.239136     8A    -11.231158     9A    -11.225572
      10A    -11.224888    11A     -1.300890    12A     -1.182622
      13A     -1.147588    14A     -1.088956    15A     -0.968160
      16A     -0.906974    17A     -0.858231    18A     -0.818119
      19A     -0.796402    20A     -0.715526    21A     -0.691361
      22A     -0.645653    23A     -0.615724    24A     -0.605098
      25A     -0.595392    26A     -0.575597    27A     -0.557713
      28A     -0.550863    29A     -0.522242    30A     -0.510454
      31A     -0.465816    32A     -0.435964    33A     -0.424502
      34A     -0.415686    35A     -0.398409    36A     -0.335023

  @DF-RHF Final Energy:  -417.75543532858092

   => Energetics <=

    Nuclear Repulsion Energy =            493.5290114039331115
    One-Electron Energy =               -1543.9439297833007458
    Two-Electron Energy =                 632.6594830507867755
    Total Energy =                       -417.7554353285809157
  Basis Set: (AUG-CC-PVTZ AUX)
    Blend: AUG-CC-PVTZ-RI
    Molecular point group: c1

    Geometry (in Angstrom), charge = 0, multiplicity = 1:

       Center              X                  Y                   Z               Mass
    ------------   -----------------  -----------------  -----------------  -----------------
         N            0.165685689530    -0.944950379606    -0.017307812298    14.003074004430
         N           -0.227692310470     1.419792620394    -0.009669812298    14.003074004430
         C            2.032857689530     0.586048620394     0.001441187702    12.000000000000
         C            2.944745689530    -0.360906379606    -0.747336812298    12.000000000000
         C            2.937047689530    -0.371551379606     0.745928187702    12.000000000000
         C            0.577355689530     0.338729620394    -0.007376812298    12.000000000000
         C           -2.076204810470    -0.245563379606     0.059774587702    12.000000000000
         C           -1.158311310470    -1.148525379606    -0.021310812298    12.000000000000
         C           -1.547054310470     1.176323620394    -0.013746812298    12.000000000000
         C           -3.573115310470    -0.357686379606     0.012788187702    12.000000000000
         H            2.296971689530     1.638653620394     0.010054187702     1.007825032230
         H            3.796182689530     0.070886620394    -1.263395812298     1.007825032230
         H            2.459600689530    -1.188817379606    -1.252982812298     1.007825032230
         H            2.446896689530    -1.206655379606     1.234656187702     1.007825032230
         H            3.783086689530     0.052743620394     1.276871187702     1.007825032230
         H           -1.484081310470    -2.189755379606    -0.034975812298     1.007825032230
         H           -2.194616310470     2.054276620394    -0.021172812298     1.007825032230
         H           -3.823411310470    -1.291767379606    -0.497422812298     1.007825032230
         H           -4.115380310470     0.454964620394    -0.478021812298     1.007825032230
         H           -3.938765310470    -0.430278379606     1.042106187702     1.007825032230

  Basis Set: AUG-CC-PVTZ
    Blend: AUG-CC-PVTZ
  Basis Set: (AUG-CC-PVTZ AUX)
    Blend: AUG-CC-PVTZ-JKFIT
	 Reference Energy          =    -417.7554353285809157 [Eh]
	 Singles Energy            =      -0.0000000000000000 [Eh]
	 Same-Spin Energy          =      -0.4573209325825038 [Eh]
	 Opposite-Spin Energy      =      -1.4482938358916240 [Eh]
	 Correlation Energy        =      -1.9056147684741278 [Eh]
	 Total Energy              =    -419.6610500970550675 [Eh]

	 ================> DF-SCS-MP2 Energies <==================
	-----------------------------------------------------------
	 SCS Same-Spin Scale       =       0.3333333333333333 [-]
	 SCS Opposite-Spin Scale   =       1.2000000000000000 [-]
	 SCS Same-Spin Energy      =      -0.1524403108608346 [Eh]
	 SCS Opposite-Spin Energy  =      -1.7379526030699488 [Eh]
	 SCS Correlation Energy    =      -1.8903929139307833 [Eh]
	 SCS Total Energy          =    -419.6458282425116977 [Eh]
	-----------------------------------------------------------

  Dipole Moment: [D]
     X:    -2.0716      Y:    -0.3166      Z:     0.0490     Total:     2.0962

*** Psi4 exiting successfully. Buy a developer a beer!
