                               Psi4 1.4a3.dev225

  ==> Input File <==

--------------------------------------------------------------------------
#psi4
#
memory 32 gb

molecule  {
0 1
  N        0.1723510    -0.9422650    -0.0110160
  N       -0.2210270     1.4224780    -0.0033780
  C        2.0395230     0.5887340     0.0077330
  C        2.9514110    -0.3582210    -0.7410450
  C        2.9437130    -0.3688660     0.7522200
  C        0.5840210     0.3414150    -0.0010850
  C       -2.0855860    -0.1066610    -0.0107410
  C       -1.1516460    -1.1458400    -0.0150190
  C       -1.5403890     1.1790090    -0.0074550
  C       -3.5664500    -0.3550010     0.0190800
  H        2.3036370     1.6413390     0.0163460
  H        3.8028480     0.0735720    -1.2571040
  H        2.4662660    -1.1861320    -1.2466910
  H        2.4535620    -1.2039700     1.2409480
  H        3.7897520     0.0554290     1.2831630
  H       -1.4774160    -2.1870700    -0.0286840
  H       -2.0692368     1.8960114    -0.0135196
  H       -3.8167460    -1.2890820    -0.4911310
  H       -4.1087150     0.4576500    -0.4717300
  H       -3.9321000    -0.4275930     1.0483980
units angstrom
no_reorient  #important for SAPT in psi4, default
symmetry c1  #important for SAPT in psi4, default
}

set PROPERTIES_ORIGIN ["COM"]
properties('MP2/aug-cc-pvtz', properties = ['dipole'])
--------------------------------------------------------------------------

    Molecular point group: c1
  Charge       = 0
  Multiplicity = 1
  Basis Set: AUG-CC-PVTZ
    Blend: AUG-CC-PVTZ
  Basis Set: (AUG-CC-PVTZ AUX)
    Blend: AUG-CC-PVTZ-JKFIT

    Orbital Energies [Eh]
    ---------------------

    Doubly Occupied:

       1A    -15.563719     2A    -15.562694     3A    -11.312125
       4A    -11.290794     5A    -11.266786     6A    -11.244323
       7A    -11.238564     8A    -11.230713     9A    -11.225406
      10A    -11.224726    11A     -1.301258    12A     -1.184135
      13A     -1.146841    14A     -1.090091    15A     -0.970687
      16A     -0.909315    17A     -0.874683    18A     -0.818230
      19A     -0.808878    20A     -0.718205    21A     -0.703902
      22A     -0.652228    23A     -0.615621    24A     -0.603138
      25A     -0.598030    26A     -0.588931    27A     -0.557901
      28A     -0.555144    29A     -0.523803    30A     -0.510671
      31A     -0.471089    32A     -0.433625    33A     -0.423904
      34A     -0.413559    35A     -0.403722    36A     -0.333652

  @DF-RHF Final Energy:  -417.74585216677491

   => Energetics <=

    Nuclear Repulsion Energy =            494.7510928856614782
    One-Electron Energy =               -1546.2517030515932674
    Two-Electron Energy =                 633.7547579991569364
    Total Energy =                       -417.7458521667749665
  Basis Set: (AUG-CC-PVTZ AUX)
    Blend: AUG-CC-PVTZ-RI
    Molecular point group: c1

    Geometry (in Angstrom), charge = 0, multiplicity = 1:

       Center              X                  Y                   Z               Mass
    ------------   -----------------  -----------------  -----------------  -----------------
         N            0.166229487754    -0.955931477890    -0.010444099901    14.003074004430
         N           -0.227148512246     1.408811522110    -0.002806099901    14.003074004430
         C            2.033401487754     0.575067522110     0.008304900099    12.000000000000
         C            2.945289487754    -0.371887477890    -0.740473099901    12.000000000000
         C            2.937591487754    -0.382532477890     0.752791900099    12.000000000000
         C            0.577899487754     0.327748522110    -0.000513099901    12.000000000000
         C           -2.091707512246    -0.120327477890    -0.010169099901    12.000000000000
         C           -1.157767512246    -1.159506477890    -0.014447099901    12.000000000000
         C           -1.546510512246     1.165342522110    -0.006883099901    12.000000000000
         C           -3.572571512246    -0.368667477890     0.019651900099    12.000000000000
         H            2.297515487754     1.627672522110     0.016917900099     1.007825032230
         H            3.796726487754     0.059905522110    -1.256532099901     1.007825032230
         H            2.460144487754    -1.199798477890    -1.246119099901     1.007825032230
         H            2.447440487754    -1.217636477890     1.241519900099     1.007825032230
         H            3.783630487754     0.041762522110     1.283734900099     1.007825032230
         H           -1.483537512246    -2.200736477890    -0.028112099901     1.007825032230
         H           -2.075358312246     1.882344922110    -0.012947699901     1.007825032230
         H           -3.822867512246    -1.302748477890    -0.490559099901     1.007825032230
         H           -4.114836512246     0.443983522110    -0.471158099901     1.007825032230
         H           -3.938221512246    -0.441259477890     1.048969900099     1.007825032230

  Basis Set: AUG-CC-PVTZ
    Blend: AUG-CC-PVTZ
  Basis Set: (AUG-CC-PVTZ AUX)
    Blend: AUG-CC-PVTZ-JKFIT
	 Reference Energy          =    -417.7458521667749096 [Eh]
	 Singles Energy            =      -0.0000000000000000 [Eh]
	 Same-Spin Energy          =      -0.4574187005405662 [Eh]
	 Opposite-Spin Energy      =      -1.4468371294851479 [Eh]
	 Correlation Energy        =      -1.9042558300257140 [Eh]
	 Total Energy              =    -419.6501079968006138 [Eh]

	 ================> DF-SCS-MP2 Energies <==================
	-----------------------------------------------------------
	 SCS Same-Spin Scale       =       0.3333333333333333 [-]
	 SCS Opposite-Spin Scale   =       1.2000000000000000 [-]
	 SCS Same-Spin Energy      =      -0.1524729001801887 [Eh]
	 SCS Opposite-Spin Energy  =      -1.7362045553821774 [Eh]
	 SCS Correlation Energy    =      -1.8886774555623662 [Eh]
	 SCS Total Energy          =    -419.6345296223372543 [Eh]
	-----------------------------------------------------------

  Dipole Moment: [D]
     X:    -2.1130      Y:    -0.5563      Z:     0.0458     Total:     2.1855

*** Psi4 exiting successfully. Buy a developer a beer!
