                               Psi4 1.4a3.dev225

  ==> Input File <==

--------------------------------------------------------------------------
#psi4
#
memory 32 gb

molecule  {
0 1
  N        0.1723510    -0.9422650    -0.0110160
  N       -0.2210270     1.4224780    -0.0033780
  C        2.0395230     0.5887340     0.0077330
  C        2.9514110    -0.3582210    -0.7410450
  C        2.9437130    -0.3688660     0.7522200
  C        0.5840210     0.3414150    -0.0010850
  C       -2.0855860    -0.1066610    -0.0107410
  C       -1.1516460    -1.1458400    -0.0150190
  C       -1.5599092     1.1329770    -0.0075727
  C       -3.5664500    -0.3550010     0.0190800
  H        2.3036370     1.6413390     0.0163460
  H        3.8028480     0.0735720    -1.2571040
  H        2.4662660    -1.1861320    -1.2466910
  H        2.4535620    -1.2039700     1.2409480
  H        3.7897520     0.0554290     1.2831630
  H       -1.4774160    -2.1870700    -0.0286840
  H       -2.1879510     2.0569620    -0.0148810
  H       -3.8167460    -1.2890820    -0.4911310
  H       -4.1087150     0.4576500    -0.4717300
  H       -3.9321000    -0.4275930     1.0483980
units angstrom
no_reorient  #important for SAPT in psi4, default
symmetry c1  #important for SAPT in psi4, default
}

set PROPERTIES_ORIGIN ["COM"]
properties('MP2/aug-cc-pvtz', properties = ['dipole'])
--------------------------------------------------------------------------

    Molecular point group: c1
  Charge       = 0
  Multiplicity = 1
  Basis Set: AUG-CC-PVTZ
    Blend: AUG-CC-PVTZ
  Basis Set: (AUG-CC-PVTZ AUX)
    Blend: AUG-CC-PVTZ-JKFIT

    Orbital Energies [Eh]
    ---------------------

    Doubly Occupied:

       1A    -15.565311     2A    -15.564245     3A    -11.312550
       4A    -11.295964     5A    -11.286719     6A    -11.241634
       7A    -11.238759     8A    -11.231092     9A    -11.225812
      10A    -11.225133    11A     -1.300747    12A     -1.176960
      13A     -1.148290    14A     -1.095338    15A     -0.966664
      16A     -0.892744    17A     -0.878561    18A     -0.818651
      19A     -0.793671    20A     -0.717068    21A     -0.692897
      22A     -0.645785    23A     -0.614316    24A     -0.600248
      25A     -0.591615    26A     -0.572926    27A     -0.557875
      28A     -0.556455    29A     -0.523450    30A     -0.511067
      31A     -0.473023    32A     -0.435822    33A     -0.423533
      34A     -0.410448    35A     -0.405698    36A     -0.340658

  @DF-RHF Final Energy:  -417.77599604840339

   => Energetics <=

    Nuclear Repulsion Energy =            494.0027313322980262
    One-Electron Energy =               -1544.8939972243649663
    Two-Electron Energy =                 633.1152698436635546
    Total Energy =                       -417.7759960484033854
  Basis Set: (AUG-CC-PVTZ AUX)
    Blend: AUG-CC-PVTZ-RI
    Molecular point group: c1

    Geometry (in Angstrom), charge = 0, multiplicity = 1:

       Center              X                  Y                   Z               Mass
    ------------   -----------------  -----------------  -----------------  -----------------
         N            0.168868762321    -0.953021564721    -0.010423333481    14.003074004430
         N           -0.224509237679     1.411721435279    -0.002785333481    14.003074004430
         C            2.036040762321     0.577977435279     0.008325666519    12.000000000000
         C            2.947928762321    -0.368977564721    -0.740452333481    12.000000000000
         C            2.940230762321    -0.379622564721     0.752812666519    12.000000000000
         C            0.580538762321     0.330658435279    -0.000492333481    12.000000000000
         C           -2.089068237679    -0.117417564721    -0.010148333481    12.000000000000
         C           -1.155128237679    -1.156596564721    -0.014426333481    12.000000000000
         C           -1.563391437679     1.122220435279    -0.006980033481    12.000000000000
         C           -3.569932237679    -0.365757564721     0.019672666519    12.000000000000
         H            2.300154762321     1.630582435279     0.016938666519     1.007825032230
         H            3.799365762321     0.062815435279    -1.256511333481     1.007825032230
         H            2.462783762321    -1.196888564721    -1.246098333481     1.007825032230
         H            2.450079762321    -1.214726564721     1.241540666519     1.007825032230
         H            3.786269762321     0.044672435279     1.283755666519     1.007825032230
         H           -1.480898237679    -2.197826564721    -0.028091333481     1.007825032230
         H           -2.191433237679     2.046205435279    -0.014288333481     1.007825032230
         H           -3.820228237679    -1.299838564721    -0.490538333481     1.007825032230
         H           -4.112197237679     0.446893435279    -0.471137333481     1.007825032230
         H           -3.935582237679    -0.438349564721     1.048990666519     1.007825032230

  Basis Set: AUG-CC-PVTZ
    Blend: AUG-CC-PVTZ
  Basis Set: (AUG-CC-PVTZ AUX)
    Blend: AUG-CC-PVTZ-JKFIT
	 Reference Energy          =    -417.7759960484033854 [Eh]
	 Singles Energy            =      -0.0000000000000000 [Eh]
	 Same-Spin Energy          =      -0.4577126394704278 [Eh]
	 Opposite-Spin Energy      =      -1.4479738783148084 [Eh]
	 Correlation Energy        =      -1.9056865177852362 [Eh]
	 Total Energy              =    -419.6816825661886128 [Eh]

	 ================> DF-SCS-MP2 Energies <==================
	-----------------------------------------------------------
	 SCS Same-Spin Scale       =       0.3333333333333333 [-]
	 SCS Opposite-Spin Scale   =       1.2000000000000000 [-]
	 SCS Same-Spin Energy      =      -0.1525708798234759 [Eh]
	 SCS Opposite-Spin Energy  =      -1.7375686539777699 [Eh]
	 SCS Correlation Energy    =      -1.8901395338012459 [Eh]
	 SCS Total Energy          =    -419.6661355822046175 [Eh]
	-----------------------------------------------------------

  Dipole Moment: [D]
     X:    -2.0209      Y:    -0.6645      Z:     0.0446     Total:     2.1278

*** Psi4 exiting successfully. Buy a developer a beer!
