                               Psi4 1.4a3.dev225

  ==> Input File <==

--------------------------------------------------------------------------
#psi4
#
memory 32 gb

molecule  {
0 1
  N        0.1723510    -0.9422650    -0.0110160
  N       -0.2210270     1.4224780    -0.0033780
  C        2.0395230     0.5887340     0.0077330
  C        2.9514110    -0.3582210    -0.7410450
  C        2.9437130    -0.3688660     0.7522200
  C        0.5840210     0.3414150    -0.0010850
  C       -1.9945786    -0.1415606    -0.0098270
  C       -1.1516460    -1.1458400    -0.0150190
  C       -1.5403890     1.1790090    -0.0074550
  C       -3.5664500    -0.3550010     0.0190800
  H        2.3036370     1.6413390     0.0163460
  H        3.8028480     0.0735720    -1.2571040
  H        2.4662660    -1.1861320    -1.2466910
  H        2.4535620    -1.2039700     1.2409480
  H        3.7897520     0.0554290     1.2831630
  H       -1.4774160    -2.1870700    -0.0286840
  H       -2.1879510     2.0569620    -0.0148810
  H       -3.8167460    -1.2890820    -0.4911310
  H       -4.1087150     0.4576500    -0.4717300
  H       -3.9321000    -0.4275930     1.0483980
units angstrom
no_reorient  #important for SAPT in psi4, default
symmetry c1  #important for SAPT in psi4, default
}

set PROPERTIES_ORIGIN ["COM"]
properties('MP2/aug-cc-pvtz', properties = ['dipole'])
--------------------------------------------------------------------------

    Molecular point group: c1
  Charge       = 0
  Multiplicity = 1
  Basis Set: AUG-CC-PVTZ
    Blend: AUG-CC-PVTZ
  Basis Set: (AUG-CC-PVTZ AUX)
    Blend: AUG-CC-PVTZ-JKFIT

    Orbital Energies [Eh]
    ---------------------

    Doubly Occupied:

       1A    -15.566007     2A    -15.560583     3A    -11.312181
       4A    -11.295038     5A    -11.278309     6A    -11.240431
       7A    -11.239939     8A    -11.230669     9A    -11.225130
      10A    -11.224448    11A     -1.305767    12A     -1.184406
      13A     -1.148095    14A     -1.085520    15A     -0.959028
      16A     -0.902827    17A     -0.872596    18A     -0.817938
      19A     -0.798772    20A     -0.719180    21A     -0.696642
      22A     -0.647337    23A     -0.613896    24A     -0.595939
      25A     -0.594940    26A     -0.572065    27A     -0.557523
      28A     -0.555747    29A     -0.523030    30A     -0.510718
      31A     -0.459532    32A     -0.437887    33A     -0.423276
      34A     -0.414805    35A     -0.405293    36A     -0.341045

  @DF-RHF Final Energy:  -417.76896063978143

   => Energetics <=

    Nuclear Repulsion Energy =            494.7009813392505748
    One-Electron Energy =               -1546.3068097117889010
    Two-Electron Energy =                 633.8368677327569003
    Total Energy =                       -417.7689606397814259
  Basis Set: (AUG-CC-PVTZ AUX)
    Blend: AUG-CC-PVTZ-RI
    Molecular point group: c1

    Geometry (in Angstrom), charge = 0, multiplicity = 1:

       Center              X                  Y                   Z               Mass
    ------------   -----------------  -----------------  -----------------  -----------------
         N            0.158976998503    -0.954017868554    -0.010515666371    14.003074004430
         N           -0.234401001497     1.410725131446    -0.002877666371    14.003074004430
         C            2.026148998503     0.576981131446     0.008233333629    12.000000000000
         C            2.938036998503    -0.369973868554    -0.740544666371    12.000000000000
         C            2.930338998503    -0.380618868554     0.752720333629    12.000000000000
         C            0.570646998503     0.329662131446    -0.000584666371    12.000000000000
         C           -2.007952601497    -0.153313468554    -0.009326666371    12.000000000000
         C           -1.165020001497    -1.157592868554    -0.014518666371    12.000000000000
         C           -1.553763001497     1.167256131446    -0.006954666371    12.000000000000
         C           -3.579824001497    -0.366753868554     0.019580333629    12.000000000000
         H            2.290262998503     1.629586131446     0.016846333629     1.007825032230
         H            3.789473998503     0.061819131446    -1.256603666371     1.007825032230
         H            2.452891998503    -1.197884868554    -1.246190666371     1.007825032230
         H            2.440187998503    -1.215722868554     1.241448333629     1.007825032230
         H            3.776377998503     0.043676131446     1.283663333629     1.007825032230
         H           -1.490790001497    -2.198822868554    -0.028183666371     1.007825032230
         H           -2.201325001497     2.045209131446    -0.014380666371     1.007825032230
         H           -3.830120001497    -1.300834868554    -0.490630666371     1.007825032230
         H           -4.122089001497     0.445897131446    -0.471229666371     1.007825032230
         H           -3.945474001497    -0.439345868554     1.048898333629     1.007825032230

  Basis Set: AUG-CC-PVTZ
    Blend: AUG-CC-PVTZ
  Basis Set: (AUG-CC-PVTZ AUX)
    Blend: AUG-CC-PVTZ-JKFIT
	 Reference Energy          =    -417.7689606397814259 [Eh]
	 Singles Energy            =      -0.0000000000000000 [Eh]
	 Same-Spin Energy          =      -0.4573533824724320 [Eh]
	 Opposite-Spin Energy      =      -1.4472841139714576 [Eh]
	 Correlation Energy        =      -1.9046374964438897 [Eh]
	 Total Energy              =    -419.6735981362253369 [Eh]

	 ================> DF-SCS-MP2 Energies <==================
	-----------------------------------------------------------
	 SCS Same-Spin Scale       =       0.3333333333333333 [-]
	 SCS Opposite-Spin Scale   =       1.2000000000000000 [-]
	 SCS Same-Spin Energy      =      -0.1524511274908106 [Eh]
	 SCS Opposite-Spin Energy  =      -1.7367409367657491 [Eh]
	 SCS Correlation Energy    =      -1.8891920642565598 [Eh]
	 SCS Total Energy          =    -419.6581527040380024 [Eh]
	-----------------------------------------------------------

  Dipole Moment: [D]
     X:    -1.9626      Y:    -0.4650      Z:     0.0363     Total:     2.0173

*** Psi4 exiting successfully. Buy a developer a beer!
