                               Psi4 1.4a3.dev225

  ==> Input File <==

--------------------------------------------------------------------------
#psi4
#
memory 32 gb

molecule  {
0 1
  N        0.1723510    -0.9422650    -0.0110160
  N       -0.2210270     1.4224780    -0.0033780
  C        2.0395230     0.5887340     0.0077330
  C        2.9514110    -0.3582210    -0.7410450
  C        2.9437130    -0.3688660     0.7522200
  C        0.5840210     0.3414150    -0.0010850
  C       -2.0855860    -0.1066610    -0.0107410
  C       -1.1516460    -1.1458400    -0.0150190
  C       -1.5403890     1.1790090    -0.0074550
  C       -3.5664500    -0.3550010     0.0190800
  H        2.3036370     1.6413390     0.0163460
  H        3.8028480     0.0735720    -1.2571040
  H        2.4662660    -1.1861320    -1.2466910
  H        2.3631838    -1.3579535     1.3310638
  H        3.7897520     0.0554290     1.2831630
  H       -1.4774160    -2.1870700    -0.0286840
  H       -2.1879510     2.0569620    -0.0148810
  H       -3.8167460    -1.2890820    -0.4911310
  H       -4.1087150     0.4576500    -0.4717300
  H       -3.9321000    -0.4275930     1.0483980
units angstrom
no_reorient  #important for SAPT in psi4, default
symmetry c1  #important for SAPT in psi4, default
}

set PROPERTIES_ORIGIN ["COM"]
properties('MP2/aug-cc-pvtz', properties = ['dipole'])
--------------------------------------------------------------------------

    Molecular point group: c1
  Charge       = 0
  Multiplicity = 1
  Basis Set: AUG-CC-PVTZ
    Blend: AUG-CC-PVTZ
  Basis Set: (AUG-CC-PVTZ AUX)
    Blend: AUG-CC-PVTZ-JKFIT

    Orbital Energies [Eh]
    ---------------------

    Doubly Occupied:

       1A    -15.564413     2A    -15.564023     3A    -11.313851
       4A    -11.291802     5A    -11.290381     6A    -11.245793
       7A    -11.245786     8A    -11.238218     9A    -11.233164
      10A    -11.227320    11A     -1.301832    12A     -1.182636
      13A     -1.146540    14A     -1.088044    15A     -0.967050
      16A     -0.891381    17A     -0.874444    18A     -0.808808
      19A     -0.792529    20A     -0.714483    21A     -0.689851
      22A     -0.646116    23A     -0.606554    24A     -0.598439
      25A     -0.590859    26A     -0.582629    27A     -0.558513
      28A     -0.555124    29A     -0.522152    30A     -0.488555
      31A     -0.471690    32A     -0.432330    33A     -0.425399
      34A     -0.413479    35A     -0.402359    36A     -0.334910

  @DF-RHF Final Energy:  -417.75755864171032

   => Energetics <=

    Nuclear Repulsion Energy =            492.8168610722903509
    One-Electron Energy =               -1542.5459286874488498
    Two-Electron Energy =                 631.9715089734481808
    Total Energy =                       -417.7575586417103750
  Basis Set: (AUG-CC-PVTZ AUX)
    Blend: AUG-CC-PVTZ-RI
    Molecular point group: c1

    Geometry (in Angstrom), charge = 0, multiplicity = 1:

       Center              X                  Y                   Z               Mass
    ------------   -----------------  -----------------  -----------------  -----------------
         N            0.167801099048    -0.955983845039    -0.011111208880    14.003074004430
         N           -0.225576900952     1.408759154961    -0.003473208880    14.003074004430
         C            2.034973099048     0.575015154961     0.007637791120    12.000000000000
         C            2.946861099048    -0.371939845039    -0.741140208880    12.000000000000
         C            2.939163099048    -0.382584845039     0.752124791120    12.000000000000
         C            0.579471099048     0.327696154961    -0.001180208880    12.000000000000
         C           -2.090135900952    -0.120379845039    -0.010836208880    12.000000000000
         C           -1.156195900952    -1.159558845039    -0.015114208880    12.000000000000
         C           -1.544938900952     1.165290154961    -0.007550208880    12.000000000000
         C           -3.570999900952    -0.368719845039     0.018984791120    12.000000000000
         H            2.299087099048     1.627620154961     0.016250791120     1.007825032230
         H            3.798298099048     0.059853154961    -1.257199208880     1.007825032230
         H            2.461716099048    -1.199850845039    -1.246786208880     1.007825032230
         H            2.358633899048    -1.371672345039     1.330968591120     1.007825032230
         H            3.785202099048     0.041710154961     1.283067791120     1.007825032230
         H           -1.481965900952    -2.200788845039    -0.028779208880     1.007825032230
         H           -2.192500900952     2.043243154961    -0.014976208880     1.007825032230
         H           -3.821295900952    -1.302800845039    -0.491226208880     1.007825032230
         H           -4.113264900952     0.443931154961    -0.471825208880     1.007825032230
         H           -3.936649900952    -0.441311845039     1.048302791120     1.007825032230

  Basis Set: AUG-CC-PVTZ
    Blend: AUG-CC-PVTZ
  Basis Set: (AUG-CC-PVTZ AUX)
    Blend: AUG-CC-PVTZ-JKFIT
	 Reference Energy          =    -417.7575586417103182 [Eh]
	 Singles Energy            =      -0.0000000000000000 [Eh]
	 Same-Spin Energy          =      -0.4581210286942843 [Eh]
	 Opposite-Spin Energy      =      -1.4495020483069063 [Eh]
	 Correlation Energy        =      -1.9076230770011906 [Eh]
	 Total Energy              =    -419.6651817187114943 [Eh]

	 ================> DF-SCS-MP2 Energies <==================
	-----------------------------------------------------------
	 SCS Same-Spin Scale       =       0.3333333333333333 [-]
	 SCS Opposite-Spin Scale   =       1.2000000000000000 [-]
	 SCS Same-Spin Energy      =      -0.1527070095647614 [Eh]
	 SCS Opposite-Spin Energy  =      -1.7394024579682876 [Eh]
	 SCS Correlation Energy    =      -1.8921094675330490 [Eh]
	 SCS Total Energy          =    -419.6496681092433505 [Eh]
	-----------------------------------------------------------

  Dipole Moment: [D]
     X:    -2.0612      Y:    -0.5352      Z:    -0.0183     Total:     2.1297

*** Psi4 exiting successfully. Buy a developer a beer!
