                               Psi4 1.4a3.dev225

  ==> Input File <==

--------------------------------------------------------------------------
#psi4
#
memory 32 gb

molecule  {
0 1
  N        0.1723510    -0.9422650    -0.0110160
  N       -0.2210270     1.4224780    -0.0033780
  C        2.0395230     0.5887340     0.0077330
  C        2.9514110    -0.3582210    -0.7410450
  C        2.9437130    -0.3688660     0.7522200
  C        0.5840210     0.3414150    -0.0010850
  C       -2.0855860    -0.1066610    -0.0107410
  C       -1.1714136    -1.1488794    -0.0150788
  C       -1.5403890     1.1790090    -0.0074550
  C       -3.5664500    -0.3550010     0.0190800
  H        2.3036370     1.6413390     0.0163460
  H        3.8028480     0.0735720    -1.2571040
  H        2.4662660    -1.1861320    -1.2466910
  H        2.4535620    -1.2039700     1.2409480
  H        3.7897520     0.0554290     1.2831630
  H       -1.4774160    -2.1870700    -0.0286840
  H       -2.1879510     2.0569620    -0.0148810
  H       -3.8167460    -1.2890820    -0.4911310
  H       -4.1087150     0.4576500    -0.4717300
  H       -3.9321000    -0.4275930     1.0483980
units angstrom
no_reorient  #important for SAPT in psi4, default
symmetry c1  #important for SAPT in psi4, default
}

set PROPERTIES_ORIGIN ["COM"]
properties('MP2/aug-cc-pvtz', properties = ['dipole'])
--------------------------------------------------------------------------

    Molecular point group: c1
  Charge       = 0
  Multiplicity = 1
  Basis Set: AUG-CC-PVTZ
    Blend: AUG-CC-PVTZ
  Basis Set: (AUG-CC-PVTZ AUX)
    Blend: AUG-CC-PVTZ-JKFIT

    Orbital Energies [Eh]
    ---------------------

    Doubly Occupied:

       1A    -15.564549     2A    -15.564329     3A    -11.312806
       4A    -11.291787     5A    -11.291414     6A    -11.245378
       7A    -11.238071     8A    -11.230954     9A    -11.225450
      10A    -11.224768    11A     -1.299060    12A     -1.178885
      13A     -1.146562    14A     -1.089833    15A     -0.966600
      16A     -0.893733    17A     -0.873891    18A     -0.818230
      19A     -0.795712    20A     -0.714748    21A     -0.695258
      22A     -0.645493    23A     -0.614064    24A     -0.598308
      25A     -0.591776    26A     -0.583532    27A     -0.557174
      28A     -0.555487    29A     -0.523372    30A     -0.510684
      31A     -0.470306    32A     -0.433967    33A     -0.423891
      34A     -0.411324    35A     -0.403669    36A     -0.336041

  @DF-RHF Final Energy:  -417.77835469541458

   => Energetics <=

    Nuclear Repulsion Energy =            493.3272620390176257
    One-Electron Energy =               -1543.5690138816746639
    Two-Electron Energy =                 632.4633971472425173
    Total Energy =                       -417.7783546954145777
  Basis Set: (AUG-CC-PVTZ AUX)
    Blend: AUG-CC-PVTZ-RI
    Molecular point group: c1

    Geometry (in Angstrom), charge = 0, multiplicity = 1:

       Center              X                  Y                   Z               Mass
    ------------   -----------------  -----------------  -----------------  -----------------
         N            0.168890903600    -0.956869224900    -0.010428515292    14.003074004430
         N           -0.224487096400     1.407873775100    -0.002790515292    14.003074004430
         C            2.036062903600     0.574129775100     0.008320484708    12.000000000000
         C            2.947950903600    -0.372825224900    -0.740457515292    12.000000000000
         C            2.940252903600    -0.383470224900     0.752807484708    12.000000000000
         C            0.580560903600     0.326810775100    -0.000497515292    12.000000000000
         C           -2.089046096400    -0.121265224900    -0.010153515292    12.000000000000
         C           -1.174873696400    -1.163483624900    -0.014491315292    12.000000000000
         C           -1.543849096400     1.164404775100    -0.006867515292    12.000000000000
         C           -3.569910096400    -0.369605224900     0.019667484708    12.000000000000
         H            2.300176903600     1.626734775100     0.016933484708     1.007825032230
         H            3.799387903600     0.058967775100    -1.256516515292     1.007825032230
         H            2.462805903600    -1.200736224900    -1.246103515292     1.007825032230
         H            2.450101903600    -1.218574224900     1.241535484708     1.007825032230
         H            3.786291903600     0.040824775100     1.283750484708     1.007825032230
         H           -1.480876096400    -2.201674224900    -0.028096515292     1.007825032230
         H           -2.191411096400     2.042357775100    -0.014293515292     1.007825032230
         H           -3.820206096400    -1.303686224900    -0.490543515292     1.007825032230
         H           -4.112175096400     0.443045775100    -0.471142515292     1.007825032230
         H           -3.935560096400    -0.442197224900     1.048985484708     1.007825032230

  Basis Set: AUG-CC-PVTZ
    Blend: AUG-CC-PVTZ
  Basis Set: (AUG-CC-PVTZ AUX)
    Blend: AUG-CC-PVTZ-JKFIT
	 Reference Energy          =    -417.7783546954145777 [Eh]
	 Singles Energy            =      -0.0000000000000000 [Eh]
	 Same-Spin Energy          =      -0.4578568989018029 [Eh]
	 Opposite-Spin Energy      =      -1.4479892919378954 [Eh]
	 Correlation Energy        =      -1.9058461908396982 [Eh]
	 Total Energy              =    -419.6842008862543025 [Eh]

	 ================> DF-SCS-MP2 Energies <==================
	-----------------------------------------------------------
	 SCS Same-Spin Scale       =       0.3333333333333333 [-]
	 SCS Opposite-Spin Scale   =       1.2000000000000000 [-]
	 SCS Same-Spin Energy      =      -0.1526189663006010 [Eh]
	 SCS Opposite-Spin Energy  =      -1.7375871503254745 [Eh]
	 SCS Correlation Energy    =      -1.8902061166260755 [Eh]
	 SCS Total Energy          =    -419.6685608120406528 [Eh]
	-----------------------------------------------------------

  Dipole Moment: [D]
     X:    -2.0715      Y:    -0.5674      Z:     0.0457     Total:     2.1482

*** Psi4 exiting successfully. Buy a developer a beer!
