                               Psi4 1.4a3.dev225

  ==> Input File <==

--------------------------------------------------------------------------
#psi4
#
memory 32 gb

molecule  {
0 1
  N        0.1723510    -0.9422650    -0.0110160
  N       -0.2210270     1.4224780    -0.0033780
  C        2.0395230     0.5887340     0.0077330
  C        2.9514110    -0.3582210    -0.7410450
  C        2.9437130    -0.3688660     0.7522200
  C        0.5840210     0.3414150    -0.0010850
  C       -2.0855860    -0.1066610    -0.0107410
  C       -1.1382772    -1.1607152    -0.0150802
  C       -1.5403890     1.1790090    -0.0074550
  C       -3.5664500    -0.3550010     0.0190800
  H        2.3036370     1.6413390     0.0163460
  H        3.8028480     0.0735720    -1.2571040
  H        2.4662660    -1.1861320    -1.2466910
  H        2.4535620    -1.2039700     1.2409480
  H        3.7897520     0.0554290     1.2831630
  H       -1.4774160    -2.1870700    -0.0286840
  H       -2.1879510     2.0569620    -0.0148810
  H       -3.8167460    -1.2890820    -0.4911310
  H       -4.1087150     0.4576500    -0.4717300
  H       -3.9321000    -0.4275930     1.0483980
units angstrom
no_reorient  #important for SAPT in psi4, default
symmetry c1  #important for SAPT in psi4, default
}

set PROPERTIES_ORIGIN ["COM"]
properties('MP2/aug-cc-pvtz', properties = ['dipole'])
--------------------------------------------------------------------------

    Molecular point group: c1
  Charge       = 0
  Multiplicity = 1
  Basis Set: AUG-CC-PVTZ
    Blend: AUG-CC-PVTZ
  Basis Set: (AUG-CC-PVTZ AUX)
    Blend: AUG-CC-PVTZ-JKFIT

    Orbital Energies [Eh]
    ---------------------

    Doubly Occupied:

       1A    -15.564056     2A    -15.563633     3A    -11.313947
       4A    -11.293141     5A    -11.288727     6A    -11.247009
       7A    -11.237889     8A    -11.231516     9A    -11.225974
      10A    -11.225292    11A     -1.302383    12A     -1.184544
      13A     -1.147141    14A     -1.085497    15A     -0.967248
      16A     -0.890287    17A     -0.874298    18A     -0.818792
      19A     -0.796871    20A     -0.717034    21A     -0.694455
      22A     -0.646223    23A     -0.613637    24A     -0.597754
      25A     -0.593341    26A     -0.583385    27A     -0.558641
      28A     -0.554370    29A     -0.523948    30A     -0.511187
      31A     -0.471279    32A     -0.433817    33A     -0.424237
      34A     -0.415941    35A     -0.401614    36A     -0.331966

  @DF-RHF Final Energy:  -417.77921403748184

   => Energetics <=

    Nuclear Repulsion Energy =            493.3924613937785466
    One-Electron Energy =               -1543.6812085777371522
    Two-Electron Energy =                 632.5095331464767696
    Total Energy =                       -417.7792140374817791
  Basis Set: (AUG-CC-PVTZ AUX)
    Blend: AUG-CC-PVTZ-RI
    Molecular point group: c1

    Geometry (in Angstrom), charge = 0, multiplicity = 1:

       Center              X                  Y                   Z               Mass
    ------------   -----------------  -----------------  -----------------  -----------------
         N            0.165925332624    -0.955809969671    -0.010428389998    14.003074004430
         N           -0.227452667376     1.408933030329    -0.002790389998    14.003074004430
         C            2.033097332624     0.575189030329     0.008320610002    12.000000000000
         C            2.944985332624    -0.371765969671    -0.740457389998    12.000000000000
         C            2.937287332624    -0.382410969671     0.752807610002    12.000000000000
         C            0.577595332624     0.327870030329    -0.000497389998    12.000000000000
         C           -2.092011667376    -0.120205969671    -0.010153389998    12.000000000000
         C           -1.144702867376    -1.174260169671    -0.014492589998    12.000000000000
         C           -1.546814667376     1.165464030329    -0.006867389998    12.000000000000
         C           -3.572875667376    -0.368545969671     0.019667610002    12.000000000000
         H            2.297211332624     1.627794030329     0.016933610002     1.007825032230
         H            3.796422332624     0.060027030329    -1.256516389998     1.007825032230
         H            2.459840332624    -1.199676969671    -1.246103389998     1.007825032230
         H            2.447136332624    -1.217514969671     1.241535610002     1.007825032230
         H            3.783326332624     0.041884030329     1.283750610002     1.007825032230
         H           -1.483841667376    -2.200614969671    -0.028096389998     1.007825032230
         H           -2.194376667376     2.043417030329    -0.014293389998     1.007825032230
         H           -3.823171667376    -1.302626969671    -0.490543389998     1.007825032230
         H           -4.115140667376     0.444105030329    -0.471142389998     1.007825032230
         H           -3.938525667376    -0.441137969671     1.048985610002     1.007825032230

  Basis Set: AUG-CC-PVTZ
    Blend: AUG-CC-PVTZ
  Basis Set: (AUG-CC-PVTZ AUX)
    Blend: AUG-CC-PVTZ-JKFIT
	 Reference Energy          =    -417.7792140374818359 [Eh]
	 Singles Energy            =      -0.0000000000000000 [Eh]
	 Same-Spin Energy          =      -0.4576682437996827 [Eh]
	 Opposite-Spin Energy      =      -1.4474331840340102 [Eh]
	 Correlation Energy        =      -1.9051014278336931 [Eh]
	 Total Energy              =    -419.6843154653155352 [Eh]

	 ================> DF-SCS-MP2 Energies <==================
	-----------------------------------------------------------
	 SCS Same-Spin Scale       =       0.3333333333333333 [-]
	 SCS Opposite-Spin Scale   =       1.2000000000000000 [-]
	 SCS Same-Spin Energy      =      -0.1525560812665609 [Eh]
	 SCS Opposite-Spin Energy  =      -1.7369198208408123 [Eh]
	 SCS Correlation Energy    =      -1.8894759021073733 [Eh]
	 SCS Total Energy          =    -419.6686899395892283 [Eh]
	-----------------------------------------------------------

  Dipole Moment: [D]
     X:    -2.0419      Y:    -0.6109      Z:     0.0466     Total:     2.1318

*** Psi4 exiting successfully. Buy a developer a beer!
