                               Psi4 1.4a3.dev225

  ==> Input File <==

--------------------------------------------------------------------------
#psi4
#
memory 32 gb

molecule  {
0 1
  N        0.1723510    -0.9422650    -0.0110160
  N       -0.2210270     1.4224780    -0.0033780
  C        2.0395230     0.5887340     0.0077330
  C        2.9514110    -0.3582210    -0.7410450
  C        2.9437130    -0.3688660     0.7522200
  C        0.5840210     0.3414150    -0.0010850
  C       -2.0855860    -0.1066610    -0.0107410
  C       -1.1516460    -1.1458400    -0.0150190
  C       -1.5403890     1.1790090    -0.0074550
  C       -3.5664500    -0.3550010     0.0190800
  H        2.3036370     1.6413390     0.0163460
  H        3.8028480     0.0735720    -1.2571040
  H        2.4662660    -1.1861320    -1.2466910
  H        2.4535620    -1.2039700     1.2409480
  H        3.7897520     0.0554290     1.2831630
  H       -1.4774160    -2.1870700    -0.0286840
  H       -2.1760796     2.0408669    -0.0147449
  H       -3.8167460    -1.2890820    -0.4911310
  H       -4.1087150     0.4576500    -0.4717300
  H       -3.9321000    -0.4275930     1.0483980
units angstrom
no_reorient  #important for SAPT in psi4, default
symmetry c1  #important for SAPT in psi4, default
}

set PROPERTIES_ORIGIN ["COM"]
properties('MP2/aug-cc-pvtz', properties = ['dipole'])
--------------------------------------------------------------------------

    Molecular point group: c1
  Charge       = 0
  Multiplicity = 1
  Basis Set: AUG-CC-PVTZ
    Blend: AUG-CC-PVTZ
  Basis Set: (AUG-CC-PVTZ AUX)
    Blend: AUG-CC-PVTZ-JKFIT

    Orbital Energies [Eh]
    ---------------------

    Doubly Occupied:

       1A    -15.563946     2A    -15.563847     3A    -11.313358
       4A    -11.291717     5A    -11.288056     6A    -11.245420
       7A    -11.238184     8A    -11.231245     9A    -11.225798
      10A    -11.225117    11A     -1.301621    12A     -1.182604
      13A     -1.147096    14A     -1.088223    15A     -0.967281
      16A     -0.892549    17A     -0.874709    18A     -0.818592
      19A     -0.797492    20A     -0.715883    21A     -0.695609
      22A     -0.646451    23A     -0.613704    24A     -0.598330
      25A     -0.591949    26A     -0.584493    27A     -0.558270
      28A     -0.555055    29A     -0.523544    30A     -0.511037
      31A     -0.471712    32A     -0.434079    33A     -0.424216
      34A     -0.414167    35A     -0.402856    36A     -0.334262

  @DF-RHF Final Energy:  -417.77972042474829

   => Energetics <=

    Nuclear Repulsion Energy =            493.6500060310416984
    One-Electron Energy =               -1544.1945089413782171
    Two-Electron Energy =                 632.7647824855882845
    Total Energy =                       -417.7797204247483478
  Basis Set: (AUG-CC-PVTZ AUX)
    Blend: AUG-CC-PVTZ-RI
    Molecular point group: c1

    Geometry (in Angstrom), charge = 0, multiplicity = 1:

       Center              X                  Y                   Z               Mass
    ------------   -----------------  -----------------  -----------------  -----------------
         N            0.167032555446    -0.957020262273    -0.010434890120    14.003074004430
         N           -0.226345444554     1.407722737727    -0.002796890120    14.003074004430
         C            2.034204555446     0.573978737727     0.008314109880    12.000000000000
         C            2.946092555446    -0.372976262273    -0.740463890120    12.000000000000
         C            2.938394555446    -0.383621262273     0.752801109880    12.000000000000
         C            0.578702555446     0.326659737727    -0.000503890120    12.000000000000
         C           -2.090904444554    -0.121416262273    -0.010159890120    12.000000000000
         C           -1.156964444554    -1.160595262273    -0.014437890120    12.000000000000
         C           -1.545707444554     1.164253737727    -0.006873890120    12.000000000000
         C           -3.571768444554    -0.369756262273     0.019661109880    12.000000000000
         H            2.298318555446     1.626583737727     0.016927109880     1.007825032230
         H            3.797529555446     0.058816737727    -1.256522890120     1.007825032230
         H            2.460947555446    -1.200887262273    -1.246109890120     1.007825032230
         H            2.448243555446    -1.218725262273     1.241529109880     1.007825032230
         H            3.784433555446     0.040673737727     1.283744109880     1.007825032230
         H           -1.482734444554    -2.201825262273    -0.028102890120     1.007825032230
         H           -2.181398044554     2.026111637727    -0.014163790120     1.007825032230
         H           -3.822064444554    -1.303837262273    -0.490549890120     1.007825032230
         H           -4.114033444554     0.442894737727    -0.471148890120     1.007825032230
         H           -3.937418444554    -0.442348262273     1.048979109880     1.007825032230

  Basis Set: AUG-CC-PVTZ
    Blend: AUG-CC-PVTZ
  Basis Set: (AUG-CC-PVTZ AUX)
    Blend: AUG-CC-PVTZ-JKFIT
	 Reference Energy          =    -417.7797204247482910 [Eh]
	 Singles Energy            =      -0.0000000000000000 [Eh]
	 Same-Spin Energy          =      -0.4576579329465622 [Eh]
	 Opposite-Spin Energy      =      -1.4473789744730576 [Eh]
	 Correlation Energy        =      -1.9050369074196198 [Eh]
	 Total Energy              =    -419.6847573321679192 [Eh]

	 ================> DF-SCS-MP2 Energies <==================
	-----------------------------------------------------------
	 SCS Same-Spin Scale       =       0.3333333333333333 [-]
	 SCS Opposite-Spin Scale   =       1.2000000000000000 [-]
	 SCS Same-Spin Energy      =      -0.1525526443155207 [Eh]
	 SCS Opposite-Spin Energy  =      -1.7368547693676690 [Eh]
	 SCS Correlation Energy    =      -1.8894074136831898 [Eh]
	 SCS Total Energy          =    -419.6691278384315069 [Eh]
	-----------------------------------------------------------

  Dipole Moment: [D]
     X:    -2.0567      Y:    -0.5684      Z:     0.0462     Total:     2.1343

*** Psi4 exiting successfully. Buy a developer a beer!
