                               Psi4 1.4a3.dev225

  ==> Input File <==

--------------------------------------------------------------------------
#psi4
#
memory 32 gb

molecule  {
0 1
  N        0.1723510    -0.9422650    -0.0110160
  N       -0.2169793     1.3994151    -0.0032360
  C        2.0395230     0.5887340     0.0077330
  C        2.9514110    -0.3582210    -0.7410450
  C        2.9437130    -0.3688660     0.7522200
  C        0.5840210     0.3414150    -0.0010850
  C       -2.0855860    -0.1066610    -0.0107410
  C       -1.1516460    -1.1458400    -0.0150190
  C       -1.5403890     1.1790090    -0.0074550
  C       -3.5664500    -0.3550010     0.0190800
  H        2.3036370     1.6413390     0.0163460
  H        3.8028480     0.0735720    -1.2571040
  H        2.4662660    -1.1861320    -1.2466910
  H        2.4535620    -1.2039700     1.2409480
  H        3.7897520     0.0554290     1.2831630
  H       -1.4774160    -2.1870700    -0.0286840
  H       -2.1879510     2.0569620    -0.0148810
  H       -3.8167460    -1.2890820    -0.4911310
  H       -4.1087150     0.4576500    -0.4717300
  H       -3.9321000    -0.4275930     1.0483980
units angstrom
no_reorient  #important for SAPT in psi4, default
symmetry c1  #important for SAPT in psi4, default
}

set PROPERTIES_ORIGIN ["COM"]
properties('MP2/aug-cc-pvtz', properties = ['dipole'])
--------------------------------------------------------------------------

    Molecular point group: c1
  Charge       = 0
  Multiplicity = 1
  Basis Set: AUG-CC-PVTZ
    Blend: AUG-CC-PVTZ
  Basis Set: (AUG-CC-PVTZ AUX)
    Blend: AUG-CC-PVTZ-JKFIT

    Orbital Energies [Eh]
    ---------------------

    Doubly Occupied:

       1A    -15.563135     2A    -15.560803     3A    -11.310379
       4A    -11.291507     5A    -11.290720     6A    -11.245878
       7A    -11.238206     8A    -11.230591     9A    -11.225267
      10A    -11.224587    11A     -1.305048    12A     -1.182749
      13A     -1.146784    14A     -1.089082    15A     -0.968039
      16A     -0.892906    17A     -0.873731    18A     -0.818154
      19A     -0.797318    20A     -0.716164    21A     -0.696732
      22A     -0.645537    23A     -0.614403    24A     -0.598927
      25A     -0.591516    26A     -0.583738    27A     -0.559745
      28A     -0.555060    29A     -0.524068    30A     -0.510729
      31A     -0.470084    32A     -0.433822    33A     -0.423962
      34A     -0.413624    35A     -0.400476    36A     -0.335502

  @DF-RHF Final Energy:  -417.78034974039980

   => Energetics <=

    Nuclear Repulsion Energy =            494.1290216015644887
    One-Electron Energy =               -1545.1607928234932388
    Two-Electron Energy =                 633.2514214815288369
    Total Energy =                       -417.7803497403998563
  Basis Set: (AUG-CC-PVTZ AUX)
    Blend: AUG-CC-PVTZ-RI
    Molecular point group: c1

    Geometry (in Angstrom), charge = 0, multiplicity = 1:

       Center              X                  Y                   Z               Mass
    ------------   -----------------  -----------------  -----------------  -----------------
         N            0.166699064383    -0.954732669871    -0.010448696883    14.003074004430
         N           -0.222631235617     1.386947430129    -0.002668696883    14.003074004430
         C            2.033871064383     0.576266330129     0.008300303117    12.000000000000
         C            2.945759064383    -0.370688669871    -0.740477696883    12.000000000000
         C            2.938061064383    -0.381333669871     0.752787303117    12.000000000000
         C            0.578369064383     0.328947330129    -0.000517696883    12.000000000000
         C           -2.091237935617    -0.119128669871    -0.010173696883    12.000000000000
         C           -1.157297935617    -1.158307669871    -0.014451696883    12.000000000000
         C           -1.546040935617     1.166541330129    -0.006887696883    12.000000000000
         C           -3.572101935617    -0.367468669871     0.019647303117    12.000000000000
         H            2.297985064383     1.628871330129     0.016913303117     1.007825032230
         H            3.797196064383     0.061104330129    -1.256536696883     1.007825032230
         H            2.460614064383    -1.198599669871    -1.246123696883     1.007825032230
         H            2.447910064383    -1.216437669871     1.241515303117     1.007825032230
         H            3.784100064383     0.042961330129     1.283730303117     1.007825032230
         H           -1.483067935617    -2.199537669871    -0.028116696883     1.007825032230
         H           -2.193602935617     2.044494330129    -0.014313696883     1.007825032230
         H           -3.822397935617    -1.301549669871    -0.490563696883     1.007825032230
         H           -4.114366935617     0.445182330129    -0.471162696883     1.007825032230
         H           -3.937751935617    -0.440060669871     1.048965303117     1.007825032230

  Basis Set: AUG-CC-PVTZ
    Blend: AUG-CC-PVTZ
  Basis Set: (AUG-CC-PVTZ AUX)
    Blend: AUG-CC-PVTZ-JKFIT
	 Reference Energy          =    -417.7803497403997994 [Eh]
	 Singles Energy            =      -0.0000000000000000 [Eh]
	 Same-Spin Energy          =      -0.4575511052997617 [Eh]
	 Opposite-Spin Energy      =      -1.4469453539848791 [Eh]
	 Correlation Energy        =      -1.9044964592846410 [Eh]
	 Total Energy              =    -419.6848461996844435 [Eh]

	 ================> DF-SCS-MP2 Energies <==================
	-----------------------------------------------------------
	 SCS Same-Spin Scale       =       0.3333333333333333 [-]
	 SCS Opposite-Spin Scale   =       1.2000000000000000 [-]
	 SCS Same-Spin Energy      =      -0.1525170350999206 [Eh]
	 SCS Opposite-Spin Energy  =      -1.7363344247818548 [Eh]
	 SCS Correlation Energy    =      -1.8888514598817754 [Eh]
	 SCS Total Energy          =    -419.6692012002815773 [Eh]
	-----------------------------------------------------------

  Dipole Moment: [D]
     X:    -2.0780      Y:    -0.5316      Z:     0.0464     Total:     2.1454

*** Psi4 exiting successfully. Buy a developer a beer!
