                               Psi4 1.4a3.dev225

  ==> Input File <==

--------------------------------------------------------------------------
#psi4
#
memory 32 gb

molecule  {
0 1
  N        0.1723510    -0.9422650    -0.0110160
  N       -0.2210270     1.4224780    -0.0033780
  C        2.0395230     0.5887340     0.0077330
  C        2.9514110    -0.3582210    -0.7410450
  C        2.9437130    -0.3688660     0.7522200
  C        0.5840210     0.3414150    -0.0010850
  C       -2.0855860    -0.1066610    -0.0107410
  C       -1.1516460    -1.1458400    -0.0150190
  C       -1.5403890     1.1790090    -0.0074550
  C       -3.5664500    -0.3550010     0.0190800
  H        2.3036370     1.6413390     0.0163460
  H        3.8028480     0.0735720    -1.2571040
  H        2.4662660    -1.1861320    -1.2466910
  H        2.4535620    -1.2039700     1.2409480
  H        3.7897520     0.0554290     1.2831630
  H       -1.4774160    -2.1870700    -0.0286840
  H       -2.1879510     2.0569620    -0.0148810
  H       -3.8121676    -1.2719958    -0.4817982
  H       -4.1087150     0.4576500    -0.4717300
  H       -3.9321000    -0.4275930     1.0483980
units angstrom
no_reorient  #important for SAPT in psi4, default
symmetry c1  #important for SAPT in psi4, default
}

set PROPERTIES_ORIGIN ["COM"]
properties('MP2/aug-cc-pvtz', properties = ['dipole'])
--------------------------------------------------------------------------

    Molecular point group: c1
  Charge       = 0
  Multiplicity = 1
  Basis Set: AUG-CC-PVTZ
    Blend: AUG-CC-PVTZ
  Basis Set: (AUG-CC-PVTZ AUX)
    Blend: AUG-CC-PVTZ-JKFIT

    Orbital Energies [Eh]
    ---------------------

    Doubly Occupied:

       1A    -15.563986     2A    -15.563956     3A    -11.313469
       4A    -11.291810     5A    -11.290242     6A    -11.245455
       7A    -11.235728     8A    -11.231285     9A    -11.225824
      10A    -11.225143    11A     -1.301659    12A     -1.182505
      13A     -1.147126    14A     -1.088399    15A     -0.968239
      16A     -0.891310    17A     -0.875421    18A     -0.818616
      19A     -0.796435    20A     -0.715808    21A     -0.694949
      22A     -0.645855    23A     -0.613775    24A     -0.599073
      25A     -0.591444    26A     -0.582724    27A     -0.559195
      28A     -0.556796    29A     -0.523473    30A     -0.511068
      31A     -0.471750    32A     -0.434138    33A     -0.424229
      34A     -0.414217    35A     -0.402718    36A     -0.334325

  @DF-RHF Final Energy:  -417.77958819291803

   => Energetics <=

    Nuclear Repulsion Energy =            493.6288116696367183
    One-Electron Energy =               -1544.1525088423209127
    Two-Electron Energy =                 632.7441089797662244
    Total Energy =                       -417.7795881929180268
  Basis Set: (AUG-CC-PVTZ AUX)
    Blend: AUG-CC-PVTZ-RI
    Molecular point group: c1

    Geometry (in Angstrom), charge = 0, multiplicity = 1:

       Center              X                  Y                   Z               Mass
    ------------   -----------------  -----------------  -----------------  -----------------
         N            0.167087372174    -0.957269664479    -0.010504015720    14.003074004430
         N           -0.226290627826     1.407473335521    -0.002866015720    14.003074004430
         C            2.034259372174     0.573729335521     0.008244984280    12.000000000000
         C            2.946147372174    -0.373225664479    -0.740533015720    12.000000000000
         C            2.938449372174    -0.383870664479     0.752731984280    12.000000000000
         C            0.578757372174     0.326410335521    -0.000573015720    12.000000000000
         C           -2.090849627826    -0.121665664479    -0.010229015720    12.000000000000
         C           -1.156909627826    -1.160844664479    -0.014507015720    12.000000000000
         C           -1.545652627826     1.164004335521    -0.006943015720    12.000000000000
         C           -3.571713627826    -0.370005664479     0.019591984280    12.000000000000
         H            2.298373372174     1.626334335521     0.016857984280     1.007825032230
         H            3.797584372174     0.058567335521    -1.256592015720     1.007825032230
         H            2.461002372174    -1.201136664479    -1.246179015720     1.007825032230
         H            2.448298372174    -1.218974664479     1.241459984280     1.007825032230
         H            3.784488372174     0.040424335521     1.283674984280     1.007825032230
         H           -1.482679627826    -2.202074664479    -0.028172015720     1.007825032230
         H           -2.193214627826     2.041957335521    -0.014369015720     1.007825032230
         H           -3.817431227826    -1.287000464479    -0.481286215720     1.007825032230
         H           -4.113978627826     0.442645335521    -0.471218015720     1.007825032230
         H           -3.937363627826    -0.442597664479     1.048909984280     1.007825032230

  Basis Set: AUG-CC-PVTZ
    Blend: AUG-CC-PVTZ
  Basis Set: (AUG-CC-PVTZ AUX)
    Blend: AUG-CC-PVTZ-JKFIT
	 Reference Energy          =    -417.7795881929180268 [Eh]
	 Singles Energy            =      -0.0000000000000000 [Eh]
	 Same-Spin Energy          =      -0.4577128723082392 [Eh]
	 Opposite-Spin Energy      =      -1.4474184140244166 [Eh]
	 Correlation Energy        =      -1.9051312863326557 [Eh]
	 Total Energy              =    -419.6847194792507025 [Eh]

	 ================> DF-SCS-MP2 Energies <==================
	-----------------------------------------------------------
	 SCS Same-Spin Scale       =       0.3333333333333333 [-]
	 SCS Opposite-Spin Scale   =       1.2000000000000000 [-]
	 SCS Same-Spin Energy      =      -0.1525709574360797 [Eh]
	 SCS Opposite-Spin Energy  =      -1.7369020968292999 [Eh]
	 SCS Correlation Energy    =      -1.8894730542653795 [Eh]
	 SCS Total Energy          =    -419.6690612471833788 [Eh]
	-----------------------------------------------------------

  Dipole Moment: [D]
     X:    -2.0544      Y:    -0.5795      Z:     0.0434     Total:     2.1351

*** Psi4 exiting successfully. Buy a developer a beer!
