                               Psi4 1.4a3.dev225

  ==> Input File <==

--------------------------------------------------------------------------
#psi4
#
memory 32 gb

molecule  {
0 1
  N        0.1723510    -0.9422650    -0.0110160
  N       -0.2210270     1.4224780    -0.0033780
  C        2.0395230     0.5887340     0.0077330
  C        2.9514110    -0.3582210    -0.7410450
  C        2.9437130    -0.3688660     0.7522200
  C        0.5840210     0.3414150    -0.0010850
  C       -2.0855860    -0.1066610    -0.0107410
  C       -1.2504840    -1.1610371    -0.0153178
  C       -1.5403890     1.1790090    -0.0074550
  C       -3.5664500    -0.3550010     0.0190800
  H        2.3036370     1.6413390     0.0163460
  H        3.8028480     0.0735720    -1.2571040
  H        2.4662660    -1.1861320    -1.2466910
  H        2.4535620    -1.2039700     1.2409480
  H        3.7897520     0.0554290     1.2831630
  H       -1.4774160    -2.1870700    -0.0286840
  H       -2.1879510     2.0569620    -0.0148810
  H       -3.8167460    -1.2890820    -0.4911310
  H       -4.1087150     0.4576500    -0.4717300
  H       -3.9321000    -0.4275930     1.0483980
units angstrom
no_reorient  #important for SAPT in psi4, default
symmetry c1  #important for SAPT in psi4, default
}

set PROPERTIES_ORIGIN ["COM"]
properties('MP2/aug-cc-pvtz', properties = ['dipole'])
--------------------------------------------------------------------------

    Molecular point group: c1
  Charge       = 0
  Multiplicity = 1
  Basis Set: AUG-CC-PVTZ
    Blend: AUG-CC-PVTZ
  Basis Set: (AUG-CC-PVTZ AUX)
    Blend: AUG-CC-PVTZ-JKFIT

    Orbital Energies [Eh]
    ---------------------

    Doubly Occupied:

       1A    -15.566860     2A    -15.564850     3A    -11.310064
       4A    -11.297153     5A    -11.289065     6A    -11.244440
       7A    -11.237726     8A    -11.229622     9A    -11.223958
      10A    -11.223276    11A     -1.291337    12A     -1.166197
      13A     -1.143990    14A     -1.095915    15A     -0.964684
      16A     -0.902645    17A     -0.870995    18A     -0.816705
      19A     -0.794062    20A     -0.709730    21A     -0.698572
      22A     -0.644112    23A     -0.615833    24A     -0.598797
      25A     -0.594545    26A     -0.585816    27A     -0.556466
      28A     -0.553204    29A     -0.522514    30A     -0.509220
      31A     -0.462309    32A     -0.434146    33A     -0.422240
      34A     -0.405926    35A     -0.400631    36A     -0.342506

  @DF-RHF Final Energy:  -417.76490522140386

   => Energetics <=

    Nuclear Repulsion Energy =            492.5413701549832695
    One-Electron Energy =               -1542.0323330469307166
    Two-Electron Energy =                 631.7260576705435824
    Total Energy =                       -417.7649052214038647
  Basis Set: (AUG-CC-PVTZ AUX)
    Blend: AUG-CC-PVTZ-RI
    Molecular point group: c1

    Geometry (in Angstrom), charge = 0, multiplicity = 1:

       Center              X                  Y                   Z               Mass
    ------------   -----------------  -----------------  -----------------  -----------------
         N            0.175967377908    -0.955781160950    -0.010407125779    14.003074004430
         N           -0.217410622092     1.408961839050    -0.002769125779    14.003074004430
         C            2.043139377908     0.575217839050     0.008341874221    12.000000000000
         C            2.955027377908    -0.371737160950    -0.740436125779    12.000000000000
         C            2.947329377908    -0.382382160950     0.752828874221    12.000000000000
         C            0.587637377908     0.327898839050    -0.000476125779    12.000000000000
         C           -2.081969622092    -0.120177160950    -0.010132125779    12.000000000000
         C           -1.246867622092    -1.174553260950    -0.014708925779    12.000000000000
         C           -1.536772622092     1.165492839050    -0.006846125779    12.000000000000
         C           -3.562833622092    -0.368517160950     0.019688874221    12.000000000000
         H            2.307253377908     1.627822839050     0.016954874221     1.007825032230
         H            3.806464377908     0.060055839050    -1.256495125779     1.007825032230
         H            2.469882377908    -1.199648160950    -1.246082125779     1.007825032230
         H            2.457178377908    -1.217486160950     1.241556874221     1.007825032230
         H            3.793368377908     0.041912839050     1.283771874221     1.007825032230
         H           -1.473799622092    -2.200586160950    -0.028075125779     1.007825032230
         H           -2.184334622092     2.043445839050    -0.014272125779     1.007825032230
         H           -3.813129622092    -1.302598160950    -0.490522125779     1.007825032230
         H           -4.105098622092     0.444133839050    -0.471121125779     1.007825032230
         H           -3.928483622092    -0.441109160950     1.049006874221     1.007825032230

  Basis Set: AUG-CC-PVTZ
    Blend: AUG-CC-PVTZ
  Basis Set: (AUG-CC-PVTZ AUX)
    Blend: AUG-CC-PVTZ-JKFIT
	 Reference Energy          =    -417.7649052214038647 [Eh]
	 Singles Energy            =      -0.0000000000000000 [Eh]
	 Same-Spin Energy          =      -0.4583777917380823 [Eh]
	 Opposite-Spin Energy      =      -1.4502490206058809 [Eh]
	 Correlation Energy        =      -1.9086268123439631 [Eh]
	 Total Energy              =    -419.6735320337478470 [Eh]

	 ================> DF-SCS-MP2 Energies <==================
	-----------------------------------------------------------
	 SCS Same-Spin Scale       =       0.3333333333333333 [-]
	 SCS Opposite-Spin Scale   =       1.2000000000000000 [-]
	 SCS Same-Spin Energy      =      -0.1527925972460274 [Eh]
	 SCS Opposite-Spin Energy  =      -1.7402988247270570 [Eh]
	 SCS Correlation Energy    =      -1.8930914219730843 [Eh]
	 SCS Total Energy          =    -419.6579966433769755 [Eh]
	-----------------------------------------------------------

  Dipole Moment: [D]
     X:    -2.1458      Y:    -0.5423      Z:     0.0434     Total:     2.2137

*** Psi4 exiting successfully. Buy a developer a beer!
