                               Psi4 1.4a3.dev225

  ==> Input File <==

--------------------------------------------------------------------------
#psi4
#
memory 32 gb

molecule  {
0 1
  N        0.1723510    -0.9422650    -0.0110160
  N       -0.2210270     1.4224780    -0.0033780
  C        2.0395230     0.5887340     0.0077330
  C        2.9514110    -0.3582210    -0.7410450
  C        2.9437130    -0.3688660     0.7522200
  C        0.5840210     0.3414150    -0.0010850
  C       -2.0855860    -0.1066610    -0.0107410
  C       -1.1516460    -1.1458400    -0.0150190
  C       -1.5403890     1.1790090    -0.0074550
  C       -3.5664500    -0.3550010     0.0190800
  H        2.3036370     1.6413390     0.0163460
  H        3.8028480     0.0735720    -1.2571040
  H        2.4662660    -1.1861320    -1.2466910
  H        2.4535620    -1.2039700     1.2409480
  H        3.7897520     0.0554290     1.2831630
  H       -1.4774160    -2.1870700    -0.0286840
  H       -2.1879510     2.0569620    -0.0148810
  H       -3.7837768    -1.2605791    -0.5537795
  H       -4.1087150     0.4576500    -0.4717300
  H       -3.9321000    -0.4275930     1.0483980
units angstrom
no_reorient  #important for SAPT in psi4, default
symmetry c1  #important for SAPT in psi4, default
}

set PROPERTIES_ORIGIN ["COM"]
properties('MP2/aug-cc-pvtz', properties = ['dipole'])
--------------------------------------------------------------------------

    Molecular point group: c1
  Charge       = 0
  Multiplicity = 1
  Basis Set: AUG-CC-PVTZ
    Blend: AUG-CC-PVTZ
  Basis Set: (AUG-CC-PVTZ AUX)
    Blend: AUG-CC-PVTZ-JKFIT

    Orbital Energies [Eh]
    ---------------------

    Doubly Occupied:

       1A    -15.563966     2A    -15.563842     3A    -11.313449
       4A    -11.291777     5A    -11.290024     6A    -11.245074
       7A    -11.238169     8A    -11.231277     9A    -11.225823
      10A    -11.225142    11A     -1.301610    12A     -1.182449
      13A     -1.147120    14A     -1.088294    15A     -0.967138
      16A     -0.891264    17A     -0.874249    18A     -0.818616
      19A     -0.796311    20A     -0.715774    21A     -0.694395
      22A     -0.645887    23A     -0.612986    24A     -0.602289
      25A     -0.590885    26A     -0.581863    27A     -0.560844
      28A     -0.550747    29A     -0.523346    30A     -0.511108
      31A     -0.471385    32A     -0.434275    33A     -0.424210
      34A     -0.414166    35A     -0.402533    36A     -0.334535

  @DF-RHF Final Energy:  -417.77898195484460

   => Energetics <=

    Nuclear Repulsion Energy =            493.6042829974113033
    One-Electron Energy =               -1544.1128820440255822
    Two-Electron Energy =                 632.7296170917697964
    Total Energy =                       -417.7789819548445394
  Basis Set: (AUG-CC-PVTZ AUX)
    Blend: AUG-CC-PVTZ-RI
    Molecular point group: c1

    Geometry (in Angstrom), charge = 0, multiplicity = 1:

       Center              X                  Y                   Z               Mass
    ------------   -----------------  -----------------  -----------------  -----------------
         N            0.166873977034    -0.957355476372    -0.009962979202    14.003074004430
         N           -0.226504022966     1.407387523628    -0.002324979202    14.003074004430
         C            2.034045977034     0.573643523628     0.008786020798    12.000000000000
         C            2.945933977034    -0.373311476372    -0.739991979202    12.000000000000
         C            2.938235977034    -0.383956476372     0.753273020798    12.000000000000
         C            0.578543977034     0.326324523628    -0.000031979202    12.000000000000
         C           -2.091063022966    -0.121751476372    -0.009687979202    12.000000000000
         C           -1.157123022966    -1.160930476372    -0.013965979202    12.000000000000
         C           -1.545866022966     1.163918523628    -0.006401979202    12.000000000000
         C           -3.571927022966    -0.370091476372     0.020133020798    12.000000000000
         H            2.298159977034     1.626248523628     0.017399020798     1.007825032230
         H            3.797370977034     0.058481523628    -1.256050979202     1.007825032230
         H            2.460788977034    -1.201222476372    -1.245637979202     1.007825032230
         H            2.448084977034    -1.219060476372     1.242001020798     1.007825032230
         H            3.784274977034     0.040338523628     1.284216020798     1.007825032230
         H           -1.482893022966    -2.202160476372    -0.027630979202     1.007825032230
         H           -2.193428022966     2.041871523628    -0.013827979202     1.007825032230
         H           -3.789253822966    -1.275669576372    -0.552726479202     1.007825032230
         H           -4.114192022966     0.442559523628    -0.470676979202     1.007825032230
         H           -3.937577022966    -0.442683476372     1.049451020798     1.007825032230

  Basis Set: AUG-CC-PVTZ
    Blend: AUG-CC-PVTZ
  Basis Set: (AUG-CC-PVTZ AUX)
    Blend: AUG-CC-PVTZ-JKFIT
	 Reference Energy          =    -417.7789819548445962 [Eh]
	 Singles Energy            =      -0.0000000000000000 [Eh]
	 Same-Spin Energy          =      -0.4577459066542279 [Eh]
	 Opposite-Spin Energy      =      -1.4476203433987684 [Eh]
	 Correlation Energy        =      -1.9053662500529964 [Eh]
	 Total Energy              =    -419.6843482048976171 [Eh]

	 ================> DF-SCS-MP2 Energies <==================
	-----------------------------------------------------------
	 SCS Same-Spin Scale       =       0.3333333333333333 [-]
	 SCS Opposite-Spin Scale   =       1.2000000000000000 [-]
	 SCS Same-Spin Energy      =      -0.1525819688847426 [Eh]
	 SCS Opposite-Spin Energy  =      -1.7371444120785220 [Eh]
	 SCS Correlation Energy    =      -1.8897263809632645 [Eh]
	 SCS Total Energy          =    -419.6687083358078780 [Eh]
	-----------------------------------------------------------

  Dipole Moment: [D]
     X:    -2.0422      Y:    -0.5566      Z:     0.0281     Total:     2.1169

*** Psi4 exiting successfully. Buy a developer a beer!
