                               Psi4 1.4a3.dev225

  ==> Input File <==

--------------------------------------------------------------------------
#psi4
#
memory 32 gb

molecule  {
0 1
  N        0.1723510    -0.9422650    -0.0110160
  N       -0.2210270     1.4224780    -0.0033780
  C        2.0395230     0.5887340     0.0077330
  C        2.9514110    -0.3582210    -0.7410450
  C        2.9437130    -0.3688660     0.7522200
  C        0.5840210     0.3414150    -0.0010850
  C       -2.0855860    -0.1066610    -0.0107410
  C       -1.1516460    -1.1458400    -0.0150190
  C       -1.5403890     1.1790090    -0.0074550
  C       -3.5664500    -0.3550010     0.0190800
  H        2.3036370     1.6413390     0.0163460
  H        3.8028480     0.0735720    -1.2571040
  H        2.4662660    -1.1861320    -1.2466910
  H        2.4535620    -1.2039700     1.2409480
  H        3.7897520     0.0554290     1.2831630
  H       -1.4774160    -2.1870700    -0.0286840
  H       -2.1879510     2.0569620    -0.0148810
  H       -3.8167460    -1.2890820    -0.4911310
  H       -4.1087150     0.4576500    -0.4717300
  H       -3.9153998    -0.4242775     1.0013862
units angstrom
no_reorient  #important for SAPT in psi4, default
symmetry c1  #important for SAPT in psi4, default
}

set PROPERTIES_ORIGIN ["COM"]
properties('MP2/aug-cc-pvtz', properties = ['dipole'])
--------------------------------------------------------------------------

    Molecular point group: c1
  Charge       = 0
  Multiplicity = 1
  Basis Set: AUG-CC-PVTZ
    Blend: AUG-CC-PVTZ
  Basis Set: (AUG-CC-PVTZ AUX)
    Blend: AUG-CC-PVTZ-JKFIT

    Orbital Energies [Eh]
    ---------------------

    Doubly Occupied:

       1A    -15.563890     2A    -15.563844     3A    -11.313345
       4A    -11.291642     5A    -11.290148     6A    -11.245281
       7A    -11.232082     8A    -11.231210     9A    -11.225755
      10A    -11.225073    11A     -1.301548    12A     -1.182395
      13A     -1.147066    14A     -1.088869    15A     -0.970091
      16A     -0.891359    17A     -0.876286    18A     -0.818551
      19A     -0.796431    20A     -0.715680    21A     -0.694772
      22A     -0.645926    23A     -0.614419    24A     -0.603486
      25A     -0.592371    26A     -0.582282    27A     -0.561423
      28A     -0.554510    29A     -0.523354    30A     -0.511077
      31A     -0.471664    32A     -0.434323    33A     -0.424157
      34A     -0.414112    35A     -0.402595    36A     -0.334614

  @DF-RHF Final Energy:  -417.77854350532402

   => Energetics <=

    Nuclear Repulsion Energy =            493.7661205908694910
    One-Electron Energy =               -1544.4180663544623258
    Two-Electron Energy =                 632.8734022582686976
    Total Energy =                       -417.7785435053240235
  Basis Set: (AUG-CC-PVTZ AUX)
    Blend: AUG-CC-PVTZ-RI
    Molecular point group: c1

    Geometry (in Angstrom), charge = 0, multiplicity = 1:

       Center              X                  Y                   Z               Mass
    ------------   -----------------  -----------------  -----------------  -----------------
         N            0.166996260504    -0.957166159102    -0.010080510084    14.003074004430
         N           -0.226381739496     1.407576840898    -0.002442510084    14.003074004430
         C            2.034168260504     0.573832840898     0.008668489916    12.000000000000
         C            2.946056260504    -0.373122159102    -0.740109510084    12.000000000000
         C            2.938358260504    -0.383767159102     0.753155489916    12.000000000000
         C            0.578666260504     0.326513840898    -0.000149510084    12.000000000000
         C           -2.090940739496    -0.121562159102    -0.009805510084    12.000000000000
         C           -1.157000739496    -1.160741159102    -0.014083510084    12.000000000000
         C           -1.545743739496     1.164107840898    -0.006519510084    12.000000000000
         C           -3.571804739496    -0.369902159102     0.020015489916    12.000000000000
         H            2.298282260504     1.626437840898     0.017281489916     1.007825032230
         H            3.797493260504     0.058670840898    -1.256168510084     1.007825032230
         H            2.460911260504    -1.201033159102    -1.245755510084     1.007825032230
         H            2.448207260504    -1.218871159102     1.241883489916     1.007825032230
         H            3.784397260504     0.040527840898     1.284098489916     1.007825032230
         H           -1.482770739496    -2.201971159102    -0.027748510084     1.007825032230
         H           -2.193305739496     2.042060840898    -0.013945510084     1.007825032230
         H           -3.822100739496    -1.303983159102    -0.490195510084     1.007825032230
         H           -4.114069739496     0.442748840898    -0.470794510084     1.007825032230
         H           -3.920754539496    -0.439178659102     1.002321689916     1.007825032230

  Basis Set: AUG-CC-PVTZ
    Blend: AUG-CC-PVTZ
  Basis Set: (AUG-CC-PVTZ AUX)
    Blend: AUG-CC-PVTZ-JKFIT
	 Reference Energy          =    -417.7785435053240235 [Eh]
	 Singles Energy            =      -0.0000000000000000 [Eh]
	 Same-Spin Energy          =      -0.4577375917627897 [Eh]
	 Opposite-Spin Energy      =      -1.4472991627763747 [Eh]
	 Correlation Energy        =      -1.9050367545391644 [Eh]
	 Total Energy              =    -419.6835802598631631 [Eh]

	 ================> DF-SCS-MP2 Energies <==================
	-----------------------------------------------------------
	 SCS Same-Spin Scale       =       0.3333333333333333 [-]
	 SCS Opposite-Spin Scale   =       1.2000000000000000 [-]
	 SCS Same-Spin Energy      =      -0.1525791972542632 [Eh]
	 SCS Opposite-Spin Energy  =      -1.7367589953316496 [Eh]
	 SCS Correlation Energy    =      -1.8893381925859127 [Eh]
	 SCS Total Energy          =    -419.6678816979099338 [Eh]
	-----------------------------------------------------------

  Dipole Moment: [D]
     X:    -2.0645      Y:    -0.5758      Z:     0.0583     Total:     2.1441

*** Psi4 exiting successfully. Buy a developer a beer!
