                               Psi4 1.4a3.dev225

  ==> Input File <==

--------------------------------------------------------------------------
#psi4
#
memory 32 gb

molecule  {
0 1
  N        0.1723510    -0.9422650    -0.0110160
  N       -0.2210270     1.4224780    -0.0033780
  C        2.0395230     0.5887340     0.0077330
  C        2.9514110    -0.3582210    -0.7410450
  C        2.9437130    -0.3688660     0.7522200
  C        0.5840210     0.3414150    -0.0010850
  C       -2.0855860    -0.1066610    -0.0107410
  C       -1.1516460    -1.1458400    -0.0150190
  C       -1.5403890     1.1790090    -0.0074550
  C       -3.5664500    -0.3550010     0.0190800
  H        2.3036370     1.6413390     0.0163460
  H        3.8028480     0.0735720    -1.2571040
  H        2.4662660    -1.1861320    -1.2466910
  H        2.4987511    -1.1269782     1.1958901
  H        3.7897520     0.0554290     1.2831630
  H       -1.4774160    -2.1870700    -0.0286840
  H       -2.1879510     2.0569620    -0.0148810
  H       -3.8167460    -1.2890820    -0.4911310
  H       -4.1087150     0.4576500    -0.4717300
  H       -3.9321000    -0.4275930     1.0483980
units angstrom
no_reorient  #important for SAPT in psi4, default
symmetry c1  #important for SAPT in psi4, default
}

set PROPERTIES_ORIGIN ["COM"]
properties('MP2/aug-cc-pvtz', properties = ['dipole'])
--------------------------------------------------------------------------

    Molecular point group: c1
  Charge       = 0
  Multiplicity = 1
  Basis Set: AUG-CC-PVTZ
    Blend: AUG-CC-PVTZ
  Basis Set: (AUG-CC-PVTZ AUX)
    Blend: AUG-CC-PVTZ-JKFIT

    Orbital Energies [Eh]
    ---------------------

    Doubly Occupied:

       1A    -15.564047     2A    -15.563962     3A    -11.313500
       4A    -11.291899     5A    -11.290395     6A    -11.245588
       7A    -11.238137     8A    -11.230796     9A    -11.225029
      10A    -11.214275    11A     -1.301738    12A     -1.182606
      13A     -1.148522    14A     -1.088416    15A     -0.967399
      16A     -0.891486    17A     -0.875548    18A     -0.829863
      19A     -0.797544    20A     -0.717100    21A     -0.697869
      22A     -0.646443    23A     -0.618129    24A     -0.598327
      25A     -0.591818    26A     -0.582460    27A     -0.558305
      28A     -0.555039    29A     -0.528513    30A     -0.516591
      31A     -0.471778    32A     -0.434760    33A     -0.423978
      34A     -0.414490    35A     -0.402844    36A     -0.334212

  @DF-RHF Final Energy:  -417.77348494330107

   => Energetics <=

    Nuclear Repulsion Energy =            493.9771409954072396
    One-Electron Energy =               -1544.7944400413080075
    Two-Electron Energy =                 633.0438141025996401
    Total Energy =                       -417.7734849433010140
  Basis Set: (AUG-CC-PVTZ AUX)
    Blend: AUG-CC-PVTZ-RI
    Molecular point group: c1

    Geometry (in Angstrom), charge = 0, multiplicity = 1:

       Center              X                  Y                   Z               Mass
    ------------   -----------------  -----------------  -----------------  -----------------
         N            0.166782128010    -0.957719935831    -0.010095196277    14.003074004430
         N           -0.226595871990     1.407023064169    -0.002457196277    14.003074004430
         C            2.033954128010     0.573279064169     0.008653803723    12.000000000000
         C            2.945842128010    -0.373675935831    -0.740124196277    12.000000000000
         C            2.938144128010    -0.384320935831     0.753140803723    12.000000000000
         C            0.578452128010     0.325960064169    -0.000164196277    12.000000000000
         C           -2.091154871990    -0.122115935831    -0.009820196277    12.000000000000
         C           -1.157214871990    -1.161294935831    -0.014098196277    12.000000000000
         C           -1.545957871990     1.163554064169    -0.006534196277    12.000000000000
         C           -3.572018871990    -0.370455935831     0.020000803723    12.000000000000
         H            2.298068128010     1.625884064169     0.017266803723     1.007825032230
         H            3.797279128010     0.058117064169    -1.256183196277     1.007825032230
         H            2.460697128010    -1.201586935831    -1.245770196277     1.007825032230
         H            2.493182228010    -1.142433135831     1.196810903723     1.007825032230
         H            3.784183128010     0.039974064169     1.284083803723     1.007825032230
         H           -1.482984871990    -2.202524935831    -0.027763196277     1.007825032230
         H           -2.193519871990     2.041507064169    -0.013960196277     1.007825032230
         H           -3.822314871990    -1.304536935831    -0.490210196277     1.007825032230
         H           -4.114283871990     0.442195064169    -0.470809196277     1.007825032230
         H           -3.937668871990    -0.443047935831     1.049318803723     1.007825032230

  Basis Set: AUG-CC-PVTZ
    Blend: AUG-CC-PVTZ
  Basis Set: (AUG-CC-PVTZ AUX)
    Blend: AUG-CC-PVTZ-JKFIT
	 Reference Energy          =    -417.7734849433010709 [Eh]
	 Singles Energy            =      -0.0000000000000000 [Eh]
	 Same-Spin Energy          =      -0.4575750902311192 [Eh]
	 Opposite-Spin Energy      =      -1.4470576255873868 [Eh]
	 Correlation Energy        =      -1.9046327158185061 [Eh]
	 Total Energy              =    -419.6781176591195504 [Eh]

	 ================> DF-SCS-MP2 Energies <==================
	-----------------------------------------------------------
	 SCS Same-Spin Scale       =       0.3333333333333333 [-]
	 SCS Opposite-Spin Scale   =       1.2000000000000000 [-]
	 SCS Same-Spin Energy      =      -0.1525250300770397 [Eh]
	 SCS Opposite-Spin Energy  =      -1.7364691507048642 [Eh]
	 SCS Correlation Energy    =      -1.8889941807819040 [Eh]
	 SCS Total Energy          =    -419.6624791240829495 [Eh]
	-----------------------------------------------------------

  Dipole Moment: [D]
     X:    -2.0413      Y:    -0.5789      Z:     0.0635     Total:     2.1228

*** Psi4 exiting successfully. Buy a developer a beer!
