                               Psi4 1.4a3.dev225

  ==> Input File <==

--------------------------------------------------------------------------
#psi4
#
memory 32 gb

molecule  {
0 1
  N        0.1723510    -0.9422650    -0.0110160
  N       -0.2210270     1.4224780    -0.0033780
  C        2.0395230     0.5887340     0.0077330
  C        2.9514110    -0.3582210    -0.7410450
  C        2.9437130    -0.3688660     0.7522200
  C        0.5840210     0.3414150    -0.0010850
  C       -2.0855860    -0.1066610    -0.0107410
  C       -1.1516460    -1.1458400    -0.0150190
  C       -1.5403890     1.1790090    -0.0074550
  C       -3.5664500    -0.3550010     0.0190800
  H        2.3036370     1.6413390     0.0163460
  H        3.8028480     0.0735720    -1.2571040
  H        2.4662660    -1.1861320    -1.2466910
  H        2.4445242    -1.2193684     1.2499596
  H        3.7897520     0.0554290     1.2831630
  H       -1.4774160    -2.1870700    -0.0286840
  H       -2.1879510     2.0569620    -0.0148810
  H       -3.8167460    -1.2890820    -0.4911310
  H       -4.1087150     0.4576500    -0.4717300
  H       -3.9321000    -0.4275930     1.0483980
units angstrom
no_reorient  #important for SAPT in psi4, default
symmetry c1  #important for SAPT in psi4, default
}

set PROPERTIES_ORIGIN ["COM"]
properties('MP2/aug-cc-pvtz', properties = ['dipole'])
--------------------------------------------------------------------------

    Molecular point group: c1
  Charge       = 0
  Multiplicity = 1
  Basis Set: AUG-CC-PVTZ
    Blend: AUG-CC-PVTZ
  Basis Set: (AUG-CC-PVTZ AUX)
    Blend: AUG-CC-PVTZ-JKFIT

    Orbital Energies [Eh]
    ---------------------

    Doubly Occupied:

       1A    -15.564078     2A    -15.564007     3A    -11.313557
       4A    -11.291855     5A    -11.290367     6A    -11.245627
       7A    -11.238151     8A    -11.231476     9A    -11.227742
      10A    -11.225597    11A     -1.301730    12A     -1.182571
      13A     -1.146979    14A     -1.088095    15A     -0.967079
      16A     -0.891359    17A     -0.874635    18A     -0.816964
      19A     -0.796158    20A     -0.715620    21A     -0.694193
      22A     -0.645851    23A     -0.612770    24A     -0.598347
      25A     -0.591486    26A     -0.582496    27A     -0.558346
      28A     -0.555053    29A     -0.523012    30A     -0.509281
      31A     -0.471826    32A     -0.434021    33A     -0.424359
      34A     -0.414231    35A     -0.402740    36A     -0.334406

  @DF-RHF Final Energy:  -417.77894111636385

   => Energetics <=

    Nuclear Repulsion Energy =            493.4619321857352361
    One-Electron Energy =               -1543.8296171280264844
    Two-Electron Energy =                 632.5887438259275086
    Total Energy =                       -417.7789411163638533
  Basis Set: (AUG-CC-PVTZ AUX)
    Blend: AUG-CC-PVTZ-RI
    Molecular point group: c1

    Geometry (in Angstrom), charge = 0, multiplicity = 1:

       Center              X                  Y                   Z               Mass
    ------------   -----------------  -----------------  -----------------  -----------------
         N            0.167189716275    -0.957025498913    -0.010501601469    14.003074004430
         N           -0.226188283725     1.407717501087    -0.002863601469    14.003074004430
         C            2.034361716275     0.573973501087     0.008247398531    12.000000000000
         C            2.946249716275    -0.372981498913    -0.740530601469    12.000000000000
         C            2.938551716275    -0.383626498913     0.752734398531    12.000000000000
         C            0.578859716275     0.326654501087    -0.000570601469    12.000000000000
         C           -2.090747283725    -0.121421498913    -0.010226601469    12.000000000000
         C           -1.156807283725    -1.160600498913    -0.014504601469    12.000000000000
         C           -1.545550283725     1.164248501087    -0.006940601469    12.000000000000
         C           -3.571611283725    -0.369761498913     0.019594398531    12.000000000000
         H            2.298475716275     1.626578501087     0.016860398531     1.007825032230
         H            3.797686716275     0.058811501087    -1.256589601469     1.007825032230
         H            2.461104716275    -1.200892498913    -1.246176601469     1.007825032230
         H            2.439362916275    -1.234128898913     1.250473998531     1.007825032230
         H            3.784590716275     0.040668501087     1.283677398531     1.007825032230
         H           -1.482577283725    -2.201830498913    -0.028169601469     1.007825032230
         H           -2.193112283725     2.042201501087    -0.014366601469     1.007825032230
         H           -3.821907283725    -1.303842498913    -0.490616601469     1.007825032230
         H           -4.113876283725     0.442889501087    -0.471215601469     1.007825032230
         H           -3.937261283725    -0.442353498913     1.048912398531     1.007825032230

  Basis Set: AUG-CC-PVTZ
    Blend: AUG-CC-PVTZ
  Basis Set: (AUG-CC-PVTZ AUX)
    Blend: AUG-CC-PVTZ-JKFIT
	 Reference Energy          =    -417.7789411163638533 [Eh]
	 Singles Energy            =      -0.0000000000000000 [Eh]
	 Same-Spin Energy          =      -0.4577455094482081 [Eh]
	 Opposite-Spin Energy      =      -1.4476762567235939 [Eh]
	 Correlation Energy        =      -1.9054217661718020 [Eh]
	 Total Energy              =    -419.6843628825356518 [Eh]

	 ================> DF-SCS-MP2 Energies <==================
	-----------------------------------------------------------
	 SCS Same-Spin Scale       =       0.3333333333333333 [-]
	 SCS Opposite-Spin Scale   =       1.2000000000000000 [-]
	 SCS Same-Spin Energy      =      -0.1525818364827360 [Eh]
	 SCS Opposite-Spin Energy  =      -1.7372115080683126 [Eh]
	 SCS Correlation Energy    =      -1.8897933445510486 [Eh]
	 SCS Total Energy          =    -419.6687344609148909 [Eh]
	-----------------------------------------------------------

  Dipole Moment: [D]
     X:    -2.0487      Y:    -0.5709      Z:     0.0416     Total:     2.1271

*** Psi4 exiting successfully. Buy a developer a beer!
