                               Psi4 1.4a3.dev225

  ==> Input File <==

--------------------------------------------------------------------------
#psi4
#
memory 32 gb

molecule  {
0 1
  N        0.1723510    -0.9422650    -0.0110160
  N       -0.2210270     1.4224780    -0.0033780
  C        2.0395230     0.5887340     0.0077330
  C        2.9514110    -0.3582210    -0.7410450
  C        3.0632450    -0.4954586     0.8506396
  C        0.5840210     0.3414150    -0.0010850
  C       -2.0855860    -0.1066610    -0.0107410
  C       -1.1516460    -1.1458400    -0.0150190
  C       -1.5403890     1.1790090    -0.0074550
  C       -3.5664500    -0.3550010     0.0190800
  H        2.3036370     1.6413390     0.0163460
  H        3.8028480     0.0735720    -1.2571040
  H        2.4662660    -1.1861320    -1.2466910
  H        2.4535620    -1.2039700     1.2409480
  H        3.7897520     0.0554290     1.2831630
  H       -1.4774160    -2.1870700    -0.0286840
  H       -2.1879510     2.0569620    -0.0148810
  H       -3.8167460    -1.2890820    -0.4911310
  H       -4.1087150     0.4576500    -0.4717300
  H       -3.9321000    -0.4275930     1.0483980
units angstrom
no_reorient  #important for SAPT in psi4, default
symmetry c1  #important for SAPT in psi4, default
}

set PROPERTIES_ORIGIN ["COM"]
properties('MP2/aug-cc-pvtz', properties = ['dipole'])
--------------------------------------------------------------------------

    Molecular point group: c1
  Charge       = 0
  Multiplicity = 1
  Basis Set: AUG-CC-PVTZ
    Blend: AUG-CC-PVTZ
  Basis Set: (AUG-CC-PVTZ AUX)
    Blend: AUG-CC-PVTZ-JKFIT

    Orbital Energies [Eh]
    ---------------------

    Doubly Occupied:

       1A    -15.563648     2A    -15.563624     3A    -11.314072
       4A    -11.291750     5A    -11.290368     6A    -11.245068
       7A    -11.239822     8A    -11.239130     9A    -11.237891
      10A    -11.231341    11A     -1.301012    12A     -1.181977
      13A     -1.117794    14A     -1.078102    15A     -0.965910
      16A     -0.891280    17A     -0.877151    18A     -0.837314
      19A     -0.794533    20A     -0.714539    21A     -0.691164
      22A     -0.650756    23A     -0.598584    24A     -0.596871
      25A     -0.591956    26A     -0.579685    27A     -0.565219
      28A     -0.554800    29A     -0.550861    30A     -0.520812
      31A     -0.470856    32A     -0.438519    33A     -0.414722
      34A     -0.403342    35A     -0.391352    36A     -0.323304

  @DF-RHF Final Energy:  -417.74884044147188

   => Energetics <=

    Nuclear Repulsion Energy =            489.9289518429644090
    One-Electron Energy =               -1536.7173280375850482
    Two-Electron Energy =                 629.0395357531488116
    Total Energy =                       -417.7488404414718843
  Basis Set: (AUG-CC-PVTZ AUX)
    Blend: AUG-CC-PVTZ-RI
    Molecular point group: c1

    Geometry (in Angstrom), charge = 0, multiplicity = 1:

       Center              X                  Y                   Z               Mass
    ------------   -----------------  -----------------  -----------------  -----------------
         N            0.156424164585    -0.945811723666    -0.019242014958    14.003074004430
         N           -0.236953835415     1.418931276334    -0.011604014958    14.003074004430
         C            2.023596164585     0.585187276334    -0.000493014958    12.000000000000
         C            2.935484164585    -0.361767723666    -0.749271014958    12.000000000000
         C            3.047318164585    -0.499005323666     0.842413585042    12.000000000000
         C            0.568094164585     0.337868276334    -0.009311014958    12.000000000000
         C           -2.101512835415    -0.110207723666    -0.018967014958    12.000000000000
         C           -1.167572835415    -1.149386723666    -0.023245014958    12.000000000000
         C           -1.556315835415     1.175462276334    -0.015681014958    12.000000000000
         C           -3.582376835415    -0.358547723666     0.010853985042    12.000000000000
         H            2.287710164585     1.637792276334     0.008119985042     1.007825032230
         H            3.786921164585     0.070025276334    -1.265330014958     1.007825032230
         H            2.450339164585    -1.189678723666    -1.254917014958     1.007825032230
         H            2.437635164585    -1.207516723666     1.232721985042     1.007825032230
         H            3.773825164585     0.051882276334     1.274936985042     1.007825032230
         H           -1.493342835415    -2.190616723666    -0.036910014958     1.007825032230
         H           -2.203877835415     2.053415276334    -0.023107014958     1.007825032230
         H           -3.832672835415    -1.292628723666    -0.499357014958     1.007825032230
         H           -4.124641835415     0.454103276334    -0.479956014958     1.007825032230
         H           -3.948026835415    -0.431139723666     1.040171985042     1.007825032230

  Basis Set: AUG-CC-PVTZ
    Blend: AUG-CC-PVTZ
  Basis Set: (AUG-CC-PVTZ AUX)
    Blend: AUG-CC-PVTZ-JKFIT
	 Reference Energy          =    -417.7488404414718843 [Eh]
	 Singles Energy            =      -0.0000000000000000 [Eh]
	 Same-Spin Energy          =      -0.4580827681321381 [Eh]
	 Opposite-Spin Energy      =      -1.4507246364246256 [Eh]
	 Correlation Energy        =      -1.9088074045567636 [Eh]
	 Total Energy              =    -419.6576478460286239 [Eh]

	 ================> DF-SCS-MP2 Energies <==================
	-----------------------------------------------------------
	 SCS Same-Spin Scale       =       0.3333333333333333 [-]
	 SCS Opposite-Spin Scale   =       1.2000000000000000 [-]
	 SCS Same-Spin Energy      =      -0.1526942560440460 [Eh]
	 SCS Opposite-Spin Energy  =      -1.7408695637095506 [Eh]
	 SCS Correlation Energy    =      -1.8935638197535967 [Eh]
	 SCS Total Energy          =    -419.6424042612254652 [Eh]
	-----------------------------------------------------------

  Dipole Moment: [D]
     X:    -2.0810      Y:    -0.4876      Z:    -0.0828     Total:     2.1390

*** Psi4 exiting successfully. Buy a developer a beer!
