                               Psi4 1.4a3.dev225

  ==> Input File <==

--------------------------------------------------------------------------
#psi4
#
memory 32 gb

molecule  {
0 1
  N        0.1723510    -0.9422650    -0.0110160
  N       -0.2210270     1.4224780    -0.0033780
  C        2.0395230     0.5887340     0.0077330
  C        2.9514110    -0.3582210    -0.7410450
  C        2.9437130    -0.3688660     0.7522200
  C        0.5840210     0.3414150    -0.0010850
  C       -2.0855860    -0.1066610    -0.0107410
  C       -1.1516460    -1.1458400    -0.0150190
  C       -1.5208688     1.2250410    -0.0073373
  C       -3.5664500    -0.3550010     0.0190800
  H        2.3036370     1.6413390     0.0163460
  H        3.8028480     0.0735720    -1.2571040
  H        2.4662660    -1.1861320    -1.2466910
  H        2.4535620    -1.2039700     1.2409480
  H        3.7897520     0.0554290     1.2831630
  H       -1.4774160    -2.1870700    -0.0286840
  H       -2.1879510     2.0569620    -0.0148810
  H       -3.8167460    -1.2890820    -0.4911310
  H       -4.1087150     0.4576500    -0.4717300
  H       -3.9321000    -0.4275930     1.0483980
units angstrom
no_reorient  #important for SAPT in psi4, default
symmetry c1  #important for SAPT in psi4, default
}

set PROPERTIES_ORIGIN ["COM"]
properties('MP2/aug-cc-pvtz', properties = ['dipole'])
--------------------------------------------------------------------------

    Molecular point group: c1
  Charge       = 0
  Multiplicity = 1
  Basis Set: AUG-CC-PVTZ
    Blend: AUG-CC-PVTZ
  Basis Set: (AUG-CC-PVTZ AUX)
    Blend: AUG-CC-PVTZ-JKFIT

    Orbital Energies [Eh]
    ---------------------

    Doubly Occupied:

       1A    -15.563845     2A    -15.562891     3A    -11.314580
       4A    -11.293398     5A    -11.287773     6A    -11.248820
       7A    -11.237450     8A    -11.231591     9A    -11.225929
      10A    -11.225247    11A     -1.303246    12A     -1.188038
      13A     -1.146357    14A     -1.081531    15A     -0.967937
      16A     -0.891931    17A     -0.869489    18A     -0.818673
      19A     -0.798547    20A     -0.714367    21A     -0.698510
      22A     -0.645854    23A     -0.613732    24A     -0.597235
      25A     -0.594779    26A     -0.585654    27A     -0.558934
      28A     -0.553539    29A     -0.523390    30A     -0.511196
      31A     -0.469664    32A     -0.432861    33A     -0.424890
      34A     -0.418660    35A     -0.399217    36A     -0.328373

  @DF-RHF Final Energy:  -417.77685519312649

   => Energetics <=

    Nuclear Repulsion Energy =            493.1151556661299082
    One-Electron Energy =               -1543.1277611726002306
    Two-Electron Energy =                 632.2357503133437149
    Total Energy =                       -417.7768551931264938
  Basis Set: (AUG-CC-PVTZ AUX)
    Blend: AUG-CC-PVTZ-RI
    Molecular point group: c1

    Geometry (in Angstrom), charge = 0, multiplicity = 1:

       Center              X                  Y                   Z               Mass
    ------------   -----------------  -----------------  -----------------  -----------------
         N            0.165374807724    -0.961260912578    -0.010444400809    14.003074004430
         N           -0.228003192276     1.403482087422    -0.002806400809    14.003074004430
         C            2.032546807724     0.569738087422     0.008304599191    12.000000000000
         C            2.944434807724    -0.377216912578    -0.740473400809    12.000000000000
         C            2.936736807724    -0.387861912578     0.752791599191    12.000000000000
         C            0.577044807724     0.322419087422    -0.000513400809    12.000000000000
         C           -2.092562192276    -0.125656912578    -0.010169400809    12.000000000000
         C           -1.158622192276    -1.164835912578    -0.014447400809    12.000000000000
         C           -1.527844992276     1.206045087422    -0.006765700809    12.000000000000
         C           -3.573426192276    -0.373996912578     0.019651599191    12.000000000000
         H            2.296660807724     1.622343087422     0.016917599191     1.007825032230
         H            3.795871807724     0.054576087422    -1.256532400809     1.007825032230
         H            2.459289807724    -1.205127912578    -1.246119400809     1.007825032230
         H            2.446585807724    -1.222965912578     1.241519599191     1.007825032230
         H            3.782775807724     0.036433087422     1.283734599191     1.007825032230
         H           -1.484392192276    -2.206065912578    -0.028112400809     1.007825032230
         H           -2.194927192276     2.037966087422    -0.014309400809     1.007825032230
         H           -3.823722192276    -1.308077912578    -0.490559400809     1.007825032230
         H           -4.115691192276     0.438654087422    -0.471158400809     1.007825032230
         H           -3.939076192276    -0.446588912578     1.048969599191     1.007825032230

  Basis Set: AUG-CC-PVTZ
    Blend: AUG-CC-PVTZ
  Basis Set: (AUG-CC-PVTZ AUX)
    Blend: AUG-CC-PVTZ-JKFIT
	 Reference Energy          =    -417.7768551931264938 [Eh]
	 Singles Energy            =      -0.0000000000000000 [Eh]
	 Same-Spin Energy          =      -0.4576542764984354 [Eh]
	 Opposite-Spin Energy      =      -1.4473780432859589 [Eh]
	 Correlation Energy        =      -1.9050323197843944 [Eh]
	 Total Energy              =    -419.6818875129108619 [Eh]

	 ================> DF-SCS-MP2 Energies <==================
	-----------------------------------------------------------
	 SCS Same-Spin Scale       =       0.3333333333333333 [-]
	 SCS Opposite-Spin Scale   =       1.2000000000000000 [-]
	 SCS Same-Spin Energy      =      -0.1525514254994785 [Eh]
	 SCS Opposite-Spin Energy  =      -1.7368536519431506 [Eh]
	 SCS Correlation Energy    =      -1.8894050774426290 [Eh]
	 SCS Total Energy          =    -419.6662602705691256 [Eh]
	-----------------------------------------------------------

  Dipole Moment: [D]
     X:    -2.0621      Y:    -0.4755      Z:     0.0479     Total:     2.1168

*** Psi4 exiting successfully. Buy a developer a beer!
