                               Psi4 1.4a3.dev225

  ==> Input File <==

--------------------------------------------------------------------------
#psi4
#
memory 32 gb

molecule  {
0 1
  N        0.1723510    -0.9422650    -0.0110160
  N       -0.2210270     1.4224780    -0.0033780
  C        2.0395230     0.5887340     0.0077330
  C        2.9514110    -0.3582210    -0.7410450
  C        2.9437130    -0.3688660     0.7522200
  C        0.6037380     0.3447653    -0.0009655
  C       -2.0855860    -0.1066610    -0.0107410
  C       -1.1516460    -1.1458400    -0.0150190
  C       -1.5403890     1.1790090    -0.0074550
  C       -3.5664500    -0.3550010     0.0190800
  H        2.3036370     1.6413390     0.0163460
  H        3.8028480     0.0735720    -1.2571040
  H        2.4662660    -1.1861320    -1.2466910
  H        2.4535620    -1.2039700     1.2409480
  H        3.7897520     0.0554290     1.2831630
  H       -1.4774160    -2.1870700    -0.0286840
  H       -2.1879510     2.0569620    -0.0148810
  H       -3.8167460    -1.2890820    -0.4911310
  H       -4.1087150     0.4576500    -0.4717300
  H       -3.9321000    -0.4275930     1.0483980
units angstrom
no_reorient  #important for SAPT in psi4, default
symmetry c1  #important for SAPT in psi4, default
}

set PROPERTIES_ORIGIN ["COM"]
properties('MP2/aug-cc-pvtz', properties = ['dipole'])
--------------------------------------------------------------------------

    Molecular point group: c1
  Charge       = 0
  Multiplicity = 1
  Basis Set: AUG-CC-PVTZ
    Blend: AUG-CC-PVTZ
  Basis Set: (AUG-CC-PVTZ AUX)
    Blend: AUG-CC-PVTZ-JKFIT

    Orbital Energies [Eh]
    ---------------------

    Doubly Occupied:

       1A    -15.563628     2A    -15.563535     3A    -11.314837
       4A    -11.290888     5A    -11.289374     6A    -11.244656
       7A    -11.237471     8A    -11.231939     9A    -11.227642
      10A    -11.226971    11A     -1.297696    12A     -1.178752
      13A     -1.149836    14A     -1.087075    15A     -0.967877
      16A     -0.889574    17A     -0.876628    18A     -0.820312
      19A     -0.796851    20A     -0.715969    21A     -0.694032
      22A     -0.646362    23A     -0.615582    24A     -0.597130
      25A     -0.590551    26A     -0.581690    27A     -0.556887
      28A     -0.554148    29A     -0.526286    30A     -0.512344
      31A     -0.471978    32A     -0.436523    33A     -0.426247
      34A     -0.412635    35A     -0.399223    36A     -0.332075

  @DF-RHF Final Energy:  -417.77801706123023

   => Energetics <=

    Nuclear Repulsion Energy =            493.4104670946662168
    One-Electron Energy =               -1543.7265653032472983
    Two-Electron Energy =                 632.5380811473507947
    Total Energy =                       -417.7780170612302300
  Basis Set: (AUG-CC-PVTZ AUX)
    Blend: AUG-CC-PVTZ-RI
    Molecular point group: c1

    Geometry (in Angstrom), charge = 0, multiplicity = 1:

       Center              X                  Y                   Z               Mass
    ------------   -----------------  -----------------  -----------------  -----------------
         N            0.165357194936    -0.957441076666    -0.010444561901    14.003074004430
         N           -0.228020805064     1.407301923334    -0.002806561901    14.003074004430
         C            2.032529194936     0.573557923334     0.008304438099    12.000000000000
         C            2.944417194936    -0.373397076666    -0.740473561901    12.000000000000
         C            2.936719194936    -0.384042076666     0.752791438099    12.000000000000
         C            0.596744194936     0.329589223334    -0.000394061901    12.000000000000
         C           -2.092579805064    -0.121837076666    -0.010169561901    12.000000000000
         C           -1.158639805064    -1.161016076666    -0.014447561901    12.000000000000
         C           -1.547382805064     1.163832923334    -0.006883561901    12.000000000000
         C           -3.573443805064    -0.370177076666     0.019651438099    12.000000000000
         H            2.296643194936     1.626162923334     0.016917438099     1.007825032230
         H            3.795854194936     0.058395923334    -1.256532561901     1.007825032230
         H            2.459272194936    -1.201308076666    -1.246119561901     1.007825032230
         H            2.446568194936    -1.219146076666     1.241519438099     1.007825032230
         H            3.782758194936     0.040252923334     1.283734438099     1.007825032230
         H           -1.484409805064    -2.202246076666    -0.028112561901     1.007825032230
         H           -2.194944805064     2.041785923334    -0.014309561901     1.007825032230
         H           -3.823739805064    -1.304258076666    -0.490559561901     1.007825032230
         H           -4.115708805064     0.442473923334    -0.471158561901     1.007825032230
         H           -3.939093805064    -0.442769076666     1.048969438099     1.007825032230

  Basis Set: AUG-CC-PVTZ
    Blend: AUG-CC-PVTZ
  Basis Set: (AUG-CC-PVTZ AUX)
    Blend: AUG-CC-PVTZ-JKFIT
	 Reference Energy          =    -417.7780170612302300 [Eh]
	 Singles Energy            =      -0.0000000000000000 [Eh]
	 Same-Spin Energy          =      -0.4580893101447741 [Eh]
	 Opposite-Spin Energy      =      -1.4481247076524226 [Eh]
	 Correlation Energy        =      -1.9062140177971967 [Eh]
	 Total Energy              =    -419.6842310790274269 [Eh]

	 ================> DF-SCS-MP2 Energies <==================
	-----------------------------------------------------------
	 SCS Same-Spin Scale       =       0.3333333333333333 [-]
	 SCS Opposite-Spin Scale   =       1.2000000000000000 [-]
	 SCS Same-Spin Energy      =      -0.1526964367149247 [Eh]
	 SCS Opposite-Spin Energy  =      -1.7377496491829072 [Eh]
	 SCS Correlation Energy    =      -1.8904460858978318 [Eh]
	 SCS Total Energy          =    -419.6684631471280795 [Eh]
	-----------------------------------------------------------

  Dipole Moment: [D]
     X:    -1.9106      Y:    -0.5741      Z:     0.0471     Total:     1.9955

*** Psi4 exiting successfully. Buy a developer a beer!
