                               Psi4 1.4a3.dev225

  ==> Input File <==

--------------------------------------------------------------------------
#psi4
#
memory 32 gb

molecule  {
0 1
  N        0.1723510    -0.9422650    -0.0110160
  N       -0.2210270     1.4224780    -0.0033780
  C        2.0395230     0.5887340     0.0077330
  C        2.9514110    -0.3582210    -0.7410450
  C        2.8241810    -0.2422734     0.6538004
  C        0.5840210     0.3414150    -0.0010850
  C       -2.0855860    -0.1066610    -0.0107410
  C       -1.1516460    -1.1458400    -0.0150190
  C       -1.5403890     1.1790090    -0.0074550
  C       -3.5664500    -0.3550010     0.0190800
  H        2.3036370     1.6413390     0.0163460
  H        3.8028480     0.0735720    -1.2571040
  H        2.4662660    -1.1861320    -1.2466910
  H        2.4535620    -1.2039700     1.2409480
  H        3.7897520     0.0554290     1.2831630
  H       -1.4774160    -2.1870700    -0.0286840
  H       -2.1879510     2.0569620    -0.0148810
  H       -3.8167460    -1.2890820    -0.4911310
  H       -4.1087150     0.4576500    -0.4717300
  H       -3.9321000    -0.4275930     1.0483980
units angstrom
no_reorient  #important for SAPT in psi4, default
symmetry c1  #important for SAPT in psi4, default
}

set PROPERTIES_ORIGIN ["COM"]
properties('MP2/aug-cc-pvtz', properties = ['dipole'])
--------------------------------------------------------------------------

    Molecular point group: c1
  Charge       = 0
  Multiplicity = 1
  Basis Set: AUG-CC-PVTZ
    Blend: AUG-CC-PVTZ
  Basis Set: (AUG-CC-PVTZ AUX)
    Blend: AUG-CC-PVTZ-JKFIT

    Orbital Energies [Eh]
    ---------------------

    Doubly Occupied:

       1A    -15.565896     2A    -15.565729     3A    -11.314605
       4A    -11.292845     5A    -11.291234     6A    -11.247263
       7A    -11.239075     8A    -11.225624     9A    -11.222739
      10A    -11.214577    11A     -1.304634    12A     -1.202935
      13A     -1.182032    14A     -1.093107    15A     -0.969459
      16A     -0.892861    17A     -0.877103    18A     -0.817320
      19A     -0.785175    20A     -0.721638    21A     -0.700203
      22A     -0.654593    23A     -0.623489    24A     -0.599321
      25A     -0.592289    26A     -0.584098    27A     -0.560306
      28A     -0.555998    29A     -0.522366    30A     -0.490255
      31A     -0.469024    32A     -0.455441    33A     -0.414872
      34A     -0.410404    35A     -0.403035    36A     -0.337969

  @DF-RHF Final Energy:  -417.73092110658934

   => Energetics <=

    Nuclear Repulsion Energy =            497.5510573154508052
    One-Electron Energy =               -1551.7649318955880062
    Two-Electron Energy =                 636.4829534735478092
    Total Energy =                       -417.7309211065893351
  Basis Set: (AUG-CC-PVTZ AUX)
    Blend: AUG-CC-PVTZ-RI
    Molecular point group: c1

    Geometry (in Angstrom), charge = 0, multiplicity = 1:

       Center              X                  Y                   Z               Mass
    ------------   -----------------  -----------------  -----------------  -----------------
         N            0.177819405460    -0.968470753634    -0.001625719331    14.003074004430
         N           -0.215558594540     1.396272246366     0.006012280669    14.003074004430
         C            2.044991405460     0.562528246366     0.017123280669    12.000000000000
         C            2.956879405460    -0.384426753634    -0.731654719331    12.000000000000
         C            2.829649405460    -0.268479153634     0.663190680669    12.000000000000
         C            0.589489405460     0.315209246366     0.008305280669    12.000000000000
         C           -2.080117594540    -0.132866753634    -0.001350719331    12.000000000000
         C           -1.146177594540    -1.172045753634    -0.005628719331    12.000000000000
         C           -1.534920594540     1.152803246366     0.001935280669    12.000000000000
         C           -3.560981594540    -0.381206753634     0.028470280669    12.000000000000
         H            2.309105405460     1.615133246366     0.025736280669     1.007825032230
         H            3.808316405460     0.047366246366    -1.247713719331     1.007825032230
         H            2.471734405460    -1.212337753634    -1.237300719331     1.007825032230
         H            2.459030405460    -1.230175753634     1.250338280669     1.007825032230
         H            3.795220405460     0.029223246366     1.292553280669     1.007825032230
         H           -1.471947594540    -2.213275753634    -0.019293719331     1.007825032230
         H           -2.182482594540     2.030756246366    -0.005490719331     1.007825032230
         H           -3.811277594540    -1.315287753634    -0.481740719331     1.007825032230
         H           -4.103246594540     0.431444246366    -0.462339719331     1.007825032230
         H           -3.926631594540    -0.453798753634     1.057788280669     1.007825032230

  Basis Set: AUG-CC-PVTZ
    Blend: AUG-CC-PVTZ
  Basis Set: (AUG-CC-PVTZ AUX)
    Blend: AUG-CC-PVTZ-JKFIT
	 Reference Energy          =    -417.7309211065893351 [Eh]
	 Singles Energy            =      -0.0000000000000000 [Eh]
	 Same-Spin Energy          =      -0.4596826207353810 [Eh]
	 Opposite-Spin Energy      =      -1.4492887229056386 [Eh]
	 Correlation Energy        =      -1.9089713436410196 [Eh]
	 Total Energy              =    -419.6398924502303771 [Eh]

	 ================> DF-SCS-MP2 Energies <==================
	-----------------------------------------------------------
	 SCS Same-Spin Scale       =       0.3333333333333333 [-]
	 SCS Opposite-Spin Scale   =       1.2000000000000000 [-]
	 SCS Same-Spin Energy      =      -0.1532275402451270 [Eh]
	 SCS Opposite-Spin Energy  =      -1.7391464674867663 [Eh]
	 SCS Correlation Energy    =      -1.8923740077318933 [Eh]
	 SCS Total Energy          =    -419.6232951143212517 [Eh]
	-----------------------------------------------------------

  Dipole Moment: [D]
     X:    -2.1871      Y:    -0.5755      Z:     0.1027     Total:     2.2639

*** Psi4 exiting successfully. Buy a developer a beer!
