                               Psi4 1.4a3.dev225

  ==> Input File <==

--------------------------------------------------------------------------
#psi4
#
memory 32 gb

molecule  {
0 1
  N        0.1723510    -0.9422650    -0.0110160
  N       -0.2210270     1.4224780    -0.0033780
  C        2.0395230     0.5887340     0.0077330
  C        2.9514110    -0.3582210    -0.7410450
  C        2.9437130    -0.3688660     0.7522200
  C        0.5840210     0.3414150    -0.0010850
  C       -2.1178571     0.0268352    -0.0872217
  C       -1.1516460    -1.1458400    -0.0150190
  C       -1.5403890     1.1790090    -0.0074550
  C       -3.5664500    -0.3550010     0.0190800
  H        2.3036370     1.6413390     0.0163460
  H        3.8028480     0.0735720    -1.2571040
  H        2.4662660    -1.1861320    -1.2466910
  H        2.4535620    -1.2039700     1.2409480
  H        3.7897520     0.0554290     1.2831630
  H       -1.4774160    -2.1870700    -0.0286840
  H       -2.1879510     2.0569620    -0.0148810
  H       -3.8167460    -1.2890820    -0.4911310
  H       -4.1087150     0.4576500    -0.4717300
  H       -3.9321000    -0.4275930     1.0483980
units angstrom
no_reorient  #important for SAPT in psi4, default
symmetry c1  #important for SAPT in psi4, default
}

set PROPERTIES_ORIGIN ["COM"]
properties('MP2/aug-cc-pvtz', properties = ['dipole'])
--------------------------------------------------------------------------

    Molecular point group: c1
  Charge       = 0
  Multiplicity = 1
  Basis Set: AUG-CC-PVTZ
    Blend: AUG-CC-PVTZ
  Basis Set: (AUG-CC-PVTZ AUX)
    Blend: AUG-CC-PVTZ-JKFIT

    Orbital Energies [Eh]
    ---------------------

    Doubly Occupied:

       1A    -15.570165     2A    -15.557206     3A    -11.314678
       4A    -11.311063     5A    -11.267682     6A    -11.244812
       7A    -11.239076     8A    -11.232027     9A    -11.226761
      10A    -11.226079    11A     -1.301411    12A     -1.183509
      13A     -1.147274    14A     -1.090262    15A     -0.968570
      16A     -0.899757    17A     -0.868824    18A     -0.819630
      19A     -0.792242    20A     -0.713349    21A     -0.696419
      22A     -0.645719    23A     -0.615114    24A     -0.604559
      25A     -0.597378    26A     -0.573986    27A     -0.558323
      28A     -0.549810    29A     -0.523552    30A     -0.512143
      31A     -0.467229    32A     -0.435450    33A     -0.423818
      34A     -0.417493    35A     -0.399258    36A     -0.336003

  @DF-RHF Final Energy:  -417.75563883109169

   => Energetics <=

    Nuclear Repulsion Energy =            493.3444188908401884
    One-Electron Energy =               -1543.5388465943037772
    Two-Electron Energy =                 632.4387888723719016
    Total Energy =                       -417.7556388310916873
  Basis Set: (AUG-CC-PVTZ AUX)
    Blend: AUG-CC-PVTZ-RI
    Molecular point group: c1

    Geometry (in Angstrom), charge = 0, multiplicity = 1:

       Center              X                  Y                   Z               Mass
    ------------   -----------------  -----------------  -----------------  -----------------
         N            0.170009915221    -0.969088597328    -0.003589160293    14.003074004430
         N           -0.223368084779     1.395654402672     0.004048839707    14.003074004430
         C            2.037181915221     0.561910402672     0.015159839707    12.000000000000
         C            2.949069915221    -0.385044597328    -0.733618160293    12.000000000000
         C            2.941371915221    -0.395689597328     0.759646839707    12.000000000000
         C            0.581679915221     0.314591402672     0.006341839707    12.000000000000
         C           -2.120198184779     0.000011602672    -0.079794860293    12.000000000000
         C           -1.153987084779    -1.172663597328    -0.007592160293    12.000000000000
         C           -1.542730084779     1.152185402672    -0.000028160293    12.000000000000
         C           -3.568791084779    -0.381824597328     0.026506839707    12.000000000000
         H            2.301295915221     1.614515402672     0.023772839707     1.007825032230
         H            3.800506915221     0.046748402672    -1.249677160293     1.007825032230
         H            2.463924915221    -1.212955597328    -1.239264160293     1.007825032230
         H            2.451220915221    -1.230793597328     1.248374839707     1.007825032230
         H            3.787410915221     0.028605402672     1.290589839707     1.007825032230
         H           -1.479757084779    -2.213893597328    -0.021257160293     1.007825032230
         H           -2.190292084779     2.030138402672    -0.007454160293     1.007825032230
         H           -3.819087084779    -1.315905597328    -0.483704160293     1.007825032230
         H           -4.111056084779     0.430826402672    -0.464303160293     1.007825032230
         H           -3.934441084779    -0.454416597328     1.055824839707     1.007825032230

  Basis Set: AUG-CC-PVTZ
    Blend: AUG-CC-PVTZ
  Basis Set: (AUG-CC-PVTZ AUX)
    Blend: AUG-CC-PVTZ-JKFIT
	 Reference Energy          =    -417.7556388310916873 [Eh]
	 Singles Energy            =      -0.0000000000000000 [Eh]
	 Same-Spin Energy          =      -0.4570635554670756 [Eh]
	 Opposite-Spin Energy      =      -1.4481939729244067 [Eh]
	 Correlation Energy        =      -1.9052575283914823 [Eh]
	 Total Energy              =    -419.6608963594831607 [Eh]

	 ================> DF-SCS-MP2 Energies <==================
	-----------------------------------------------------------
	 SCS Same-Spin Scale       =       0.3333333333333333 [-]
	 SCS Opposite-Spin Scale   =       1.2000000000000000 [-]
	 SCS Same-Spin Energy      =      -0.1523545184890252 [Eh]
	 SCS Opposite-Spin Energy  =      -1.7378327675092879 [Eh]
	 SCS Correlation Energy    =      -1.8901872859983131 [Eh]
	 SCS Total Energy          =    -419.6458261170899959 [Eh]
	-----------------------------------------------------------

  Dipole Moment: [D]
     X:    -1.9379      Y:    -0.8197      Z:     0.0450     Total:     2.1046

*** Psi4 exiting successfully. Buy a developer a beer!
