                               Psi4 1.4a3.dev225

  ==> Input File <==

--------------------------------------------------------------------------
#psi4
#
memory 32 gb

molecule  {
0 1
  N        0.1723510    -0.9422650    -0.0110160
  N       -0.2210270     1.4224780    -0.0033780
  C        2.0395230     0.5887340     0.0077330
  C        2.9514110    -0.3582210    -0.7410450
  C        2.9437130    -0.3688660     0.7522200
  C        0.5840210     0.3414150    -0.0010850
  C       -2.0855860    -0.1066610    -0.0107410
  C       -1.1516460    -1.1458400    -0.0150190
  C       -1.5403890     1.1790090    -0.0074550
  C       -3.5664500    -0.3550010     0.0190800
  H        2.3036370     1.6413390     0.0163460
  H        3.8028480     0.0735720    -1.2571040
  H        2.4662660    -1.1861320    -1.2466910
  H        2.4535620    -1.2039700     1.2409480
  H        3.8677119     0.0945265     1.3320878
  H       -1.4774160    -2.1870700    -0.0286840
  H       -2.1879510     2.0569620    -0.0148810
  H       -3.8167460    -1.2890820    -0.4911310
  H       -4.1087150     0.4576500    -0.4717300
  H       -3.9321000    -0.4275930     1.0483980
units angstrom
no_reorient  #important for SAPT in psi4, default
symmetry c1  #important for SAPT in psi4, default
}

set PROPERTIES_ORIGIN ["COM"]
properties('MP2/aug-cc-pvtz', properties = ['dipole'])
--------------------------------------------------------------------------

    Molecular point group: c1
  Charge       = 0
  Multiplicity = 1
  Basis Set: AUG-CC-PVTZ
    Blend: AUG-CC-PVTZ
  Basis Set: (AUG-CC-PVTZ AUX)
    Blend: AUG-CC-PVTZ-JKFIT

    Orbital Energies [Eh]
    ---------------------

    Doubly Occupied:

       1A    -15.564591     2A    -15.564536     3A    -11.314024
       4A    -11.292276     5A    -11.290770     6A    -11.246078
       7A    -11.238446     8A    -11.236805     9A    -11.232066
      10A    -11.226394    11A     -1.302222    12A     -1.183049
      13A     -1.146903    14A     -1.088281    15A     -0.967154
      16A     -0.891805    17A     -0.874443    18A     -0.811694
      19A     -0.795522    20A     -0.715524    21A     -0.695158
      22A     -0.638384    23A     -0.613769    24A     -0.598507
      25A     -0.591897    26A     -0.582497    27A     -0.557791
      28A     -0.555362    29A     -0.522782    30A     -0.502438
      31A     -0.471974    32A     -0.434074    33A     -0.424715
      34A     -0.414700    35A     -0.403251    36A     -0.334701

  @DF-RHF Final Energy:  -417.77251210825307

   => Energetics <=

    Nuclear Repulsion Energy =            493.0760734916256069
    One-Electron Energy =               -1543.0480022874626229
    Two-Electron Energy =                 632.1994166875838346
    Total Energy =                       -417.7725121082530677
  Basis Set: (AUG-CC-PVTZ AUX)
    Blend: AUG-CC-PVTZ-RI
    Molecular point group: c1

    Geometry (in Angstrom), charge = 0, multiplicity = 1:

       Center              X                  Y                   Z               Mass
    ------------   -----------------  -----------------  -----------------  -----------------
         N            0.166535811265    -0.957435109075    -0.010801602979    14.003074004430
         N           -0.226842188735     1.407307890925    -0.003163602979    14.003074004430
         C            2.033707811265     0.573563890925     0.007947397021    12.000000000000
         C            2.945595811265    -0.373391109075    -0.740830602979    12.000000000000
         C            2.937897811265    -0.384036109075     0.752434397021    12.000000000000
         C            0.578205811265     0.326244890925    -0.000870602979    12.000000000000
         C           -2.091401188735    -0.121831109075    -0.010526602979    12.000000000000
         C           -1.157461188735    -1.161010109075    -0.014804602979    12.000000000000
         C           -1.546204188735     1.163838890925    -0.007240602979    12.000000000000
         C           -3.572265188735    -0.370171109075     0.019294397021    12.000000000000
         H            2.297821811265     1.626168890925     0.016560397021     1.007825032230
         H            3.797032811265     0.058401890925    -1.256889602979     1.007825032230
         H            2.460450811265    -1.201302109075    -1.246476602979     1.007825032230
         H            2.447746811265    -1.219140109075     1.241162397021     1.007825032230
         H            3.861896711265     0.079356390925     1.332302197021     1.007825032230
         H           -1.483231188735    -2.202240109075    -0.028469602979     1.007825032230
         H           -2.193766188735     2.041791890925    -0.014666602979     1.007825032230
         H           -3.822561188735    -1.304252109075    -0.490916602979     1.007825032230
         H           -4.114530188735     0.442479890925    -0.471515602979     1.007825032230
         H           -3.937915188735    -0.442763109075     1.048612397021     1.007825032230

  Basis Set: AUG-CC-PVTZ
    Blend: AUG-CC-PVTZ
  Basis Set: (AUG-CC-PVTZ AUX)
    Blend: AUG-CC-PVTZ-JKFIT
	 Reference Energy          =    -417.7725121082530677 [Eh]
	 Singles Energy            =      -0.0000000000000000 [Eh]
	 Same-Spin Energy          =      -0.4577610463879205 [Eh]
	 Opposite-Spin Energy      =      -1.4482665650789579 [Eh]
	 Correlation Energy        =      -1.9060276114668784 [Eh]
	 Total Energy              =    -419.6785397197199359 [Eh]

	 ================> DF-SCS-MP2 Energies <==================
	-----------------------------------------------------------
	 SCS Same-Spin Scale       =       0.3333333333333333 [-]
	 SCS Opposite-Spin Scale   =       1.2000000000000000 [-]
	 SCS Same-Spin Energy      =      -0.1525870154626401 [Eh]
	 SCS Opposite-Spin Energy  =      -1.7379198780947493 [Eh]
	 SCS Correlation Energy    =      -1.8905068935573894 [Eh]
	 SCS Total Energy          =    -419.6630190018104827 [Eh]
	-----------------------------------------------------------

  Dipole Moment: [D]
     X:    -2.0990      Y:    -0.5749      Z:     0.0090     Total:     2.1763

*** Psi4 exiting successfully. Buy a developer a beer!
