                               Psi4 1.4a3.dev225

  ==> Input File <==

--------------------------------------------------------------------------
#psi4
#
memory 32 gb

molecule  {
0 1
  N        0.1723510    -0.9422650    -0.0110160
  N       -0.2210270     1.4224780    -0.0033780
  C        2.0395230     0.5887340     0.0077330
  C        2.9514110    -0.3582210    -0.7410450
  C        2.9437130    -0.3688660     0.7522200
  C        0.5840210     0.3414150    -0.0010850
  C       -2.0855860    -0.1066610    -0.0107410
  C       -1.1516460    -1.1458400    -0.0150190
  C       -1.5403890     1.1790090    -0.0074550
  C       -3.5664500    -0.3550010     0.0190800
  H        2.3036370     1.6413390     0.0163460
  H        3.8028480     0.0735720    -1.2571040
  H        2.4662660    -1.1861320    -1.2466910
  H        2.4535620    -1.2039700     1.2409480
  H        3.7897520     0.0554290     1.2831630
  H       -1.4774160    -2.1870700    -0.0286840
  H       -2.1879510     2.0569620    -0.0148810
  H       -3.8484958    -1.3130341    -0.4259968
  H       -4.1087150     0.4576500    -0.4717300
  H       -3.9321000    -0.4275930     1.0483980
units angstrom
no_reorient  #important for SAPT in psi4, default
symmetry c1  #important for SAPT in psi4, default
}

set PROPERTIES_ORIGIN ["COM"]
properties('MP2/aug-cc-pvtz', properties = ['dipole'])
--------------------------------------------------------------------------

    Molecular point group: c1
  Charge       = 0
  Multiplicity = 1
  Basis Set: AUG-CC-PVTZ
    Blend: AUG-CC-PVTZ
  Basis Set: (AUG-CC-PVTZ AUX)
    Blend: AUG-CC-PVTZ-JKFIT

    Orbital Energies [Eh]
    ---------------------

    Doubly Occupied:

       1A    -15.564254     2A    -15.564053     3A    -11.313610
       4A    -11.291922     5A    -11.290695     6A    -11.246207
       7A    -11.238149     8A    -11.231369     9A    -11.225890
      10A    -11.225208    11A     -1.301836    12A     -1.182685
      13A     -1.147187    14A     -1.088030    15A     -0.967206
      16A     -0.891474    17A     -0.875250    18A     -0.818678
      19A     -0.796594    20A     -0.715857    21A     -0.695183
      22A     -0.645928    23A     -0.614469    24A     -0.595471
      25A     -0.592643    26A     -0.582896    27A     -0.559495
      28A     -0.553819    29A     -0.523592    30A     -0.511062
      31A     -0.472196    32A     -0.434003    33A     -0.424320
      34A     -0.414390    35A     -0.402963    36A     -0.334146

  @DF-RHF Final Energy:  -417.77901971392964

   => Energetics <=

    Nuclear Repulsion Energy =            493.4855598374785473
    One-Electron Energy =               -1543.8636930738268802
    Two-Electron Energy =                 632.5991135224186337
    Total Energy =                       -417.7790197139296424
  Basis Set: (AUG-CC-PVTZ AUX)
    Blend: AUG-CC-PVTZ-RI
    Molecular point group: c1

    Geometry (in Angstrom), charge = 0, multiplicity = 1:

       Center              X                  Y                   Z               Mass
    ------------   -----------------  -----------------  -----------------  -----------------
         N            0.167360427576    -0.956961206325    -0.010923438475    14.003074004430
         N           -0.226017572424     1.407781793675    -0.003285438475    14.003074004430
         C            2.034532427576     0.574037793675     0.007825561525    12.000000000000
         C            2.946420427576    -0.372917206325    -0.740952438475    12.000000000000
         C            2.938722427576    -0.383562206325     0.752312561525    12.000000000000
         C            0.579030427576     0.326718793675    -0.000992438475    12.000000000000
         C           -2.090576572424    -0.121357206325    -0.010648438475    12.000000000000
         C           -1.156636572424    -1.160536206325    -0.014926438475    12.000000000000
         C           -1.545379572424     1.164312793675    -0.007362438475    12.000000000000
         C           -3.571440572424    -0.369697206325     0.019172561525    12.000000000000
         H            2.298646427576     1.626642793675     0.016438561525     1.007825032230
         H            3.797857427576     0.058875793675    -1.257011438475     1.007825032230
         H            2.461275427576    -1.200828206325    -1.246598438475     1.007825032230
         H            2.448571427576    -1.218666206325     1.241040561525     1.007825032230
         H            3.784761427576     0.040732793675     1.283255561525     1.007825032230
         H           -1.482406572424    -2.201766206325    -0.028591438475     1.007825032230
         H           -2.192941572424     2.042265793675    -0.014788438475     1.007825032230
         H           -3.853486372424    -1.327730306325    -0.425904238475     1.007825032230
         H           -4.113705572424     0.442953793675    -0.471637438475     1.007825032230
         H           -3.937090572424    -0.442289206325     1.048490561525     1.007825032230

  Basis Set: AUG-CC-PVTZ
    Blend: AUG-CC-PVTZ
  Basis Set: (AUG-CC-PVTZ AUX)
    Blend: AUG-CC-PVTZ-JKFIT
	 Reference Energy          =    -417.7790197139296424 [Eh]
	 Singles Energy            =      -0.0000000000000000 [Eh]
	 Same-Spin Energy          =      -0.4577311070161069 [Eh]
	 Opposite-Spin Energy      =      -1.4475273384939817 [Eh]
	 Correlation Energy        =      -1.9052584455100887 [Eh]
	 Total Energy              =    -419.6842781594397138 [Eh]

	 ================> DF-SCS-MP2 Energies <==================
	-----------------------------------------------------------
	 SCS Same-Spin Scale       =       0.3333333333333333 [-]
	 SCS Opposite-Spin Scale   =       1.2000000000000000 [-]
	 SCS Same-Spin Energy      =      -0.1525770356720356 [Eh]
	 SCS Opposite-Spin Energy  =      -1.7370328061927780 [Eh]
	 SCS Correlation Energy    =      -1.8896098418648137 [Eh]
	 SCS Total Energy          =    -419.6686295557944391 [Eh]
	-----------------------------------------------------------

  Dipole Moment: [D]
     X:    -2.0541      Y:    -0.5884      Z:     0.0673     Total:     2.1378

*** Psi4 exiting successfully. Buy a developer a beer!
