                               Psi4 1.4a3.dev225

  ==> Input File <==

--------------------------------------------------------------------------
#psi4
#
memory 32 gb

molecule  {
0 1
  N        0.1723510    -0.9422650    -0.0110160
  N       -0.2028081     1.2832348    -0.0025461
  C        2.0395230     0.5887340     0.0077330
  C        2.9514110    -0.3582210    -0.7410450
  C        2.9437130    -0.3688660     0.7522200
  C        0.5840210     0.3414150    -0.0010850
  C       -2.0855860    -0.1066610    -0.0107410
  C       -1.1516460    -1.1458400    -0.0150190
  C       -1.5403890     1.1790090    -0.0074550
  C       -3.5664500    -0.3550010     0.0190800
  H        2.3036370     1.6413390     0.0163460
  H        3.8028480     0.0735720    -1.2571040
  H        2.4662660    -1.1861320    -1.2466910
  H        2.4535620    -1.2039700     1.2409480
  H        3.7897520     0.0554290     1.2831630
  H       -1.4774160    -2.1870700    -0.0286840
  H       -2.1879510     2.0569620    -0.0148810
  H       -3.8167460    -1.2890820    -0.4911310
  H       -4.1087150     0.4576500    -0.4717300
  H       -3.9321000    -0.4275930     1.0483980
units angstrom
no_reorient  #important for SAPT in psi4, default
symmetry c1  #important for SAPT in psi4, default
}

set PROPERTIES_ORIGIN ["COM"]
properties('MP2/aug-cc-pvtz', properties = ['dipole'])
--------------------------------------------------------------------------

    Molecular point group: c1
  Charge       = 0
  Multiplicity = 1
  Basis Set: AUG-CC-PVTZ
    Blend: AUG-CC-PVTZ
  Basis Set: (AUG-CC-PVTZ AUX)
    Blend: AUG-CC-PVTZ-JKFIT

    Orbital Energies [Eh]
    ---------------------

    Doubly Occupied:

       1A    -15.558223     2A    -15.543746     3A    -11.293585
       4A    -11.292663     5A    -11.289211     6A    -11.247377
       7A    -11.238382     8A    -11.226665     9A    -11.222344
      10A    -11.221675    11A     -1.325203    12A     -1.182344
      13A     -1.145017    14A     -1.094102    15A     -0.973536
      16A     -0.899530    17A     -0.868802    18A     -0.815692
      19A     -0.801277    20A     -0.719694    21A     -0.704801
      22A     -0.643514    23A     -0.619031    24A     -0.603261
      25A     -0.593198    26A     -0.585889    27A     -0.567549
      28A     -0.554789    29A     -0.527353    30A     -0.508814
      31A     -0.462730    32A     -0.432557    33A     -0.423131
      34A     -0.410332    35A     -0.383427    36A     -0.341191

  @DF-RHF Final Energy:  -417.76749198182245

   => Energetics <=

    Nuclear Repulsion Energy =            497.1627729809289349
    One-Electron Energy =               -1551.2192578475110167
    Two-Electron Energy =                 636.2889928847597503
    Total Energy =                       -417.7674919818224453
  Basis Set: (AUG-CC-PVTZ AUX)
    Blend: AUG-CC-PVTZ-RI
    Molecular point group: c1

    Geometry (in Angstrom), charge = 0, multiplicity = 1:

       Center              X                  Y                   Z               Mass
    ------------   -----------------  -----------------  -----------------  -----------------
         N            0.165219098296    -0.942599406352    -0.010520746434    14.003074004430
         N           -0.209940001704     1.282900393648    -0.002050846434    14.003074004430
         C            2.032391098296     0.588399593648     0.008228253566    12.000000000000
         C            2.944279098296    -0.358555406352    -0.740549746434    12.000000000000
         C            2.936581098296    -0.369200406352     0.752715253566    12.000000000000
         C            0.576889098296     0.341080593648    -0.000589746434    12.000000000000
         C           -2.092717901704    -0.106995406352    -0.010245746434    12.000000000000
         C           -1.158777901704    -1.146174406352    -0.014523746434    12.000000000000
         C           -1.547520901704     1.178674593648    -0.006959746434    12.000000000000
         C           -3.573581901704    -0.355335406352     0.019575253566    12.000000000000
         H            2.296505098296     1.641004593648     0.016841253566     1.007825032230
         H            3.795716098296     0.073237593648    -1.256608746434     1.007825032230
         H            2.459134098296    -1.186466406352    -1.246195746434     1.007825032230
         H            2.446430098296    -1.204304406352     1.241443253566     1.007825032230
         H            3.782620098296     0.055094593648     1.283658253566     1.007825032230
         H           -1.484547901704    -2.187404406352    -0.028188746434     1.007825032230
         H           -2.195082901704     2.056627593648    -0.014385746434     1.007825032230
         H           -3.823877901704    -1.289416406352    -0.490635746434     1.007825032230
         H           -4.115846901704     0.457315593648    -0.471234746434     1.007825032230
         H           -3.939231901704    -0.427927406352     1.048893253566     1.007825032230

  Basis Set: AUG-CC-PVTZ
    Blend: AUG-CC-PVTZ
  Basis Set: (AUG-CC-PVTZ AUX)
    Blend: AUG-CC-PVTZ-JKFIT
	 Reference Energy          =    -417.7674919818224453 [Eh]
	 Singles Energy            =      -0.0000000000000000 [Eh]
	 Same-Spin Energy          =      -0.4570147731262216 [Eh]
	 Opposite-Spin Energy      =      -1.4450678901713407 [Eh]
	 Correlation Energy        =      -1.9020826632975623 [Eh]
	 Total Energy              =    -419.6695746451200080 [Eh]

	 ================> DF-SCS-MP2 Energies <==================
	-----------------------------------------------------------
	 SCS Same-Spin Scale       =       0.3333333333333333 [-]
	 SCS Opposite-Spin Scale   =       1.2000000000000000 [-]
	 SCS Same-Spin Energy      =      -0.1523382577087405 [Eh]
	 SCS Opposite-Spin Energy  =      -1.7340814682056089 [Eh]
	 SCS Correlation Energy    =      -1.8864197259143494 [Eh]
	 SCS Total Energy          =    -419.6539117077367678 [Eh]
	-----------------------------------------------------------

  Dipole Moment: [D]
     X:    -2.2212      Y:    -0.2867      Z:     0.0472     Total:     2.2401

*** Psi4 exiting successfully. Buy a developer a beer!
