                               Psi4 1.4a3.dev225

  ==> Input File <==

--------------------------------------------------------------------------
#psi4
#
memory 32 gb

molecule  {
0 1
  N        0.1723510    -0.9422650    -0.0110160
  N       -0.2210270     1.4224780    -0.0033780
  C        2.0395230     0.5887340     0.0077330
  C        2.9514110    -0.3582210    -0.7410450
  C        2.9437130    -0.3688660     0.7522200
  C        0.5840210     0.3414150    -0.0010850
  C       -2.0855860    -0.1066610    -0.0107410
  C       -1.1516460    -1.1458400    -0.0150190
  C       -1.5403890     1.1790090    -0.0074550
  C       -3.5664500    -0.3550010     0.0190800
  H        2.3036370     1.6413390     0.0163460
  H        3.8028480     0.0735720    -1.2571040
  H        2.4662660    -1.1861320    -1.2466910
  H        2.4535620    -1.2039700     1.2409480
  H        3.7897520     0.0554290     1.2831630
  H       -1.4774160    -2.1870700    -0.0286840
  H       -2.1879510     2.0569620    -0.0148810
  H       -3.8167460    -1.2890820    -0.4911310
  H       -4.1087150     0.4576500    -0.4717300
  H       -3.8986995    -0.4209620     0.9543744
units angstrom
no_reorient  #important for SAPT in psi4, default
symmetry c1  #important for SAPT in psi4, default
}

set PROPERTIES_ORIGIN ["COM"]
properties('MP2/aug-cc-pvtz', properties = ['dipole'])
--------------------------------------------------------------------------

    Molecular point group: c1
  Charge       = 0
  Multiplicity = 1
  Basis Set: AUG-CC-PVTZ
    Blend: AUG-CC-PVTZ
  Basis Set: (AUG-CC-PVTZ AUX)
    Blend: AUG-CC-PVTZ-JKFIT

    Orbital Energies [Eh]
    ---------------------

    Doubly Occupied:

       1A    -15.563759     2A    -15.563712     3A    -11.313204
       4A    -11.291478     5A    -11.289983     6A    -11.244994
       7A    -11.231121     8A    -11.225904     9A    -11.225676
      10A    -11.224995    11A     -1.301412    12A     -1.182260
      13A     -1.147017    14A     -1.089891    15A     -0.973721
      16A     -0.891454    17A     -0.877985    18A     -0.818476
      19A     -0.796457    20A     -0.715591    21A     -0.694844
      22A     -0.646076    23A     -0.617357    24A     -0.608201
      25A     -0.592496    26A     -0.582121    27A     -0.563513
      28A     -0.554075    29A     -0.523254    30A     -0.511062
      31A     -0.471545    32A     -0.434484    33A     -0.424072
      34A     -0.413980    35A     -0.402465    36A     -0.334878

  @DF-RHF Final Energy:  -417.77349135664230

   => Energetics <=

    Nuclear Repulsion Energy =            494.0049795489310327
    One-Electron Energy =               -1544.8699146653968910
    Two-Electron Energy =                 633.0914437598235054
    Total Energy =                       -417.7734913566423529
  Basis Set: (AUG-CC-PVTZ AUX)
    Blend: AUG-CC-PVTZ-RI
    Molecular point group: c1

    Geometry (in Angstrom), charge = 0, multiplicity = 1:

       Center              X                  Y                   Z               Mass
    ------------   -----------------  -----------------  -----------------  -----------------
         N            0.166870735233    -0.957191079555    -0.009727153024    14.003074004430
         N           -0.226507264767     1.407551920445    -0.002089153024    14.003074004430
         C            2.034042735233     0.573807920445     0.009021846976    12.000000000000
         C            2.945930735233    -0.373147079555    -0.739756153024    12.000000000000
         C            2.938232735233    -0.383792079555     0.753508846976    12.000000000000
         C            0.578540735233     0.326488920445     0.000203846976    12.000000000000
         C           -2.091066264767    -0.121587079555    -0.009452153024    12.000000000000
         C           -1.157126264767    -1.160766079555    -0.013730153024    12.000000000000
         C           -1.545869264767     1.164082920445    -0.006166153024    12.000000000000
         C           -3.571930264767    -0.369927079555     0.020368846976    12.000000000000
         H            2.298156735233     1.626412920445     0.017634846976     1.007825032230
         H            3.797367735233     0.058645920445    -1.255815153024     1.007825032230
         H            2.460785735233    -1.201058079555    -1.245402153024     1.007825032230
         H            2.448081735233    -1.218896079555     1.242236846976     1.007825032230
         H            3.784271735233     0.040502920445     1.284451846976     1.007825032230
         H           -1.482896264767    -2.201996079555    -0.027395153024     1.007825032230
         H           -2.193431264767     2.042035920445    -0.013592153024     1.007825032230
         H           -3.822226264767    -1.304008079555    -0.489842153024     1.007825032230
         H           -4.114195264767     0.442723920445    -0.470441153024     1.007825032230
         H           -3.904179764767    -0.435888079555     0.955663246976     1.007825032230

  Basis Set: AUG-CC-PVTZ
    Blend: AUG-CC-PVTZ
  Basis Set: (AUG-CC-PVTZ AUX)
    Blend: AUG-CC-PVTZ-JKFIT
	 Reference Energy          =    -417.7734913566422961 [Eh]
	 Singles Energy            =      -0.0000000000000000 [Eh]
	 Same-Spin Energy          =      -0.4577709152289773 [Eh]
	 Opposite-Spin Energy      =      -1.4471264603189566 [Eh]
	 Correlation Energy        =      -1.9048973755479339 [Eh]
	 Total Energy              =    -419.6783887321902284 [Eh]

	 ================> DF-SCS-MP2 Energies <==================
	-----------------------------------------------------------
	 SCS Same-Spin Scale       =       0.3333333333333333 [-]
	 SCS Opposite-Spin Scale   =       1.2000000000000000 [-]
	 SCS Same-Spin Energy      =      -0.1525903050763258 [Eh]
	 SCS Opposite-Spin Energy  =      -1.7365517523827478 [Eh]
	 SCS Correlation Energy    =      -1.8891420574590736 [Eh]
	 SCS Total Energy          =    -419.6626334141013785 [Eh]
	-----------------------------------------------------------

  Dipole Moment: [D]
     X:    -2.0772      Y:    -0.5778      Z:     0.0671     Total:     2.1571

*** Psi4 exiting successfully. Buy a developer a beer!
