                               Psi4 1.4a3.dev225

  ==> Input File <==

--------------------------------------------------------------------------
#psi4
#
memory 32 gb

molecule  {
0 1
  N        0.1723510    -0.9422650    -0.0110160
  N       -0.2210270     1.4224780    -0.0033780
  C        2.0395230     0.5887340     0.0077330
  C        2.9514110    -0.3582210    -0.7410450
  C        2.9437130    -0.3688660     0.7522200
  C        0.5840210     0.3414150    -0.0010850
  C       -2.0855860    -0.1066610    -0.0107410
  C       -1.1516460    -1.1458400    -0.0150190
  C       -1.5403890     1.1790090    -0.0074550
  C       -3.5664500    -0.3550010     0.0190800
  H        2.3036370     1.6413390     0.0163460
  H        3.8028480     0.0735720    -1.2571040
  H        2.4662660    -1.1861320    -1.2466910
  H        2.4535620    -1.2039700     1.2409480
  H        3.7897520     0.0554290     1.2831630
  H       -1.4774160    -2.1870700    -0.0286840
  H       -2.1879510     2.0569620    -0.0148810
  H       -3.8327831    -1.3016347    -0.4588551
  H       -4.1087150     0.4576500    -0.4717300
  H       -3.9321000    -0.4275930     1.0483980
units angstrom
no_reorient  #important for SAPT in psi4, default
symmetry c1  #important for SAPT in psi4, default
}

set PROPERTIES_ORIGIN ["COM"]
properties('MP2/aug-cc-pvtz', properties = ['dipole'])
--------------------------------------------------------------------------

    Molecular point group: c1
  Charge       = 0
  Multiplicity = 1
  Basis Set: AUG-CC-PVTZ
    Blend: AUG-CC-PVTZ
  Basis Set: (AUG-CC-PVTZ AUX)
    Blend: AUG-CC-PVTZ-JKFIT

    Orbital Energies [Eh]
    ---------------------

    Doubly Occupied:

       1A    -15.564155     2A    -15.564034     3A    -11.313578
       4A    -11.291896     5A    -11.290536     6A    -11.245907
       7A    -11.238145     8A    -11.231350     9A    -11.225877
      10A    -11.225195    11A     -1.301783    12A     -1.182630
      13A     -1.147173    14A     -1.088073    15A     -0.967143
      16A     -0.891423    17A     -0.874979    18A     -0.818665
      19A     -0.796526    20A     -0.715840    21A     -0.694981
      22A     -0.645916    23A     -0.614018    24A     -0.596752
      25A     -0.592041    26A     -0.582731    27A     -0.558094
      28A     -0.555500    29A     -0.523543    30A     -0.511084
      31A     -0.472013    32A     -0.434085    33A     -0.424296
      34A     -0.414338    35A     -0.402866    36A     -0.334262

  @DF-RHF Final Energy:  -417.77942886514535

   => Energetics <=

    Nuclear Repulsion Energy =            493.5132136799633145
    One-Electron Energy =               -1543.9224328636335031
    Two-Electron Energy =                 632.6297903185248970
    Total Energy =                       -417.7794288651454053
  Basis Set: (AUG-CC-PVTZ AUX)
    Blend: AUG-CC-PVTZ-RI
    Molecular point group: c1

    Geometry (in Angstrom), charge = 0, multiplicity = 1:

       Center              X                  Y                   Z               Mass
    ------------   -----------------  -----------------  -----------------  -----------------
         N            0.167242325451    -0.957046888185    -0.010676464049    14.003074004430
         N           -0.226135674549     1.407696111815    -0.003038464049    14.003074004430
         C            2.034414325451     0.573952111815     0.008072535951    12.000000000000
         C            2.946302325451    -0.373002888185    -0.740705464049    12.000000000000
         C            2.938604325451    -0.383647888185     0.752559535951    12.000000000000
         C            0.578912325451     0.326633111815    -0.000745464049    12.000000000000
         C           -2.090694674549    -0.121442888185    -0.010401464049    12.000000000000
         C           -1.156754674549    -1.160621888185    -0.014679464049    12.000000000000
         C           -1.545497674549     1.164227111815    -0.007115464049    12.000000000000
         C           -3.571558674549    -0.369782888185     0.019419535951    12.000000000000
         H            2.298528325451     1.626557111815     0.016685535951     1.007825032230
         H            3.797739325451     0.058790111815    -1.256764464049     1.007825032230
         H            2.461157325451    -1.200913888185    -1.246351464049     1.007825032230
         H            2.448453325451    -1.218751888185     1.241287535951     1.007825032230
         H            3.784643325451     0.040647111815     1.283502535951     1.007825032230
         H           -1.482524674549    -2.201851888185    -0.028344464049     1.007825032230
         H           -2.193059674549     2.042180111815    -0.014541464049     1.007825032230
         H           -3.837891774549    -1.316416588185    -0.458515564049     1.007825032230
         H           -4.113823674549     0.442868111815    -0.471390464049     1.007825032230
         H           -3.937208674549    -0.442374888185     1.048737535951     1.007825032230

  Basis Set: AUG-CC-PVTZ
    Blend: AUG-CC-PVTZ
  Basis Set: (AUG-CC-PVTZ AUX)
    Blend: AUG-CC-PVTZ-JKFIT
	 Reference Energy          =    -417.7794288651453485 [Eh]
	 Singles Energy            =      -0.0000000000000000 [Eh]
	 Same-Spin Energy          =      -0.4577137754610718 [Eh]
	 Opposite-Spin Energy      =      -1.4475201556096864 [Eh]
	 Correlation Energy        =      -1.9052339310707582 [Eh]
	 Total Energy              =    -419.6846627962161165 [Eh]

	 ================> DF-SCS-MP2 Energies <==================
	-----------------------------------------------------------
	 SCS Same-Spin Scale       =       0.3333333333333333 [-]
	 SCS Opposite-Spin Scale   =       1.2000000000000000 [-]
	 SCS Same-Spin Energy      =      -0.1525712584870239 [Eh]
	 SCS Opposite-Spin Energy  =      -1.7370241867316236 [Eh]
	 SCS Correlation Energy    =      -1.8895954452186476 [Eh]
	 SCS Total Energy          =    -419.6690243103640228 [Eh]
	-----------------------------------------------------------

  Dipole Moment: [D]
     X:    -2.0505      Y:    -0.5809      Z:     0.0564     Total:     2.1319

*** Psi4 exiting successfully. Buy a developer a beer!
