                               Psi4 1.4a3.dev225

  ==> Input File <==

--------------------------------------------------------------------------
#psi4
#
memory 32 gb

molecule  {
0 1
  N        0.1723510    -0.9422650    -0.0110160
  N       -0.2412225     1.5139180    -0.0039580
  C        2.0395230     0.5887340     0.0077330
  C        2.9514110    -0.3582210    -0.7410450
  C        2.9437130    -0.3688660     0.7522200
  C        0.5840210     0.3414150    -0.0010850
  C       -2.0855860    -0.1066610    -0.0107410
  C       -1.1516460    -1.1458400    -0.0150190
  C       -1.5403890     1.1790090    -0.0074550
  C       -3.5664500    -0.3550010     0.0190800
  H        2.3036370     1.6413390     0.0163460
  H        3.8028480     0.0735720    -1.2571040
  H        2.4662660    -1.1861320    -1.2466910
  H        2.4535620    -1.2039700     1.2409480
  H        3.7897520     0.0554290     1.2831630
  H       -1.4774160    -2.1870700    -0.0286840
  H       -2.1879510     2.0569620    -0.0148810
  H       -3.8167460    -1.2890820    -0.4911310
  H       -4.1087150     0.4576500    -0.4717300
  H       -3.9321000    -0.4275930     1.0483980
units angstrom
no_reorient  #important for SAPT in psi4, default
symmetry c1  #important for SAPT in psi4, default
}

set PROPERTIES_ORIGIN ["COM"]
properties('MP2/aug-cc-pvtz', properties = ['dipole'])
--------------------------------------------------------------------------

    Molecular point group: c1
  Charge       = 0
  Multiplicity = 1
  Basis Set: AUG-CC-PVTZ
    Blend: AUG-CC-PVTZ
  Basis Set: (AUG-CC-PVTZ AUX)
    Blend: AUG-CC-PVTZ-JKFIT

    Orbital Energies [Eh]
    ---------------------

    Doubly Occupied:

       1A    -15.576276     2A    -15.567206     3A    -11.325076
       4A    -11.293075     5A    -11.289158     6A    -11.244720
       7A    -11.237856     8A    -11.234109     9A    -11.228206
      10A    -11.227520    11A     -1.290810    12A     -1.181270
      13A     -1.148649    14A     -1.084581    15A     -0.964045
      16A     -0.885033    17A     -0.878552    18A     -0.820604
      19A     -0.792818    20A     -0.714912    21A     -0.686959
      22A     -0.647243    23A     -0.611155    24A     -0.596614
      25A     -0.592184    26A     -0.575442    27A     -0.554780
      28A     -0.553413    29A     -0.521376    30A     -0.512481
      31A     -0.479453    32A     -0.435791    33A     -0.427029
      34A     -0.416866    35A     -0.406836    36A     -0.330023

  @DF-RHF Final Energy:  -417.76780200694049

   => Energetics <=

    Nuclear Repulsion Energy =            491.2703824791792044
    One-Electron Energy =               -1539.4121292219863335
    Two-Electron Energy =                 630.3739447358666439
    Total Energy =                       -417.7678020069404283
  Basis Set: (AUG-CC-PVTZ AUX)
    Blend: AUG-CC-PVTZ-RI
    Molecular point group: c1

    Geometry (in Angstrom), charge = 0, multiplicity = 1:

       Center              X                  Y                   Z               Mass
    ------------   -----------------  -----------------  -----------------  -----------------
         N            0.169230897526    -0.966690754499    -0.010373294975    14.003074004430
         N           -0.244342602474     1.489492245501    -0.003315294975    14.003074004430
         C            2.036402897526     0.564308245501     0.008375705025    12.000000000000
         C            2.948290897526    -0.382646754499    -0.740402294975    12.000000000000
         C            2.940592897526    -0.393291754499     0.752862705025    12.000000000000
         C            0.580900897526     0.316989245501    -0.000442294975    12.000000000000
         C           -2.088706102474    -0.131086754499    -0.010098294975    12.000000000000
         C           -1.154766102474    -1.170265754499    -0.014376294975    12.000000000000
         C           -1.543509102474     1.154583245501    -0.006812294975    12.000000000000
         C           -3.569570102474    -0.379426754499     0.019722705025    12.000000000000
         H            2.300516897526     1.616913245501     0.016988705025     1.007825032230
         H            3.799727897526     0.049146245501    -1.256461294975     1.007825032230
         H            2.463145897526    -1.210557754499    -1.246048294975     1.007825032230
         H            2.450441897526    -1.228395754499     1.241590705025     1.007825032230
         H            3.786631897526     0.031003245501     1.283805705025     1.007825032230
         H           -1.480536102474    -2.211495754499    -0.028041294975     1.007825032230
         H           -2.191071102474     2.032536245501    -0.014238294975     1.007825032230
         H           -3.819866102474    -1.313507754499    -0.490488294975     1.007825032230
         H           -4.111835102474     0.433224245501    -0.471087294975     1.007825032230
         H           -3.935220102474    -0.452018754499     1.049040705025     1.007825032230

  Basis Set: AUG-CC-PVTZ
    Blend: AUG-CC-PVTZ
  Basis Set: (AUG-CC-PVTZ AUX)
    Blend: AUG-CC-PVTZ-JKFIT
	 Reference Energy          =    -417.7678020069404852 [Eh]
	 Singles Energy            =      -0.0000000000000000 [Eh]
	 Same-Spin Energy          =      -0.4584968845745280 [Eh]
	 Opposite-Spin Energy      =      -1.4505439032845766 [Eh]
	 Correlation Energy        =      -1.9090407878591047 [Eh]
	 Total Energy              =    -419.6768427947995974 [Eh]

	 ================> DF-SCS-MP2 Energies <==================
	-----------------------------------------------------------
	 SCS Same-Spin Scale       =       0.3333333333333333 [-]
	 SCS Opposite-Spin Scale   =       1.2000000000000000 [-]
	 SCS Same-Spin Energy      =      -0.1528322948581760 [Eh]
	 SCS Opposite-Spin Energy  =      -1.7406526839414920 [Eh]
	 SCS Correlation Energy    =      -1.8934849787996679 [Eh]
	 SCS Total Energy          =    -419.6612869857401620 [Eh]
	-----------------------------------------------------------

  Dipole Moment: [D]
     X:    -1.9160      Y:    -0.7195      Z:     0.0458     Total:     2.0472

*** Psi4 exiting successfully. Buy a developer a beer!
