                               Psi4 1.4a3.dev225

  ==> Input File <==

--------------------------------------------------------------------------
#psi4
#
memory 32 gb

molecule  {
0 1
  N        0.1723510    -0.9422650    -0.0110160
  N       -0.2210270     1.4224780    -0.0033780
  C        2.0395230     0.5887340     0.0077330
  C        2.9514110    -0.3582210    -0.7410450
  C        2.9437130    -0.3688660     0.7522200
  C        0.5840210     0.3414150    -0.0010850
  C       -2.0855860    -0.1066610    -0.0107410
  C       -1.1318784    -1.1428006    -0.0149592
  C       -1.5403890     1.1790090    -0.0074550
  C       -3.5664500    -0.3550010     0.0190800
  H        2.3036370     1.6413390     0.0163460
  H        3.8028480     0.0735720    -1.2571040
  H        2.4662660    -1.1861320    -1.2466910
  H        2.4535620    -1.2039700     1.2409480
  H        3.7897520     0.0554290     1.2831630
  H       -1.4774160    -2.1870700    -0.0286840
  H       -2.1879510     2.0569620    -0.0148810
  H       -3.8167460    -1.2890820    -0.4911310
  H       -4.1087150     0.4576500    -0.4717300
  H       -3.9321000    -0.4275930     1.0483980
units angstrom
no_reorient  #important for SAPT in psi4, default
symmetry c1  #important for SAPT in psi4, default
}

set PROPERTIES_ORIGIN ["COM"]
properties('MP2/aug-cc-pvtz', properties = ['dipole'])
--------------------------------------------------------------------------

    Molecular point group: c1
  Charge       = 0
  Multiplicity = 1
  Basis Set: AUG-CC-PVTZ
    Blend: AUG-CC-PVTZ
  Basis Set: (AUG-CC-PVTZ AUX)
    Blend: AUG-CC-PVTZ-JKFIT

    Orbital Energies [Eh]
    ---------------------

    Doubly Occupied:

       1A    -15.563625     2A    -15.563592     3A    -11.314298
       4A    -11.292228     5A    -11.288934     6A    -11.245853
       7A    -11.238214     8A    -11.231720     9A    -11.226290
      10A    -11.225609    11A     -1.304769    12A     -1.186382
      13A     -1.147736    14A     -1.086387    15A     -0.967641
      16A     -0.888972    17A     -0.875584    18A     -0.819090
      19A     -0.797326    20A     -0.716776    21A     -0.694448
      22A     -0.646314    23A     -0.613210    24A     -0.598459
      25A     -0.591451    26A     -0.581411    27A     -0.559571
      28A     -0.554547    29A     -0.523551    30A     -0.511532
      31A     -0.473090    32A     -0.434523    33A     -0.424643
      34A     -0.417259    35A     -0.401703    36A     -0.332692

  @DF-RHF Final Energy:  -417.77977151962017

   => Energetics <=

    Nuclear Repulsion Energy =            493.7655046538210968
    One-Electron Energy =               -1544.4116936909458673
    Two-Electron Energy =                 632.8664175175044875
    Total Energy =                       -417.7797715196202262
  Basis Set: (AUG-CC-PVTZ AUX)
    Blend: AUG-CC-PVTZ-RI
    Molecular point group: c1

    Geometry (in Angstrom), charge = 0, multiplicity = 1:

       Center              X                  Y                   Z               Mass
    ------------   -----------------  -----------------  -----------------  -----------------
         N            0.165352666445    -0.957413252400    -0.010439218998    14.003074004430
         N           -0.228025333555     1.407329747600    -0.002801218998    14.003074004430
         C            2.032524666445     0.573585747600     0.008309781002    12.000000000000
         C            2.944412666445    -0.373369252400    -0.740468218998    12.000000000000
         C            2.936714666445    -0.384014252400     0.752796781002    12.000000000000
         C            0.577022666445     0.326266747600    -0.000508218998    12.000000000000
         C           -2.092584333555    -0.121809252400    -0.010164218998    12.000000000000
         C           -1.138876733555    -1.157948852400    -0.014382418998    12.000000000000
         C           -1.547387333555     1.163860747600    -0.006878218998    12.000000000000
         C           -3.573448333555    -0.370149252400     0.019656781002    12.000000000000
         H            2.296638666445     1.626190747600     0.016922781002     1.007825032230
         H            3.795849666445     0.058423747600    -1.256527218998     1.007825032230
         H            2.459267666445    -1.201280252400    -1.246114218998     1.007825032230
         H            2.446563666445    -1.219118252400     1.241524781002     1.007825032230
         H            3.782753666445     0.040280747600     1.283739781002     1.007825032230
         H           -1.484414333555    -2.202218252400    -0.028107218998     1.007825032230
         H           -2.194949333555     2.041813747600    -0.014304218998     1.007825032230
         H           -3.823744333555    -1.304230252400    -0.490554218998     1.007825032230
         H           -4.115713333555     0.442501747600    -0.471153218998     1.007825032230
         H           -3.939098333555    -0.442741252400     1.048974781002     1.007825032230

  Basis Set: AUG-CC-PVTZ
    Blend: AUG-CC-PVTZ
  Basis Set: (AUG-CC-PVTZ AUX)
    Blend: AUG-CC-PVTZ-JKFIT
	 Reference Energy          =    -417.7797715196201693 [Eh]
	 Singles Energy            =      -0.0000000000000000 [Eh]
	 Same-Spin Energy          =      -0.4575548722136279 [Eh]
	 Opposite-Spin Energy      =      -1.4471231025509104 [Eh]
	 Correlation Energy        =      -1.9046779747645384 [Eh]
	 Total Energy              =    -419.6844494943846939 [Eh]

	 ================> DF-SCS-MP2 Energies <==================
	-----------------------------------------------------------
	 SCS Same-Spin Scale       =       0.3333333333333333 [-]
	 SCS Opposite-Spin Scale   =       1.2000000000000000 [-]
	 SCS Same-Spin Energy      =      -0.1525182907378760 [Eh]
	 SCS Opposite-Spin Energy  =      -1.7365477230610924 [Eh]
	 SCS Correlation Energy    =      -1.8890660137989683 [Eh]
	 SCS Total Energy          =    -419.6688375334191505 [Eh]
	-----------------------------------------------------------

  Dipole Moment: [D]
     X:    -2.0202      Y:    -0.5784      Z:     0.0468     Total:     2.1019

*** Psi4 exiting successfully. Buy a developer a beer!
