                               Psi4 1.4a3.dev225

  ==> Input File <==

--------------------------------------------------------------------------
#psi4
#
memory 32 gb

molecule  {
0 1
  N        0.1723510    -0.9422650    -0.0110160
  N       -0.2210270     1.4224780    -0.0033780
  C        2.0395230     0.5887340     0.0077330
  C        2.9514110    -0.3582210    -0.7410450
  C        2.9437130    -0.3688660     0.7522200
  C        0.5840210     0.3414150    -0.0010850
  C       -2.0855860    -0.1066610    -0.0107410
  C       -1.1516460    -1.1458400    -0.0150190
  C       -1.5403890     1.1790090    -0.0074550
  C       -3.5664500    -0.3550010     0.0190800
  H        2.3036370     1.6413390     0.0163460
  H        3.8028480     0.0735720    -1.2571040
  H        2.4662660    -1.1861320    -1.2466910
  H        2.4535620    -1.2039700     1.2409480
  H        3.7897520     0.0554290     1.2831630
  H       -1.4774160    -2.1870700    -0.0286840
  H       -2.1879510     2.0569620    -0.0148810
  H       -3.8167460    -1.2890820    -0.4911310
  H       -4.1087150     0.4576500    -0.4717300
  H       -3.9989010    -0.4408549     1.2364452
units angstrom
no_reorient  #important for SAPT in psi4, default
symmetry c1  #important for SAPT in psi4, default
}

set PROPERTIES_ORIGIN ["COM"]
properties('MP2/aug-cc-pvtz', properties = ['dipole'])
--------------------------------------------------------------------------

    Molecular point group: c1
  Charge       = 0
  Multiplicity = 1
  Basis Set: AUG-CC-PVTZ
    Blend: AUG-CC-PVTZ
  Basis Set: (AUG-CC-PVTZ AUX)
    Blend: AUG-CC-PVTZ-JKFIT

    Orbital Energies [Eh]
    ---------------------

    Doubly Occupied:

       1A    -15.565088     2A    -15.565050     3A    -11.314922
       4A    -11.293360     5A    -11.291883     6A    -11.260555
       7A    -11.247396     8A    -11.232131     9A    -11.226590
      10A    -11.225907    11A     -1.302926    12A     -1.183739
      13A     -1.147931    14A     -1.087240    15A     -0.960296
      16A     -0.892225    17A     -0.870461    18A     -0.819335
      19A     -0.797099    20A     -0.716909    21A     -0.695528
      22A     -0.646551    23A     -0.614086    24A     -0.596269
      25A     -0.584044    26A     -0.581381    27A     -0.558204
      28A     -0.533985    29A     -0.524329    30A     -0.510854
      31A     -0.472678    32A     -0.433254    33A     -0.425024
      34A     -0.415390    35A     -0.403829    36A     -0.333462

  @DF-RHF Final Energy:  -417.76000780496997

   => Energetics <=

    Nuclear Repulsion Energy =            492.7644815382583943
    One-Electron Energy =               -1542.3891635475233670
    Two-Electron Energy =                 631.8646742042949427
    Total Energy =                       -417.7600078049699732
  Basis Set: (AUG-CC-PVTZ AUX)
    Blend: AUG-CC-PVTZ-RI
    Molecular point group: c1

    Geometry (in Angstrom), charge = 0, multiplicity = 1:

       Center              X                  Y                   Z               Mass
    ------------   -----------------  -----------------  -----------------  -----------------
         N            0.167623884602    -0.957041557591    -0.011847295387    14.003074004430
         N           -0.225754115398     1.407701442409    -0.004209295387    14.003074004430
         C            2.034795884602     0.573957442409     0.006901704613    12.000000000000
         C            2.946683884602    -0.372997557591    -0.741876295387    12.000000000000
         C            2.938985884602    -0.383642557591     0.751388704613    12.000000000000
         C            0.579293884602     0.326638442409    -0.001916295387    12.000000000000
         C           -2.090313115398    -0.121437557591    -0.011572295387    12.000000000000
         C           -1.156373115398    -1.160616557591    -0.015850295387    12.000000000000
         C           -1.545116115398     1.164232442409    -0.008286295387    12.000000000000
         C           -3.571177115398    -0.369777557591     0.018248704613    12.000000000000
         H            2.298909884602     1.626562442409     0.015514704613     1.007825032230
         H            3.798120884602     0.058795442409    -1.257935295387     1.007825032230
         H            2.461538884602    -1.200908557591    -1.247522295387     1.007825032230
         H            2.448834884602    -1.218746557591     1.240116704613     1.007825032230
         H            3.785024884602     0.040652442409     1.282331704613     1.007825032230
         H           -1.482143115398    -2.201846557591    -0.029515295387     1.007825032230
         H           -2.192678115398     2.042185442409    -0.015712295387     1.007825032230
         H           -3.821473115398    -1.303858557591    -0.491962295387     1.007825032230
         H           -4.113442115398     0.442873442409    -0.472561295387     1.007825032230
         H           -4.003628115398    -0.455631457591     1.235613904613     1.007825032230

  Basis Set: AUG-CC-PVTZ
    Blend: AUG-CC-PVTZ
  Basis Set: (AUG-CC-PVTZ AUX)
    Blend: AUG-CC-PVTZ-JKFIT
	 Reference Energy          =    -417.7600078049699732 [Eh]
	 Singles Energy            =      -0.0000000000000000 [Eh]
	 Same-Spin Energy          =      -0.4575858437707332 [Eh]
	 Opposite-Spin Energy      =      -1.4488362368797509 [Eh]
	 Correlation Energy        =      -1.9064220806504841 [Eh]
	 Total Energy              =    -419.6664298856204596 [Eh]

	 ================> DF-SCS-MP2 Energies <==================
	-----------------------------------------------------------
	 SCS Same-Spin Scale       =       0.3333333333333333 [-]
	 SCS Opposite-Spin Scale   =       1.2000000000000000 [-]
	 SCS Same-Spin Energy      =      -0.1525286145902444 [Eh]
	 SCS Opposite-Spin Energy  =      -1.7386034842557010 [Eh]
	 SCS Correlation Energy    =      -1.8911320988459455 [Eh]
	 SCS Total Energy          =    -419.6511399038159311 [Eh]
	-----------------------------------------------------------

  Dipole Moment: [D]
     X:    -1.9322      Y:    -0.5560      Z:    -0.0329     Total:     2.0109

*** Psi4 exiting successfully. Buy a developer a beer!
