                               Psi4 1.4a3.dev225

  ==> Input File <==

--------------------------------------------------------------------------
#psi4
#
memory 32 gb

molecule  {
0 1
  N        0.1723510    -0.9422650    -0.0110160
  N       -0.2210270     1.4224780    -0.0033780
  C        2.0395230     0.5887340     0.0077330
  C        2.9212743    -0.3269254    -0.7162989
  C        2.9437130    -0.3688660     0.7522200
  C        0.5840210     0.3414150    -0.0010850
  C       -2.0855860    -0.1066610    -0.0107410
  C       -1.1516460    -1.1458400    -0.0150190
  C       -1.5403890     1.1790090    -0.0074550
  C       -3.5664500    -0.3550010     0.0190800
  H        2.3036370     1.6413390     0.0163460
  H        3.8028480     0.0735720    -1.2571040
  H        2.4662660    -1.1861320    -1.2466910
  H        2.4535620    -1.2039700     1.2409480
  H        3.7897520     0.0554290     1.2831630
  H       -1.4774160    -2.1870700    -0.0286840
  H       -2.1879510     2.0569620    -0.0148810
  H       -3.8167460    -1.2890820    -0.4911310
  H       -4.1087150     0.4576500    -0.4717300
  H       -3.9321000    -0.4275930     1.0483980
units angstrom
no_reorient  #important for SAPT in psi4, default
symmetry c1  #important for SAPT in psi4, default
}

set PROPERTIES_ORIGIN ["COM"]
properties('MP2/aug-cc-pvtz', properties = ['dipole'])
--------------------------------------------------------------------------

    Molecular point group: c1
  Charge       = 0
  Multiplicity = 1
  Basis Set: AUG-CC-PVTZ
    Blend: AUG-CC-PVTZ
  Basis Set: (AUG-CC-PVTZ AUX)
    Blend: AUG-CC-PVTZ-JKFIT

    Orbital Energies [Eh]
    ---------------------

    Doubly Occupied:

       1A    -15.564362     2A    -15.564295     3A    -11.313615
       4A    -11.292015     5A    -11.290494     6A    -11.245915
       7A    -11.238307     8A    -11.229244     9A    -11.224966
      10A    -11.222373    11A     -1.302179    12A     -1.183124
      13A     -1.158252    14A     -1.089649    15A     -0.967573
      16A     -0.891594    17A     -0.874838    18A     -0.815076
      19A     -0.795970    20A     -0.716733    21A     -0.696247
      22A     -0.647118    23A     -0.616805    24A     -0.598516
      25A     -0.591568    26A     -0.582827    27A     -0.558453
      28A     -0.555211    29A     -0.521754    30A     -0.499644
      31A     -0.472457    32A     -0.442987    33A     -0.423617
      34A     -0.414285    35A     -0.402925    36A     -0.335821

  @DF-RHF Final Energy:  -417.77690445174426

   => Energetics <=

    Nuclear Repulsion Energy =            494.4998638703402776
    One-Electron Energy =               -1545.8719092248768447
    Two-Electron Energy =                 633.5951409027923091
    Total Energy =                       -417.7769044517442580
  Basis Set: (AUG-CC-PVTZ AUX)
    Blend: AUG-CC-PVTZ-RI
    Molecular point group: c1

    Geometry (in Angstrom), charge = 0, multiplicity = 1:

       Center              X                  Y                   Z               Mass
    ------------   -----------------  -----------------  -----------------  -----------------
         N            0.169818895234    -0.959942065626    -0.012648540915    14.003074004430
         N           -0.223559104766     1.404800934374    -0.005010540915    14.003074004430
         C            2.036990895234     0.571056934374     0.006100459085    12.000000000000
         C            2.918742195234    -0.344602465626    -0.717931440915    12.000000000000
         C            2.941180895234    -0.386543065626     0.750587459085    12.000000000000
         C            0.581488895234     0.323737934374    -0.002717540915    12.000000000000
         C           -2.088118104766    -0.124338065626    -0.012373540915    12.000000000000
         C           -1.154178104766    -1.163517065626    -0.016651540915    12.000000000000
         C           -1.542921104766     1.161331934374    -0.009087540915    12.000000000000
         C           -3.568982104766    -0.372678065626     0.017447459085    12.000000000000
         H            2.301104895234     1.623661934374     0.014713459085     1.007825032230
         H            3.800315895234     0.055894934374    -1.258736540915     1.007825032230
         H            2.463733895234    -1.203809065626    -1.248323540915     1.007825032230
         H            2.451029895234    -1.221647065626     1.239315459085     1.007825032230
         H            3.787219895234     0.037751934374     1.281530459085     1.007825032230
         H           -1.479948104766    -2.204747065626    -0.030316540915     1.007825032230
         H           -2.190483104766     2.039284934374    -0.016513540915     1.007825032230
         H           -3.819278104766    -1.306759065626    -0.492763540915     1.007825032230
         H           -4.111247104766     0.439972934374    -0.473362540915     1.007825032230
         H           -3.934632104766    -0.445270065626     1.046765459085     1.007825032230

  Basis Set: AUG-CC-PVTZ
    Blend: AUG-CC-PVTZ
  Basis Set: (AUG-CC-PVTZ AUX)
    Blend: AUG-CC-PVTZ-JKFIT
	 Reference Energy          =    -417.7769044517442580 [Eh]
	 Singles Energy            =      -0.0000000000000000 [Eh]
	 Same-Spin Energy          =      -0.4579547963445382 [Eh]
	 Opposite-Spin Energy      =      -1.4474571907534701 [Eh]
	 Correlation Energy        =      -1.9054119870980084 [Eh]
	 Total Energy              =    -419.6823164388422924 [Eh]

	 ================> DF-SCS-MP2 Energies <==================
	-----------------------------------------------------------
	 SCS Same-Spin Scale       =       0.3333333333333333 [-]
	 SCS Opposite-Spin Scale   =       1.2000000000000000 [-]
	 SCS Same-Spin Energy      =      -0.1526515987815127 [Eh]
	 SCS Opposite-Spin Energy  =      -1.7369486289041640 [Eh]
	 SCS Correlation Energy    =      -1.8896002276856767 [Eh]
	 SCS Total Energy          =    -419.6665046794299201 [Eh]
	-----------------------------------------------------------

  Dipole Moment: [D]
     X:    -2.0666      Y:    -0.5810      Z:     0.0228     Total:     2.1469

*** Psi4 exiting successfully. Buy a developer a beer!
