                               Psi4 1.4a3.dev225

  ==> Input File <==

--------------------------------------------------------------------------
#psi4
#
memory 32 gb

molecule  {
0 1
  N        0.1723510    -0.9422650    -0.0110160
  N       -0.2210270     1.4224780    -0.0033780
  C        2.0395230     0.5887340     0.0077330
  C        2.9514110    -0.3582210    -0.7410450
  C        3.0034790    -0.4321623     0.8014298
  C        0.5840210     0.3414150    -0.0010850
  C       -2.0855860    -0.1066610    -0.0107410
  C       -1.1516460    -1.1458400    -0.0150190
  C       -1.5403890     1.1790090    -0.0074550
  C       -3.5664500    -0.3550010     0.0190800
  H        2.3036370     1.6413390     0.0163460
  H        3.8028480     0.0735720    -1.2571040
  H        2.4662660    -1.1861320    -1.2466910
  H        2.4535620    -1.2039700     1.2409480
  H        3.7897520     0.0554290     1.2831630
  H       -1.4774160    -2.1870700    -0.0286840
  H       -2.1879510     2.0569620    -0.0148810
  H       -3.8167460    -1.2890820    -0.4911310
  H       -4.1087150     0.4576500    -0.4717300
  H       -3.9321000    -0.4275930     1.0483980
units angstrom
no_reorient  #important for SAPT in psi4, default
symmetry c1  #important for SAPT in psi4, default
}

set PROPERTIES_ORIGIN ["COM"]
properties('MP2/aug-cc-pvtz', properties = ['dipole'])
--------------------------------------------------------------------------

    Molecular point group: c1
  Charge       = 0
  Multiplicity = 1
  Basis Set: AUG-CC-PVTZ
    Blend: AUG-CC-PVTZ
  Basis Set: (AUG-CC-PVTZ AUX)
    Blend: AUG-CC-PVTZ-JKFIT

    Orbital Energies [Eh]
    ---------------------

    Doubly Occupied:

       1A    -15.563688     2A    -15.563664     3A    -11.313654
       4A    -11.291708     5A    -11.290270     6A    -11.245210
       7A    -11.237938     8A    -11.235481     9A    -11.232240
      10A    -11.227765    11A     -1.301173    12A     -1.182069
      13A     -1.129330    14A     -1.084013    15A     -0.966388
      16A     -0.891163    17A     -0.875353    18A     -0.828226
      19A     -0.795506    20A     -0.714771    21A     -0.692403
      22A     -0.646450    23A     -0.605455    24A     -0.598225
      25A     -0.591607    26A     -0.581676    27A     -0.559465
      28A     -0.554839    29A     -0.538633    30A     -0.519262
      31A     -0.471206    32A     -0.435407    33A     -0.414524
      34A     -0.408148    35A     -0.401915    36A     -0.329994

  @DF-RHF Final Energy:  -417.77098477623082

   => Energetics <=

    Nuclear Repulsion Energy =            491.6980511647656158
    One-Electron Energy =               -1540.3004315860077895
    Two-Electron Energy =                 630.8313956450114119
    Total Energy =                       -417.7709847762308755
  Basis Set: (AUG-CC-PVTZ AUX)
    Blend: AUG-CC-PVTZ-RI
    Molecular point group: c1

    Geometry (in Angstrom), charge = 0, multiplicity = 1:

       Center              X                  Y                   Z               Mass
    ------------   -----------------  -----------------  -----------------  -----------------
         N            0.161772974804    -0.951476481158    -0.014837941052    14.003074004430
         N           -0.231605025196     1.413266518842    -0.007199941052    14.003074004430
         C            2.028944974804     0.579522518842     0.003911058948    12.000000000000
         C            2.940832974804    -0.367432481158    -0.744866941052    12.000000000000
         C            2.992900974804    -0.441373781158     0.797607858948    12.000000000000
         C            0.573442974804     0.332203518842    -0.004906941052    12.000000000000
         C           -2.096164025196    -0.115872481158    -0.014562941052    12.000000000000
         C           -1.162224025196    -1.155051481158    -0.018840941052    12.000000000000
         C           -1.550967025196     1.169797518842    -0.011276941052    12.000000000000
         C           -3.577028025196    -0.364212481158     0.015258058948    12.000000000000
         H            2.293058974804     1.632127518842     0.012524058948     1.007825032230
         H            3.792269974804     0.064360518842    -1.260925941052     1.007825032230
         H            2.455687974804    -1.195343481158    -1.250512941052     1.007825032230
         H            2.442983974804    -1.213181481158     1.237126058948     1.007825032230
         H            3.779173974804     0.046217518842     1.279341058948     1.007825032230
         H           -1.487994025196    -2.196281481158    -0.032505941052     1.007825032230
         H           -2.198529025196     2.047750518842    -0.018702941052     1.007825032230
         H           -3.827324025196    -1.298293481158    -0.494952941052     1.007825032230
         H           -4.119293025196     0.448438518842    -0.475551941052     1.007825032230
         H           -3.942678025196    -0.436804481158     1.044576058948     1.007825032230

  Basis Set: AUG-CC-PVTZ
    Blend: AUG-CC-PVTZ
  Basis Set: (AUG-CC-PVTZ AUX)
    Blend: AUG-CC-PVTZ-JKFIT
	 Reference Energy          =    -417.7709847762308186 [Eh]
	 Singles Energy            =      -0.0000000000000000 [Eh]
	 Same-Spin Energy          =      -0.4576467138354573 [Eh]
	 Opposite-Spin Energy      =      -1.4486019997632544 [Eh]
	 Correlation Energy        =      -1.9062487135987118 [Eh]
	 Total Energy              =    -419.6772334898295185 [Eh]

	 ================> DF-SCS-MP2 Energies <==================
	-----------------------------------------------------------
	 SCS Same-Spin Scale       =       0.3333333333333333 [-]
	 SCS Opposite-Spin Scale   =       1.2000000000000000 [-]
	 SCS Same-Spin Energy      =      -0.1525489046118191 [Eh]
	 SCS Opposite-Spin Energy  =      -1.7383223997159052 [Eh]
	 SCS Correlation Energy    =      -1.8908713043277243 [Eh]
	 SCS Total Energy          =    -419.6618560805585503 [Eh]
	-----------------------------------------------------------

  Dipole Moment: [D]
     X:    -2.0395      Y:    -0.5419      Z:    -0.0129     Total:     2.1103

*** Psi4 exiting successfully. Buy a developer a beer!
