                               Psi4 1.4a3.dev225

  ==> Input File <==

--------------------------------------------------------------------------
#psi4
#
memory 32 gb

molecule  {
0 1
  N        0.1723510    -0.9422650    -0.0110160
  N       -0.2210270     1.4224780    -0.0033780
  C        2.0395230     0.5887340     0.0077330
  C        2.9514110    -0.3582210    -0.7410450
  C        2.9437130    -0.3688660     0.7522200
  C        0.7811913     0.3749182     0.0001095
  C       -2.0855860    -0.1066610    -0.0107410
  C       -1.1516460    -1.1458400    -0.0150190
  C       -1.5403890     1.1790090    -0.0074550
  C       -3.5664500    -0.3550010     0.0190800
  H        2.3036370     1.6413390     0.0163460
  H        3.8028480     0.0735720    -1.2571040
  H        2.4662660    -1.1861320    -1.2466910
  H        2.4535620    -1.2039700     1.2409480
  H        3.7897520     0.0554290     1.2831630
  H       -1.4774160    -2.1870700    -0.0286840
  H       -2.1879510     2.0569620    -0.0148810
  H       -3.8167460    -1.2890820    -0.4911310
  H       -4.1087150     0.4576500    -0.4717300
  H       -3.9321000    -0.4275930     1.0483980
units angstrom
no_reorient  #important for SAPT in psi4, default
symmetry c1  #important for SAPT in psi4, default
}

set PROPERTIES_ORIGIN ["COM"]
properties('MP2/aug-cc-pvtz', properties = ['dipole'])
--------------------------------------------------------------------------

    Molecular point group: c1
  Charge       = 0
  Multiplicity = 1
  Basis Set: AUG-CC-PVTZ
    Blend: AUG-CC-PVTZ
  Basis Set: (AUG-CC-PVTZ AUX)
    Blend: AUG-CC-PVTZ-JKFIT

    Orbital Energies [Eh]
    ---------------------

    Doubly Occupied:

       1A    -15.558208     2A    -15.557670     3A    -11.327056
       4A    -11.281387     5A    -11.279597     6A    -11.247900
       7A    -11.247151     8A    -11.234822     9A    -11.232994
      10A    -11.229837    11A     -1.266202    12A     -1.181383
      13A     -1.145137    14A     -1.075427    15A     -0.986047
      16A     -0.900910    17A     -0.862394    18A     -0.838514
      19A     -0.792748    20A     -0.725471    21A     -0.689811
      22A     -0.643648    23A     -0.629380    24A     -0.586777
      25A     -0.583595    26A     -0.572589    27A     -0.553273
      28A     -0.551738    29A     -0.543562    30A     -0.524104
      31A     -0.459658    32A     -0.458101    33A     -0.444297
      34A     -0.397777    35A     -0.364158    36A     -0.307478

  @DF-RHF Final Energy:  -417.70620914910882

   => Energetics <=

    Nuclear Repulsion Energy =            492.5713718272460255
    One-Electron Energy =               -1541.9935557739131582
    Two-Electron Energy =                 631.7159747975584878
    Total Energy =                       -417.7062091491087585
  Basis Set: (AUG-CC-PVTZ AUX)
    Blend: AUG-CC-PVTZ-RI
    Molecular point group: c1

    Geometry (in Angstrom), charge = 0, multiplicity = 1:

       Center              X                  Y                   Z               Mass
    ------------   -----------------  -----------------  -----------------  -----------------
         N            0.149475857312    -0.960139636711    -0.010540769963    14.003074004430
         N           -0.243902142688     1.404603363289    -0.002902769963    14.003074004430
         C            2.016647857312     0.570859363289     0.008208230037    12.000000000000
         C            2.928535857312    -0.376095636711    -0.740569769963    12.000000000000
         C            2.920837857312    -0.386740636711     0.752695230037    12.000000000000
         C            0.758316157312     0.357043563289     0.000584730037    12.000000000000
         C           -2.108461142688    -0.124535636711    -0.010265769963    12.000000000000
         C           -1.174521142688    -1.163714636711    -0.014543769963    12.000000000000
         C           -1.563264142688     1.161134363289    -0.006979769963    12.000000000000
         C           -3.589325142688    -0.372875636711     0.019555230037    12.000000000000
         H            2.280761857312     1.623464363289     0.016821230037     1.007825032230
         H            3.779972857312     0.055697363289    -1.256628769963     1.007825032230
         H            2.443390857312    -1.204006636711    -1.246215769963     1.007825032230
         H            2.430686857312    -1.221844636711     1.241423230037     1.007825032230
         H            3.766876857312     0.037554363289     1.283638230037     1.007825032230
         H           -1.500291142688    -2.204944636711    -0.028208769963     1.007825032230
         H           -2.210826142688     2.039087363289    -0.014405769963     1.007825032230
         H           -3.839621142688    -1.306956636711    -0.490655769963     1.007825032230
         H           -4.131590142688     0.439775363289    -0.471254769963     1.007825032230
         H           -3.954975142688    -0.445467636711     1.048873230037     1.007825032230

  Basis Set: AUG-CC-PVTZ
    Blend: AUG-CC-PVTZ
  Basis Set: (AUG-CC-PVTZ AUX)
    Blend: AUG-CC-PVTZ-JKFIT
	 Reference Energy          =    -417.7062091491088154 [Eh]
	 Singles Energy            =      -0.0000000000000000 [Eh]
	 Same-Spin Energy          =      -0.4636821005016278 [Eh]
	 Opposite-Spin Energy      =      -1.4576419288243074 [Eh]
	 Correlation Energy        =      -1.9213240293259353 [Eh]
	 Total Energy              =    -419.6275331784347600 [Eh]

	 ================> DF-SCS-MP2 Energies <==================
	-----------------------------------------------------------
	 SCS Same-Spin Scale       =       0.3333333333333333 [-]
	 SCS Opposite-Spin Scale   =       1.2000000000000000 [-]
	 SCS Same-Spin Energy      =      -0.1545607001672093 [Eh]
	 SCS Opposite-Spin Energy  =      -1.7491703145891688 [Eh]
	 SCS Correlation Energy    =      -1.9037310147563782 [Eh]
	 SCS Total Energy          =    -419.6099401638651898 [Eh]
	-----------------------------------------------------------

  Dipole Moment: [D]
     X:    -0.5501      Y:    -0.5870      Z:     0.0546     Total:     0.8063

*** Psi4 exiting successfully. Buy a developer a beer!
