                               Psi4 1.4a3.dev225

  ==> Input File <==

--------------------------------------------------------------------------
#psi4
#
memory 32 gb

molecule  {
0 1
  N        0.1723510    -0.9422650    -0.0110160
  N       -0.2210270     1.4224780    -0.0033780
  C        2.0395230     0.5887340     0.0077330
  C        2.9514110    -0.3582210    -0.7410450
  C        2.9437130    -0.3688660     0.7522200
  C        0.5840210     0.3414150    -0.0010850
  C       -2.0855860    -0.1066610    -0.0107410
  C       -1.1516460    -1.1458400    -0.0150190
  C       -1.5403890     1.1790090    -0.0074550
  C       -3.5664500    -0.3550010     0.0190800
  H        2.3036370     1.6413390     0.0163460
  H        3.8028480     0.0735720    -1.2571040
  H        2.4662660    -1.1861320    -1.2466910
  H        2.4535620    -1.2039700     1.2409480
  H        3.7507720     0.0358803     1.2587006
  H       -1.4774160    -2.1870700    -0.0286840
  H       -2.1879510     2.0569620    -0.0148810
  H       -3.8167460    -1.2890820    -0.4911310
  H       -4.1087150     0.4576500    -0.4717300
  H       -3.9321000    -0.4275930     1.0483980
units angstrom
no_reorient  #important for SAPT in psi4, default
symmetry c1  #important for SAPT in psi4, default
}

set PROPERTIES_ORIGIN ["COM"]
properties('MP2/aug-cc-pvtz', properties = ['dipole'])
--------------------------------------------------------------------------

    Molecular point group: c1
  Charge       = 0
  Multiplicity = 1
  Basis Set: AUG-CC-PVTZ
    Blend: AUG-CC-PVTZ
  Basis Set: (AUG-CC-PVTZ AUX)
    Blend: AUG-CC-PVTZ-JKFIT

    Orbital Energies [Eh]
    ---------------------

    Doubly Occupied:

       1A    -15.563866     2A    -15.563786     3A    -11.313357
       4A    -11.291702     5A    -11.290216     6A    -11.245439
       7A    -11.238031     8A    -11.231035     9A    -11.225214
      10A    -11.219636    11A     -1.301537    12A     -1.182391
      13A     -1.147559    14A     -1.088157    15A     -0.967215
      16A     -0.891207    17A     -0.875155    18A     -0.823636
      19A     -0.796766    20A     -0.716101    21A     -0.694698
      22A     -0.650182    23A     -0.613593    24A     -0.598291
      25A     -0.591416    26A     -0.582529    27A     -0.558719
      28A     -0.554928    29A     -0.524496    30A     -0.514220
      31A     -0.471728    32A     -0.434213    33A     -0.424096
      34A     -0.414121    35A     -0.402573    36A     -0.334247

  @DF-RHF Final Energy:  -417.77862547948621

   => Energetics <=

    Nuclear Repulsion Energy =            493.7967531547282647
    One-Electron Energy =               -1544.4786439805461669
    Two-Electron Energy =                 632.9032653463316365
    Total Energy =                       -417.7786254794862089
  Basis Set: (AUG-CC-PVTZ AUX)
    Blend: AUG-CC-PVTZ-RI
    Molecular point group: c1

    Geometry (in Angstrom), charge = 0, multiplicity = 1:

       Center              X                  Y                   Z               Mass
    ------------   -----------------  -----------------  -----------------  -----------------
         N            0.167414772277    -0.956994303813    -0.010249999227    14.003074004430
         N           -0.225963227723     1.407748696187    -0.002611999227    14.003074004430
         C            2.034586772277     0.574004696187     0.008499000773    12.000000000000
         C            2.946474772277    -0.372950303813    -0.740278999227    12.000000000000
         C            2.938776772277    -0.383595303813     0.752986000773    12.000000000000
         C            0.579084772277     0.326685696187    -0.000318999227    12.000000000000
         C           -2.090522227723    -0.121390303813    -0.009974999227    12.000000000000
         C           -1.156582227723    -1.160569303813    -0.014252999227    12.000000000000
         C           -1.545325227723     1.164279696187    -0.006688999227    12.000000000000
         C           -3.571386227723    -0.369730303813     0.019846000773    12.000000000000
         H            2.298700772277     1.626609696187     0.017112000773     1.007825032230
         H            3.797911772277     0.058842696187    -1.256337999227     1.007825032230
         H            2.461329772277    -1.200861303813    -1.245924999227     1.007825032230
         H            2.448625772277    -1.218699303813     1.241714000773     1.007825032230
         H            3.745835772277     0.021150996187     1.259466600773     1.007825032230
         H           -1.482352227723    -2.201799303813    -0.027917999227     1.007825032230
         H           -2.192887227723     2.042232696187    -0.014114999227     1.007825032230
         H           -3.821682227723    -1.303811303813    -0.490364999227     1.007825032230
         H           -4.113651227723     0.442920696187    -0.470963999227     1.007825032230
         H           -3.937036227723    -0.442322303813     1.049164000773     1.007825032230

  Basis Set: AUG-CC-PVTZ
    Blend: AUG-CC-PVTZ
  Basis Set: (AUG-CC-PVTZ AUX)
    Blend: AUG-CC-PVTZ-JKFIT
	 Reference Energy          =    -417.7786254794862089 [Eh]
	 Singles Energy            =      -0.0000000000000000 [Eh]
	 Same-Spin Energy          =      -0.4576976527898473 [Eh]
	 Opposite-Spin Energy      =      -1.4472890417284161 [Eh]
	 Correlation Energy        =      -1.9049866945182634 [Eh]
	 Total Energy              =    -419.6836121740044518 [Eh]

	 ================> DF-SCS-MP2 Energies <==================
	-----------------------------------------------------------
	 SCS Same-Spin Scale       =       0.3333333333333333 [-]
	 SCS Opposite-Spin Scale   =       1.2000000000000000 [-]
	 SCS Same-Spin Energy      =      -0.1525658842632824 [Eh]
	 SCS Opposite-Spin Energy  =      -1.7367468500740992 [Eh]
	 SCS Correlation Energy    =      -1.8893127343373817 [Eh]
	 SCS Total Energy          =    -419.6679382138236178 [Eh]
	-----------------------------------------------------------

  Dipole Moment: [D]
     X:    -2.0287      Y:    -0.5733      Z:     0.0601     Total:     2.1090

*** Psi4 exiting successfully. Buy a developer a beer!
