                               Psi4 1.4a3.dev225

  ==> Input File <==

--------------------------------------------------------------------------
#psi4
#
memory 32 gb

molecule  {
0 1
  N        0.1723510    -0.9422650    -0.0110160
  N       -0.2210270     1.4224780    -0.0033780
  C        2.0395230     0.5887340     0.0077330
  C        2.9514110    -0.3582210    -0.7410450
  C        2.9437130    -0.3688660     0.7522200
  C        0.5840210     0.3414150    -0.0010850
  C       -2.0855860    -0.1066610    -0.0107410
  C       -1.1516460    -1.1458400    -0.0150190
  C       -1.5403890     1.1790090    -0.0074550
  C       -3.5664500    -0.3550010     0.0190800
  H        2.3036370     1.6413390     0.0163460
  H        3.8028480     0.0735720    -1.2571040
  H        2.4662660    -1.1861320    -1.2466910
  H        2.4535620    -1.2039700     1.2409480
  H        3.7897520     0.0554290     1.2831630
  H       -1.4774160    -2.1870700    -0.0286840
  H       -2.1879510     2.0569620    -0.0148810
  H       -3.8167460    -1.2890820    -0.4911310
  H       -4.1186346     0.4725158    -0.4807083
  H       -3.9321000    -0.4275930     1.0483980
units angstrom
no_reorient  #important for SAPT in psi4, default
symmetry c1  #important for SAPT in psi4, default
}

set PROPERTIES_ORIGIN ["COM"]
properties('MP2/aug-cc-pvtz', properties = ['dipole'])
--------------------------------------------------------------------------

    Molecular point group: c1
  Charge       = 0
  Multiplicity = 1
  Basis Set: AUG-CC-PVTZ
    Blend: AUG-CC-PVTZ
  Basis Set: (AUG-CC-PVTZ AUX)
    Blend: AUG-CC-PVTZ-JKFIT

    Orbital Energies [Eh]
    ---------------------

    Doubly Occupied:

       1A    -15.564111     2A    -15.564083     3A    -11.313616
       4A    -11.291999     5A    -11.290428     6A    -11.245789
       7A    -11.240535     8A    -11.231374     9A    -11.225904
      10A    -11.225223    11A     -1.301801    12A     -1.182641
      13A     -1.147198    14A     -1.087896    15A     -0.966092
      16A     -0.891293    17A     -0.874221    18A     -0.818692
      19A     -0.796441    20A     -0.715722    21A     -0.694839
      22A     -0.645815    23A     -0.613687    24A     -0.597793
      25A     -0.591514    26A     -0.582329    27A     -0.558295
      28A     -0.552223    29A     -0.523541    30A     -0.511130
      31A     -0.471875    32A     -0.434185    33A     -0.424316
      34A     -0.414348    35A     -0.402809    36A     -0.334413

  @DF-RHF Final Energy:  -417.77903707024126

   => Energetics <=

    Nuclear Repulsion Energy =            493.4570952258468424
    One-Electron Energy =               -1543.8159268957490440
    Two-Electron Energy =                 632.5797945996608860
    Total Energy =                       -417.7790370702413156
  Basis Set: (AUG-CC-PVTZ AUX)
    Blend: AUG-CC-PVTZ-RI
    Molecular point group: c1

    Geometry (in Angstrom), charge = 0, multiplicity = 1:

       Center              X                  Y                   Z               Mass
    ------------   -----------------  -----------------  -----------------  -----------------
         N            0.167196344191    -0.957252975179    -0.010366383115    14.003074004430
         N           -0.226181655809     1.407490024821    -0.002728383115    14.003074004430
         C            2.034368344191     0.573746024821     0.008382616885    12.000000000000
         C            2.946256344191    -0.373208975179    -0.740395383115    12.000000000000
         C            2.938558344191    -0.383853975179     0.752869616885    12.000000000000
         C            0.578866344191     0.326427024821    -0.000435383115    12.000000000000
         C           -2.090740655809    -0.121648975179    -0.010091383115    12.000000000000
         C           -1.156800655809    -1.160827975179    -0.014369383115    12.000000000000
         C           -1.545543655809     1.164021024821    -0.006805383115    12.000000000000
         C           -3.571604655809    -0.369988975179     0.019729616885    12.000000000000
         H            2.298482344191     1.626351024821     0.016995616885     1.007825032230
         H            3.797693344191     0.058584024821    -1.256454383115     1.007825032230
         H            2.461111344191    -1.201119975179    -1.246041383115     1.007825032230
         H            2.448407344191    -1.218957975179     1.241597616885     1.007825032230
         H            3.784597344191     0.040441024821     1.283812616885     1.007825032230
         H           -1.482570655809    -2.202057975179    -0.028034383115     1.007825032230
         H           -2.193105655809     2.041974024821    -0.014231383115     1.007825032230
         H           -3.821900655809    -1.304069975179    -0.490481383115     1.007825032230
         H           -4.123789255809     0.457527824821    -0.480058683115     1.007825032230
         H           -3.937254655809    -0.442580975179     1.049047616885     1.007825032230

  Basis Set: AUG-CC-PVTZ
    Blend: AUG-CC-PVTZ
  Basis Set: (AUG-CC-PVTZ AUX)
    Blend: AUG-CC-PVTZ-JKFIT
	 Reference Energy          =    -417.7790370702412588 [Eh]
	 Singles Energy            =      -0.0000000000000000 [Eh]
	 Same-Spin Energy          =      -0.4577096402884898 [Eh]
	 Opposite-Spin Energy      =      -1.4476591229216018 [Eh]
	 Correlation Energy        =      -1.9053687632100917 [Eh]
	 Total Energy              =    -419.6844058334513647 [Eh]

	 ================> DF-SCS-MP2 Energies <==================
	-----------------------------------------------------------
	 SCS Same-Spin Scale       =       0.3333333333333333 [-]
	 SCS Opposite-Spin Scale   =       1.2000000000000000 [-]
	 SCS Same-Spin Energy      =      -0.1525698800961633 [Eh]
	 SCS Opposite-Spin Energy  =      -1.7371909475059222 [Eh]
	 SCS Correlation Energy    =      -1.8897608276020854 [Eh]
	 SCS Total Energy          =    -419.6687978978433193 [Eh]
	-----------------------------------------------------------

  Dipole Moment: [D]
     X:    -2.0380      Y:    -0.5775      Z:     0.0492     Total:     2.1188

*** Psi4 exiting successfully. Buy a developer a beer!
