                               Psi4 1.4a3.dev225

  ==> Input File <==

--------------------------------------------------------------------------
#psi4
#
memory 32 gb

molecule  {
0 1
  N        0.1723510    -0.9422650    -0.0110160
  N       -0.2210270     1.4224780    -0.0033780
  C        2.0395230     0.5887340     0.0077330
  C        2.9514110    -0.3582210    -0.7410450
  C        2.9437130    -0.3688660     0.7522200
  C        0.5840210     0.3414150    -0.0010850
  C       -2.0855860    -0.1066610    -0.0107410
  C       -1.1516460    -1.1458400    -0.0150190
  C       -1.5403890     1.1790090    -0.0074550
  C       -3.5664500    -0.3550010     0.0190800
  H        2.3036370     1.6413390     0.0163460
  H        3.8028480     0.0735720    -1.2571040
  H        2.4662660    -1.1861320    -1.2466910
  H        2.4535620    -1.2039700     1.2409480
  H        3.7897520     0.0554290     1.2831630
  H       -1.4774160    -2.1870700    -0.0286840
  H       -2.1879510     2.0569620    -0.0148810
  H       -3.8167460    -1.2890820    -0.4911310
  H       -4.1087150     0.4576500    -0.4717300
  H       -3.9387801    -0.4289192     1.0672027
units angstrom
no_reorient  #important for SAPT in psi4, default
symmetry c1  #important for SAPT in psi4, default
}

set PROPERTIES_ORIGIN ["COM"]
properties('MP2/aug-cc-pvtz', properties = ['dipole'])
--------------------------------------------------------------------------

    Molecular point group: c1
  Charge       = 0
  Multiplicity = 1
  Basis Set: AUG-CC-PVTZ
    Blend: AUG-CC-PVTZ
  Basis Set: (AUG-CC-PVTZ AUX)
    Blend: AUG-CC-PVTZ-JKFIT

    Orbital Energies [Eh]
    ---------------------

    Doubly Occupied:

       1A    -15.564130     2A    -15.564086     3A    -11.313634
       4A    -11.291967     5A    -11.290476     6A    -11.245769
       7A    -11.240525     8A    -11.231384     9A    -11.225911
      10A    -11.225230    11A     -1.301812    12A     -1.182655
      13A     -1.147204    14A     -1.087904    15A     -0.966087
      16A     -0.891400    17A     -0.874146    18A     -0.818699
      19A     -0.796480    20A     -0.715891    21A     -0.694808
      22A     -0.645923    23A     -0.613522    24A     -0.596980
      25A     -0.590712    26A     -0.582581    27A     -0.556745
      28A     -0.555291    29A     -0.523549    30A     -0.511106
      31A     -0.471888    32A     -0.434087    33A     -0.424323
      34A     -0.414362    35A     -0.402839    36A     -0.334270

  @DF-RHF Final Energy:  -417.77906602041116

   => Energetics <=

    Nuclear Repulsion Energy =            493.4564430516083462
    One-Electron Energy =               -1543.8142702839045342
    Two-Electron Energy =                 632.5787612118849665
    Total Energy =                       -417.7790660204111646
  Basis Set: (AUG-CC-PVTZ AUX)
    Blend: AUG-CC-PVTZ-RI
    Molecular point group: c1

    Geometry (in Angstrom), charge = 0, multiplicity = 1:

       Center              X                  Y                   Z               Mass
    ------------   -----------------  -----------------  -----------------  -----------------
         N            0.167171994980    -0.957131270469    -0.010575209819    14.003074004430
         N           -0.226206005020     1.407611729531    -0.002937209819    14.003074004430
         C            2.034343994980     0.573867729531     0.008173790181    12.000000000000
         C            2.946231994980    -0.373087270469    -0.740604209819    12.000000000000
         C            2.938533994980    -0.383732270469     0.752660790181    12.000000000000
         C            0.578841994980     0.326548729531    -0.000644209819    12.000000000000
         C           -2.090765005020    -0.121527270469    -0.010300209819    12.000000000000
         C           -1.156825005020    -1.160706270469    -0.014578209819    12.000000000000
         C           -1.545568005020     1.164142729531    -0.007014209819    12.000000000000
         C           -3.571629005020    -0.369867270469     0.019520790181    12.000000000000
         H            2.298457994980     1.626472729531     0.016786790181     1.007825032230
         H            3.797668994980     0.058705729531    -1.256663209819     1.007825032230
         H            2.461086994980    -1.200998270469    -1.246250209819     1.007825032230
         H            2.448382994980    -1.218836270469     1.241388790181     1.007825032230
         H            3.784572994980     0.040562729531     1.283603790181     1.007825032230
         H           -1.482595005020    -2.201936270469    -0.028243209819     1.007825032230
         H           -2.193130005020     2.042095729531    -0.014440209819     1.007825032230
         H           -3.821925005020    -1.303948270469    -0.490690209819     1.007825032230
         H           -4.113894005020     0.442783729531    -0.471289209819     1.007825032230
         H           -3.943959105020    -0.443785470469     1.067643490181     1.007825032230

  Basis Set: AUG-CC-PVTZ
    Blend: AUG-CC-PVTZ
  Basis Set: (AUG-CC-PVTZ AUX)
    Blend: AUG-CC-PVTZ-JKFIT
	 Reference Energy          =    -417.7790660204111646 [Eh]
	 Singles Energy            =      -0.0000000000000000 [Eh]
	 Same-Spin Energy          =      -0.4577004487803455 [Eh]
	 Opposite-Spin Energy      =      -1.4476414865120315 [Eh]
	 Correlation Energy        =      -1.9053419352923771 [Eh]
	 Total Energy              =    -419.6844079557035343 [Eh]

	 ================> DF-SCS-MP2 Energies <==================
	-----------------------------------------------------------
	 SCS Same-Spin Scale       =       0.3333333333333333 [-]
	 SCS Opposite-Spin Scale   =       1.2000000000000000 [-]
	 SCS Same-Spin Energy      =      -0.1525668162601152 [Eh]
	 SCS Opposite-Spin Energy  =      -1.7371697838144378 [Eh]
	 SCS Correlation Energy    =      -1.8897366000745530 [Eh]
	 SCS Total Energy          =    -419.6688026204857351 [Eh]
	-----------------------------------------------------------

  Dipole Moment: [D]
     X:    -2.0392      Y:    -0.5719      Z:     0.0405     Total:     2.1183

*** Psi4 exiting successfully. Buy a developer a beer!
