                               Psi4 1.4a3.dev225

  ==> Input File <==

--------------------------------------------------------------------------
#psi4
#
memory 32 gb

molecule  {
0 1
  N        0.1723510    -0.9422650    -0.0110160
  N       -0.2210270     1.4224780    -0.0033780
  C        2.0395230     0.5887340     0.0077330
  C        2.9514110    -0.3582210    -0.7410450
  C        2.9437130    -0.3688660     0.7522200
  C        0.5840210     0.3414150    -0.0010850
  C       -2.0855860    -0.1066610    -0.0107410
  C       -1.0848021    -1.2202161    -0.0153252
  C       -1.5403890     1.1790090    -0.0074550
  C       -3.5664500    -0.3550010     0.0190800
  H        2.3036370     1.6413390     0.0163460
  H        3.8028480     0.0735720    -1.2571040
  H        2.4662660    -1.1861320    -1.2466910
  H        2.4535620    -1.2039700     1.2409480
  H        3.7897520     0.0554290     1.2831630
  H       -1.4774160    -2.1870700    -0.0286840
  H       -2.1879510     2.0569620    -0.0148810
  H       -3.8167460    -1.2890820    -0.4911310
  H       -4.1087150     0.4576500    -0.4717300
  H       -3.9321000    -0.4275930     1.0483980
units angstrom
no_reorient  #important for SAPT in psi4, default
symmetry c1  #important for SAPT in psi4, default
}

set PROPERTIES_ORIGIN ["COM"]
properties('MP2/aug-cc-pvtz', properties = ['dipole'])
--------------------------------------------------------------------------

    Molecular point group: c1
  Charge       = 0
  Multiplicity = 1
  Basis Set: AUG-CC-PVTZ
    Blend: AUG-CC-PVTZ
  Basis Set: (AUG-CC-PVTZ AUX)
    Blend: AUG-CC-PVTZ-JKFIT

    Orbital Energies [Eh]
    ---------------------

    Doubly Occupied:

       1A    -15.564200     2A    -15.562298     3A    -11.315620
       4A    -11.297440     5A    -11.282269     6A    -11.251294
       7A    -11.236721     8A    -11.232291     9A    -11.226450
      10A    -11.225766    11A     -1.305834    12A     -1.192196
      13A     -1.147365    14A     -1.075887    15A     -0.968225
      16A     -0.890170    17A     -0.869767    18A     -0.819381
      19A     -0.797040    20A     -0.725361    21A     -0.692158
      22A     -0.648644    23A     -0.615315    24A     -0.599842
      25A     -0.594854    26A     -0.582979    27A     -0.560096
      28A     -0.551635    29A     -0.525510    30A     -0.511606
      31A     -0.467699    32A     -0.433878    33A     -0.424094
      34A     -0.422177    35A     -0.395777    36A     -0.323053

  @DF-RHF Final Energy:  -417.76889132641793

   => Energetics <=

    Nuclear Repulsion Energy =            492.8390433984067727
    One-Electron Energy =               -1542.5460886829719129
    Two-Electron Energy =                 631.9381539581471543
    Total Energy =                       -417.7688913264179291
  Basis Set: (AUG-CC-PVTZ AUX)
    Blend: AUG-CC-PVTZ-RI
    Molecular point group: c1

    Geometry (in Angstrom), charge = 0, multiplicity = 1:

       Center              X                  Y                   Z               Mass
    ------------   -----------------  -----------------  -----------------  -----------------
         N            0.161139531979    -0.950484884808    -0.010406463509    14.003074004430
         N           -0.232238468021     1.414258115192    -0.002768463509    14.003074004430
         C            2.028311531979     0.580514115192     0.008342536491    12.000000000000
         C            2.940199531979    -0.366440884808    -0.740435463509    12.000000000000
         C            2.932501531979    -0.377085884808     0.752829536491    12.000000000000
         C            0.572809531979     0.333195115192    -0.000475463509    12.000000000000
         C           -2.096797468021    -0.114880884808    -0.010131463509    12.000000000000
         C           -1.096013568021    -1.228435984808    -0.014715663509    12.000000000000
         C           -1.551600468021     1.170789115192    -0.006845463509    12.000000000000
         C           -3.577661468021    -0.363220884808     0.019689536491    12.000000000000
         H            2.292425531979     1.633119115192     0.016955536491     1.007825032230
         H            3.791636531979     0.065352115192    -1.256494463509     1.007825032230
         H            2.455054531979    -1.194351884808    -1.246081463509     1.007825032230
         H            2.442350531979    -1.212189884808     1.241557536491     1.007825032230
         H            3.778540531979     0.047209115192     1.283772536491     1.007825032230
         H           -1.488627468021    -2.195289884808    -0.028074463509     1.007825032230
         H           -2.199162468021     2.048742115192    -0.014271463509     1.007825032230
         H           -3.827957468021    -1.297301884808    -0.490521463509     1.007825032230
         H           -4.119926468021     0.449430115192    -0.471120463509     1.007825032230
         H           -3.943311468021    -0.435812884808     1.049007536491     1.007825032230

  Basis Set: AUG-CC-PVTZ
    Blend: AUG-CC-PVTZ
  Basis Set: (AUG-CC-PVTZ AUX)
    Blend: AUG-CC-PVTZ-JKFIT
	 Reference Energy          =    -417.7688913264179291 [Eh]
	 Singles Energy            =      -0.0000000000000000 [Eh]
	 Same-Spin Energy          =      -0.4574522822579895 [Eh]
	 Opposite-Spin Energy      =      -1.4475093894825426 [Eh]
	 Correlation Energy        =      -1.9049616717405320 [Eh]
	 Total Energy              =    -419.6738529981584520 [Eh]

	 ================> DF-SCS-MP2 Energies <==================
	-----------------------------------------------------------
	 SCS Same-Spin Scale       =       0.3333333333333333 [-]
	 SCS Opposite-Spin Scale   =       1.2000000000000000 [-]
	 SCS Same-Spin Energy      =      -0.1524840940859965 [Eh]
	 SCS Opposite-Spin Energy  =      -1.7370112673790510 [Eh]
	 SCS Correlation Energy    =      -1.8894953614650474 [Eh]
	 SCS Total Energy          =    -419.6583866878829667 [Eh]
	-----------------------------------------------------------

  Dipole Moment: [D]
     X:    -1.9935      Y:    -0.7683      Z:     0.0482     Total:     2.1370

*** Psi4 exiting successfully. Buy a developer a beer!
