                               Psi4 1.4a3.dev225

  ==> Input File <==

--------------------------------------------------------------------------
#psi4
#
memory 32 gb

molecule  {
0 1
  N        0.1723510    -0.9422650    -0.0110160
  N       -0.2133347     1.3762851    -0.0030953
  C        2.0395230     0.5887340     0.0077330
  C        2.9514110    -0.3582210    -0.7410450
  C        2.9437130    -0.3688660     0.7522200
  C        0.5840210     0.3414150    -0.0010850
  C       -2.0855860    -0.1066610    -0.0107410
  C       -1.1516460    -1.1458400    -0.0150190
  C       -1.5403890     1.1790090    -0.0074550
  C       -3.5664500    -0.3550010     0.0190800
  H        2.3036370     1.6413390     0.0163460
  H        3.8028480     0.0735720    -1.2571040
  H        2.4662660    -1.1861320    -1.2466910
  H        2.4535620    -1.2039700     1.2409480
  H        3.7897520     0.0554290     1.2831630
  H       -1.4774160    -2.1870700    -0.0286840
  H       -2.1879510     2.0569620    -0.0148810
  H       -3.8167460    -1.2890820    -0.4911310
  H       -4.1087150     0.4576500    -0.4717300
  H       -3.9321000    -0.4275930     1.0483980
units angstrom
no_reorient  #important for SAPT in psi4, default
symmetry c1  #important for SAPT in psi4, default
}

set PROPERTIES_ORIGIN ["COM"]
properties('MP2/aug-cc-pvtz', properties = ['dipole'])
--------------------------------------------------------------------------

    Molecular point group: c1
  Charge       = 0
  Multiplicity = 1
  Basis Set: AUG-CC-PVTZ
    Blend: AUG-CC-PVTZ
  Basis Set: (AUG-CC-PVTZ AUX)
    Blend: AUG-CC-PVTZ-JKFIT

    Orbital Energies [Eh]
    ---------------------

    Doubly Occupied:

       1A    -15.562224     2A    -15.557488     3A    -11.307130
       4A    -11.291124     5A    -11.291083     6A    -11.246152
       7A    -11.238259     8A    -11.229837     9A    -11.224674
      10A    -11.223996    11A     -1.308612    12A     -1.182848
      13A     -1.146416    14A     -1.090055    15A     -0.969030
      16A     -0.894390    17A     -0.872737    18A     -0.817657
      19A     -0.798158    20A     -0.716591    21A     -0.698623
      22A     -0.645155    23A     -0.615238    24A     -0.599587
      25A     -0.591606    26A     -0.584712    27A     -0.561219
      28A     -0.555049    29A     -0.524675    30A     -0.510353
      31A     -0.468435    32A     -0.433517    33A     -0.423745
      34A     -0.412963    35A     -0.397755    36A     -0.336648

  @DF-RHF Final Energy:  -417.78012578030280

   => Energetics <=

    Nuclear Repulsion Energy =            494.7229050666010721
    One-Electron Energy =               -1546.3505783586751932
    Two-Electron Energy =                 633.8475475117713813
    Total Energy =                       -417.7801257803027966
  Basis Set: (AUG-CC-PVTZ AUX)
    Blend: AUG-CC-PVTZ-RI
    Molecular point group: c1

    Geometry (in Angstrom), charge = 0, multiplicity = 1:

       Center              X                  Y                   Z               Mass
    ------------   -----------------  -----------------  -----------------  -----------------
         N            0.166318441401    -0.952317093520    -0.010463390856    14.003074004430
         N           -0.219367258599     1.366233006480    -0.002542690856    14.003074004430
         C            2.033490441401     0.578681906480     0.008285609144    12.000000000000
         C            2.945378441401    -0.368273093520    -0.740492390856    12.000000000000
         C            2.937680441401    -0.378918093520     0.752772609144    12.000000000000
         C            0.577988441401     0.331362906480    -0.000532390856    12.000000000000
         C           -2.091618558599    -0.116713093520    -0.010188390856    12.000000000000
         C           -1.157678558599    -1.155892093520    -0.014466390856    12.000000000000
         C           -1.546421558599     1.168956906480    -0.006902390856    12.000000000000
         C           -3.572482558599    -0.365053093520     0.019632609144    12.000000000000
         H            2.297604441401     1.631286906480     0.016898609144     1.007825032230
         H            3.796815441401     0.063519906480    -1.256551390856     1.007825032230
         H            2.460233441401    -1.196184093520    -1.246138390856     1.007825032230
         H            2.447529441401    -1.214022093520     1.241500609144     1.007825032230
         H            3.783719441401     0.045376906480     1.283715609144     1.007825032230
         H           -1.483448558599    -2.197122093520    -0.028131390856     1.007825032230
         H           -2.193983558599     2.046909906480    -0.014328390856     1.007825032230
         H           -3.822778558599    -1.299134093520    -0.490578390856     1.007825032230
         H           -4.114747558599     0.447597906480    -0.471177390856     1.007825032230
         H           -3.938132558599    -0.437645093520     1.048950609144     1.007825032230

  Basis Set: AUG-CC-PVTZ
    Blend: AUG-CC-PVTZ
  Basis Set: (AUG-CC-PVTZ AUX)
    Blend: AUG-CC-PVTZ-JKFIT
	 Reference Energy          =    -417.7801257803027966 [Eh]
	 Singles Energy            =      -0.0000000000000000 [Eh]
	 Same-Spin Energy          =      -0.4574077485432261 [Eh]
	 Opposite-Spin Energy      =      -1.4464264155289430 [Eh]
	 Correlation Energy        =      -1.9038341640721690 [Eh]
	 Total Energy              =    -419.6839599443749762 [Eh]

	 ================> DF-SCS-MP2 Energies <==================
	-----------------------------------------------------------
	 SCS Same-Spin Scale       =       0.3333333333333333 [-]
	 SCS Opposite-Spin Scale   =       1.2000000000000000 [-]
	 SCS Same-Spin Energy      =      -0.1524692495144087 [Eh]
	 SCS Opposite-Spin Energy  =      -1.7357116986347316 [Eh]
	 SCS Correlation Energy    =      -1.8881809481491403 [Eh]
	 SCS Total Energy          =    -419.6683067284519097 [Eh]
	-----------------------------------------------------------

  Dipole Moment: [D]
     X:    -2.1079      Y:    -0.4878      Z:     0.0465     Total:     2.1641

*** Psi4 exiting successfully. Buy a developer a beer!
