                               Psi4 1.4a3.dev225

  ==> Input File <==

--------------------------------------------------------------------------
#psi4
#
memory 32 gb

molecule  {
0 1
  N        0.1723510    -0.9422650    -0.0110160
  N       -0.2210270     1.4224780    -0.0033780
  C        2.0395230     0.5887340     0.0077330
  C        2.9514110    -0.3582210    -0.7410450
  C        2.9437130    -0.3688660     0.7522200
  C        0.5840210     0.3414150    -0.0010850
  C       -2.0855860    -0.1066610    -0.0107410
  C       -1.1516460    -1.1458400    -0.0150190
  C       -1.5403890     1.1790090    -0.0074550
  C       -3.5664500    -0.3550010     0.0190800
  H        2.3036370     1.6413390     0.0163460
  H        3.8028480     0.0735720    -1.2571040
  H        2.4662660    -1.1861320    -1.2466910
  H        2.4535620    -1.2039700     1.2409480
  H        3.7897520     0.0554290     1.2831630
  H       -1.4774160    -2.1870700    -0.0286840
  H       -2.1879510     2.0569620    -0.0148810
  H       -3.8167460    -1.2890820    -0.4911310
  H       -4.1335140     0.4948144    -0.4941759
  H       -3.9321000    -0.4275930     1.0483980
units angstrom
no_reorient  #important for SAPT in psi4, default
symmetry c1  #important for SAPT in psi4, default
}

set PROPERTIES_ORIGIN ["COM"]
properties('MP2/aug-cc-pvtz', properties = ['dipole'])
--------------------------------------------------------------------------

    Molecular point group: c1
  Charge       = 0
  Multiplicity = 1
  Basis Set: AUG-CC-PVTZ
    Blend: AUG-CC-PVTZ
  Basis Set: (AUG-CC-PVTZ AUX)
    Blend: AUG-CC-PVTZ-JKFIT

    Orbital Energies [Eh]
    ---------------------

    Doubly Occupied:

       1A    -15.564217     2A    -15.564187     3A    -11.313740
       4A    -11.292218     5A    -11.290525     6A    -11.246089
       7A    -11.244040     8A    -11.231449     9A    -11.225974
      10A    -11.225293    11A     -1.301921    12A     -1.182754
      13A     -1.147270    14A     -1.087609    15A     -0.964727
      16A     -0.891210    17A     -0.873511    18A     -0.818759
      19A     -0.796433    20A     -0.715602    21A     -0.694931
      22A     -0.645716    23A     -0.613798    24A     -0.597268
      25A     -0.591490    26A     -0.582132    27A     -0.558463
      28A     -0.547447    29A     -0.523630    30A     -0.511180
      31A     -0.471964    32A     -0.434232    33A     -0.424391
      34A     -0.414453    35A     -0.402886    36A     -0.334493

  @DF-RHF Final Energy:  -417.77744555061406

   => Energetics <=

    Nuclear Repulsion Energy =            493.3331078599085231
    One-Electron Energy =               -1543.5691077403266718
    Two-Electron Energy =                 632.4585543298040875
    Total Energy =                       -417.7774455506140612
  Basis Set: (AUG-CC-PVTZ AUX)
    Blend: AUG-CC-PVTZ-RI
    Molecular point group: c1

    Geometry (in Angstrom), charge = 0, multiplicity = 1:

       Center              X                  Y                   Z               Mass
    ------------   -----------------  -----------------  -----------------  -----------------
         N            0.167308182943    -0.957420579222    -0.010265155944    14.003074004430
         N           -0.226069817057     1.407322420778    -0.002627155944    14.003074004430
         C            2.034480182943     0.573578420778     0.008483844056    12.000000000000
         C            2.946368182943    -0.373376579222    -0.740294155944    12.000000000000
         C            2.938670182943    -0.384021579222     0.752970844056    12.000000000000
         C            0.578978182943     0.326259420778    -0.000334155944    12.000000000000
         C           -2.090628817057    -0.121816579222    -0.009990155944    12.000000000000
         C           -1.156688817057    -1.160995579222    -0.014268155944    12.000000000000
         C           -1.545431817057     1.163853420778    -0.006704155944    12.000000000000
         C           -3.571492817057    -0.370156579222     0.019830844056    12.000000000000
         H            2.298594182943     1.626183420778     0.017096844056     1.007825032230
         H            3.797805182943     0.058416420778    -1.256353155944     1.007825032230
         H            2.461223182943    -1.201287579222    -1.245940155944     1.007825032230
         H            2.448519182943    -1.219125579222     1.241698844056     1.007825032230
         H            3.784709182943     0.040273420778     1.283913844056     1.007825032230
         H           -1.482458817057    -2.202225579222    -0.027933155944     1.007825032230
         H           -2.192993817057     2.041806420778    -0.014130155944     1.007825032230
         H           -3.821788817057    -1.304237579222    -0.490380155944     1.007825032230
         H           -4.138556817057     0.479658820778    -0.493425055944     1.007825032230
         H           -3.937142817057    -0.442748579222     1.049148844056     1.007825032230

  Basis Set: AUG-CC-PVTZ
    Blend: AUG-CC-PVTZ
  Basis Set: (AUG-CC-PVTZ AUX)
    Blend: AUG-CC-PVTZ-JKFIT
	 Reference Energy          =    -417.7774455506140612 [Eh]
	 Singles Energy            =      -0.0000000000000000 [Eh]
	 Same-Spin Energy          =      -0.4577091809351922 [Eh]
	 Opposite-Spin Energy      =      -1.4478627147363925 [Eh]
	 Correlation Energy        =      -1.9055718956715846 [Eh]
	 Total Energy              =    -419.6830174462856462 [Eh]

	 ================> DF-SCS-MP2 Energies <==================
	-----------------------------------------------------------
	 SCS Same-Spin Scale       =       0.3333333333333333 [-]
	 SCS Opposite-Spin Scale   =       1.2000000000000000 [-]
	 SCS Same-Spin Energy      =      -0.1525697269783974 [Eh]
	 SCS Opposite-Spin Energy  =      -1.7374352576836709 [Eh]
	 SCS Correlation Energy    =      -1.8900049846620683 [Eh]
	 SCS Total Energy          =    -419.6674505352761457 [Eh]
	-----------------------------------------------------------

  Dipole Moment: [D]
     X:    -2.0229      Y:    -0.5846      Z:     0.0540     Total:     2.1064

*** Psi4 exiting successfully. Buy a developer a beer!
