                               Psi4 1.4a3.dev225

  ==> Input File <==

--------------------------------------------------------------------------
#psi4
#
memory 32 gb

molecule  {
0 1
  N        0.1723510    -0.9422650    -0.0110160
  N       -0.2210270     1.4224780    -0.0033780
  C        2.0395230     0.5887340     0.0077330
  C        2.9514110    -0.3582210    -0.7410450
  C        2.9437130    -0.3688660     0.7522200
  C        0.5347284     0.3330392    -0.0013836
  C       -2.0855860    -0.1066610    -0.0107410
  C       -1.1516460    -1.1458400    -0.0150190
  C       -1.5403890     1.1790090    -0.0074550
  C       -3.5664500    -0.3550010     0.0190800
  H        2.3036370     1.6413390     0.0163460
  H        3.8028480     0.0735720    -1.2571040
  H        2.4662660    -1.1861320    -1.2466910
  H        2.4535620    -1.2039700     1.2409480
  H        3.7897520     0.0554290     1.2831630
  H       -1.4774160    -2.1870700    -0.0286840
  H       -2.1879510     2.0569620    -0.0148810
  H       -3.8167460    -1.2890820    -0.4911310
  H       -4.1087150     0.4576500    -0.4717300
  H       -3.9321000    -0.4275930     1.0483980
units angstrom
no_reorient  #important for SAPT in psi4, default
symmetry c1  #important for SAPT in psi4, default
}

set PROPERTIES_ORIGIN ["COM"]
properties('MP2/aug-cc-pvtz', properties = ['dipole'])
--------------------------------------------------------------------------

    Molecular point group: c1
  Charge       = 0
  Multiplicity = 1
  Basis Set: AUG-CC-PVTZ
    Blend: AUG-CC-PVTZ
  Basis Set: (AUG-CC-PVTZ AUX)
    Blend: AUG-CC-PVTZ-JKFIT

    Orbital Energies [Eh]
    ---------------------

    Doubly Occupied:

       1A    -15.565241     2A    -15.565146     3A    -11.310672
       4A    -11.294304     5A    -11.292861     6A    -11.247857
       7A    -11.239760     8A    -11.229429     9A    -11.221641
      10A    -11.220950    11A     -1.312027    12A     -1.192677
      13A     -1.140825    14A     -1.090547    15A     -0.965782
      16A     -0.896712    17A     -0.869596    18A     -0.814691
      19A     -0.794748    20A     -0.716239    21A     -0.696402
      22A     -0.644380    23A     -0.608753    24A     -0.601533
      25A     -0.594078    26A     -0.584358    27A     -0.562288
      28A     -0.557252    29A     -0.518144    30A     -0.508024
      31A     -0.468749    32A     -0.428469    33A     -0.420302
      34A     -0.418383    35A     -0.410209    36A     -0.339727

  @DF-RHF Final Energy:  -417.77854067560520

   => Energetics <=

    Nuclear Repulsion Energy =            493.8968949964202579
    One-Electron Energy =               -1544.6653618088396343
    Two-Electron Energy =                 632.9899261368141197
    Total Energy =                       -417.7785406756051998
  Basis Set: (AUG-CC-PVTZ AUX)
    Blend: AUG-CC-PVTZ-RI
    Molecular point group: c1

    Geometry (in Angstrom), charge = 0, multiplicity = 1:

       Center              X                  Y                   Z               Mass
    ------------   -----------------  -----------------  -----------------  -----------------
         N            0.171533269187    -0.956391639134    -0.010407143678    14.003074004430
         N           -0.221844730813     1.408351360866    -0.002769143678    14.003074004430
         C            2.038705269187     0.574607360866     0.008341856322    12.000000000000
         C            2.950593269187    -0.372347639134    -0.740436143678    12.000000000000
         C            2.942895269187    -0.382992639134     0.752828856322    12.000000000000
         C            0.533910669187     0.318912560866    -0.000774743678    12.000000000000
         C           -2.086403730813    -0.120787639134    -0.010132143678    12.000000000000
         C           -1.152463730813    -1.159966639134    -0.014410143678    12.000000000000
         C           -1.541206730813     1.164882360866    -0.006846143678    12.000000000000
         C           -3.567267730813    -0.369127639134     0.019688856322    12.000000000000
         H            2.302819269187     1.627212360866     0.016954856322     1.007825032230
         H            3.802030269187     0.059445360866    -1.256495143678     1.007825032230
         H            2.465448269187    -1.200258639134    -1.246082143678     1.007825032230
         H            2.452744269187    -1.218096639134     1.241556856322     1.007825032230
         H            3.788934269187     0.041302360866     1.283771856322     1.007825032230
         H           -1.478233730813    -2.201196639134    -0.028075143678     1.007825032230
         H           -2.188768730813     2.042835360866    -0.014272143678     1.007825032230
         H           -3.817563730813    -1.303208639134    -0.490522143678     1.007825032230
         H           -4.109532730813     0.443523360866    -0.471121143678     1.007825032230
         H           -3.932917730813    -0.441719639134     1.049006856322     1.007825032230

  Basis Set: AUG-CC-PVTZ
    Blend: AUG-CC-PVTZ
  Basis Set: (AUG-CC-PVTZ AUX)
    Blend: AUG-CC-PVTZ-JKFIT
	 Reference Energy          =    -417.7785406756051998 [Eh]
	 Singles Energy            =      -0.0000000000000000 [Eh]
	 Same-Spin Energy          =      -0.4569854230130433 [Eh]
	 Opposite-Spin Energy      =      -1.4464702066503432 [Eh]
	 Correlation Energy        =      -1.9034556296633864 [Eh]
	 Total Energy              =    -419.6819963052685694 [Eh]

	 ================> DF-SCS-MP2 Energies <==================
	-----------------------------------------------------------
	 SCS Same-Spin Scale       =       0.3333333333333333 [-]
	 SCS Opposite-Spin Scale   =       1.2000000000000000 [-]
	 SCS Same-Spin Energy      =      -0.1523284743376811 [Eh]
	 SCS Opposite-Spin Energy  =      -1.7357642479804118 [Eh]
	 SCS Correlation Energy    =      -1.8880927223180930 [Eh]
	 SCS Total Energy          =    -419.6666333979233059 [Eh]
	-----------------------------------------------------------

  Dipole Moment: [D]
     X:    -2.3809      Y:    -0.5713      Z:     0.0442     Total:     2.4489

*** Psi4 exiting successfully. Buy a developer a beer!
