                               Psi4 1.4a3.dev225

  ==> Input File <==

--------------------------------------------------------------------------
#psi4
#
memory 32 gb

molecule  {
0 1
  N        0.3087850    -0.9782714    -0.0099254
  N       -0.2210270     1.4224780    -0.0033780
  C        2.0395230     0.5887340     0.0077330
  C        2.9514110    -0.3582210    -0.7410450
  C        2.9437130    -0.3688660     0.7522200
  C        0.5840210     0.3414150    -0.0010850
  C       -2.0855860    -0.1066610    -0.0107410
  C       -1.1516460    -1.1458400    -0.0150190
  C       -1.5403890     1.1790090    -0.0074550
  C       -3.5664500    -0.3550010     0.0190800
  H        2.3036370     1.6413390     0.0163460
  H        3.8028480     0.0735720    -1.2571040
  H        2.4662660    -1.1861320    -1.2466910
  H        2.4535620    -1.2039700     1.2409480
  H        3.7897520     0.0554290     1.2831630
  H       -1.4774160    -2.1870700    -0.0286840
  H       -2.1879510     2.0569620    -0.0148810
  H       -3.8167460    -1.2890820    -0.4911310
  H       -4.1087150     0.4576500    -0.4717300
  H       -3.9321000    -0.4275930     1.0483980
units angstrom
no_reorient  #important for SAPT in psi4, default
symmetry c1  #important for SAPT in psi4, default
}

set PROPERTIES_ORIGIN ["COM"]
properties('MP2/aug-cc-pvtz', properties = ['dipole'])
--------------------------------------------------------------------------

    Molecular point group: c1
  Charge       = 0
  Multiplicity = 1
  Basis Set: AUG-CC-PVTZ
    Blend: AUG-CC-PVTZ
  Basis Set: (AUG-CC-PVTZ AUX)
    Blend: AUG-CC-PVTZ-JKFIT

    Orbital Energies [Eh]
    ---------------------

    Doubly Occupied:

       1A    -15.577882     2A    -15.567451     3A    -11.311554
       4A    -11.305408     5A    -11.300102     6A    -11.252187
       7A    -11.242353     8A    -11.224622     9A    -11.221427
      10A    -11.220775    11A     -1.290454    12A     -1.174189
      13A     -1.136471    14A     -1.092239    15A     -0.964342
      16A     -0.899502    17A     -0.870475    18A     -0.814738
      19A     -0.785721    20A     -0.706860    21A     -0.691873
      22A     -0.639069    23A     -0.609791    24A     -0.600172
      25A     -0.596667    26A     -0.576023    27A     -0.558328
      28A     -0.555402    29A     -0.516147    30A     -0.507307
      31A     -0.467575    32A     -0.431341    33A     -0.424857
      34A     -0.413856    35A     -0.400964    36A     -0.341390

  @DF-RHF Final Energy:  -417.75512904204390

   => Energetics <=

    Nuclear Repulsion Energy =            491.7493892512569005
    One-Electron Energy =               -1540.4300089967846361
    Two-Electron Energy =                 630.9254907034838880
    Total Energy =                       -417.7551290420439045
  Basis Set: (AUG-CC-PVTZ AUX)
    Blend: AUG-CC-PVTZ-RI
    Molecular point group: c1

    Geometry (in Angstrom), charge = 0, multiplicity = 1:

       Center              X                  Y                   Z               Mass
    ------------   -----------------  -----------------  -----------------  -----------------
         N            0.289307330896    -0.989387318358    -0.009457163711    14.003074004430
         N           -0.240504669104     1.411362081642    -0.002909763711    14.003074004430
         C            2.020045330896     0.577618081642     0.008201236289    12.000000000000
         C            2.931933330896    -0.369336918358    -0.740576763711    12.000000000000
         C            2.924235330896    -0.379981918358     0.752688236289    12.000000000000
         C            0.564543330896     0.330299081642    -0.000616763711    12.000000000000
         C           -2.105063669104    -0.117776918358    -0.010272763711    12.000000000000
         C           -1.171123669104    -1.156955918358    -0.014550763711    12.000000000000
         C           -1.559866669104     1.167893081642    -0.006986763711    12.000000000000
         C           -3.585927669104    -0.366116918358     0.019548236289    12.000000000000
         H            2.284159330896     1.630223081642     0.016814236289     1.007825032230
         H            3.783370330896     0.062456081642    -1.256635763711     1.007825032230
         H            2.446788330896    -1.197247918358    -1.246222763711     1.007825032230
         H            2.434084330896    -1.215085918358     1.241416236289     1.007825032230
         H            3.770274330896     0.044313081642     1.283631236289     1.007825032230
         H           -1.496893669104    -2.198185918358    -0.028215763711     1.007825032230
         H           -2.207428669104     2.045846081642    -0.014412763711     1.007825032230
         H           -3.836223669104    -1.300197918358    -0.490662763711     1.007825032230
         H           -4.128192669104     0.446534081642    -0.471261763711     1.007825032230
         H           -3.951577669104    -0.438708918358     1.048866236289     1.007825032230

  Basis Set: AUG-CC-PVTZ
    Blend: AUG-CC-PVTZ
  Basis Set: (AUG-CC-PVTZ AUX)
    Blend: AUG-CC-PVTZ-JKFIT
	 Reference Energy          =    -417.7551290420439045 [Eh]
	 Singles Energy            =      -0.0000000000000000 [Eh]
	 Same-Spin Energy          =      -0.4592771136133305 [Eh]
	 Opposite-Spin Energy      =      -1.4531612826126614 [Eh]
	 Correlation Energy        =      -1.9124383962259919 [Eh]
	 Total Energy              =    -419.6675674382698844 [Eh]

	 ================> DF-SCS-MP2 Energies <==================
	-----------------------------------------------------------
	 SCS Same-Spin Scale       =       0.3333333333333333 [-]
	 SCS Opposite-Spin Scale   =       1.2000000000000000 [-]
	 SCS Same-Spin Energy      =      -0.1530923712044435 [Eh]
	 SCS Opposite-Spin Energy  =      -1.7437935391351937 [Eh]
	 SCS Correlation Energy    =      -1.8968859103396372 [Eh]
	 SCS Total Energy          =    -419.6520149523835244 [Eh]
	-----------------------------------------------------------

  Dipole Moment: [D]
     X:    -2.4335      Y:    -0.4740      Z:     0.0429     Total:     2.4796

*** Psi4 exiting successfully. Buy a developer a beer!
