                               Psi4 1.4a3.dev225

  ==> Input File <==

--------------------------------------------------------------------------
#psi4
#
memory 32 gb

molecule  {
0 1
  N        0.1723510    -0.9422650    -0.0110160
  N       -0.2210270     1.4224780    -0.0033780
  C        2.0395230     0.5887340     0.0077330
  C        2.9514110    -0.3582210    -0.7410450
  C        2.9437130    -0.3688660     0.7522200
  C        0.5840210     0.3414150    -0.0010850
  C       -2.0855860    -0.1066610    -0.0107410
  C       -1.1516460    -1.1458400    -0.0150190
  C       -1.3437107     1.2153031    -0.0068472
  C       -3.5664500    -0.3550010     0.0190800
  H        2.3036370     1.6413390     0.0163460
  H        3.8028480     0.0735720    -1.2571040
  H        2.4662660    -1.1861320    -1.2466910
  H        2.4535620    -1.2039700     1.2409480
  H        3.7897520     0.0554290     1.2831630
  H       -1.4774160    -2.1870700    -0.0286840
  H       -2.1879510     2.0569620    -0.0148810
  H       -3.8167460    -1.2890820    -0.4911310
  H       -4.1087150     0.4576500    -0.4717300
  H       -3.9321000    -0.4275930     1.0483980
units angstrom
no_reorient  #important for SAPT in psi4, default
symmetry c1  #important for SAPT in psi4, default
}

set PROPERTIES_ORIGIN ["COM"]
properties('MP2/aug-cc-pvtz', properties = ['dipole'])
--------------------------------------------------------------------------

    Molecular point group: c1
  Charge       = 0
  Multiplicity = 1
  Basis Set: AUG-CC-PVTZ
    Blend: AUG-CC-PVTZ
  Basis Set: (AUG-CC-PVTZ AUX)
    Blend: AUG-CC-PVTZ-JKFIT

    Orbital Energies [Eh]
    ---------------------

    Doubly Occupied:

       1A    -15.561659     2A    -15.556029     3A    -11.322907
       4A    -11.289519     5A    -11.277438     6A    -11.247492
       7A    -11.238146     8A    -11.235456     9A    -11.229372
      10A    -11.228685    11A     -1.352928    12A     -1.221644
      13A     -1.148778    14A     -1.069719    15A     -0.975961
      16A     -0.893978    17A     -0.855187    18A     -0.821721
      19A     -0.805584    20A     -0.721750    21A     -0.696839
      22A     -0.645973    23A     -0.611975    24A     -0.607854
      25A     -0.594980    26A     -0.577706    27A     -0.571429
      28A     -0.552513    29A     -0.519989    30A     -0.516240
      31A     -0.469302    32A     -0.453828    33A     -0.431682
      34A     -0.429062    35A     -0.382446    36A     -0.318627

  @DF-RHF Final Energy:  -417.72098802669387

   => Energetics <=

    Nuclear Repulsion Energy =            496.0346208043303591
    One-Electron Energy =               -1548.6424193334662505
    Two-Electron Energy =                 634.8868105024419037
    Total Energy =                       -417.7209880266939308
  Basis Set: (AUG-CC-PVTZ AUX)
    Blend: AUG-CC-PVTZ-RI
    Molecular point group: c1

    Geometry (in Angstrom), charge = 0, multiplicity = 1:

       Center              X                  Y                   Z               Mass
    ------------   -----------------  -----------------  -----------------  -----------------
         N            0.149519889281    -0.960389410737    -0.010488262735    14.003074004430
         N           -0.243858110719     1.404353589263    -0.002850262735    14.003074004430
         C            2.016691889281     0.570609589263     0.008260737265    12.000000000000
         C            2.928579889281    -0.376345410737    -0.740517262735    12.000000000000
         C            2.920881889281    -0.386990410737     0.752747737265    12.000000000000
         C            0.561189889281     0.323290589263    -0.000557262735    12.000000000000
         C           -2.108417110719    -0.124785410737    -0.010213262735    12.000000000000
         C           -1.174477110719    -1.163964410737    -0.014491262735    12.000000000000
         C           -1.366541810719     1.197178689263    -0.006319462735    12.000000000000
         C           -3.589281110719    -0.373125410737     0.019607737265    12.000000000000
         H            2.280805889281     1.623214589263     0.016873737265     1.007825032230
         H            3.780016889281     0.055447589263    -1.256576262735     1.007825032230
         H            2.443434889281    -1.204256410737    -1.246163262735     1.007825032230
         H            2.430730889281    -1.222094410737     1.241475737265     1.007825032230
         H            3.766920889281     0.037304589263     1.283690737265     1.007825032230
         H           -1.500247110719    -2.205194410737    -0.028156262735     1.007825032230
         H           -2.210782110719     2.038837589263    -0.014353262735     1.007825032230
         H           -3.839577110719    -1.307206410737    -0.490603262735     1.007825032230
         H           -4.131546110719     0.439525589263    -0.471202262735     1.007825032230
         H           -3.954931110719    -0.445717410737     1.048925737265     1.007825032230

  Basis Set: AUG-CC-PVTZ
    Blend: AUG-CC-PVTZ
  Basis Set: (AUG-CC-PVTZ AUX)
    Blend: AUG-CC-PVTZ-JKFIT
	 Reference Energy          =    -417.7209880266938740 [Eh]
	 Singles Energy            =      -0.0000000000000000 [Eh]
	 Same-Spin Energy          =      -0.4562396918331076 [Eh]
	 Opposite-Spin Energy      =      -1.4456532814873384 [Eh]
	 Correlation Energy        =      -1.9018929733204462 [Eh]
	 Total Energy              =    -419.6228810000143312 [Eh]

	 ================> DF-SCS-MP2 Energies <==================
	-----------------------------------------------------------
	 SCS Same-Spin Scale       =       0.3333333333333333 [-]
	 SCS Opposite-Spin Scale   =       1.2000000000000000 [-]
	 SCS Same-Spin Energy      =      -0.1520798972777025 [Eh]
	 SCS Opposite-Spin Energy  =      -1.7347839377848060 [Eh]
	 SCS Correlation Energy    =      -1.8868638350625084 [Eh]
	 SCS Total Energy          =    -419.6078518617563873 [Eh]
	-----------------------------------------------------------

  Dipole Moment: [D]
     X:    -1.6220      Y:    -0.4437      Z:     0.0539     Total:     1.6825

*** Psi4 exiting successfully. Buy a developer a beer!
