                               Psi4 1.4a3.dev225

  ==> Input File <==

--------------------------------------------------------------------------
#psi4
#
memory 32 gb

molecule  {
0 1
  N        0.1723510    -0.9422650    -0.0110160
  N       -0.2210270     1.4224780    -0.0033780
  C        2.0395230     0.5887340     0.0077330
  C        2.9514110    -0.3582210    -0.7410450
  C        2.9437130    -0.3688660     0.7522200
  C        0.5840210     0.3414150    -0.0010850
  C       -2.0855860    -0.1066610    -0.0107410
  C       -1.1516460    -1.1458400    -0.0150190
  C       -1.5403890     1.1790090    -0.0074550
  C       -3.5664500    -0.3550010     0.0190800
  H        2.3036370     1.6413390     0.0163460
  H        3.8028480     0.0735720    -1.2571040
  H        2.4662660    -1.1861320    -1.2466910
  H        2.4535620    -1.2039700     1.2409480
  H        3.7897520     0.0554290     1.2831630
  H       -1.4774160    -2.1870700    -0.0286840
  H       -2.1879510     2.0569620    -0.0148810
  H       -3.8625301    -1.4599438    -0.5844587
  H       -4.1087150     0.4576500    -0.4717300
  H       -3.9321000    -0.4275930     1.0483980
units angstrom
no_reorient  #important for SAPT in psi4, default
symmetry c1  #important for SAPT in psi4, default
}

set PROPERTIES_ORIGIN ["COM"]
properties('MP2/aug-cc-pvtz', properties = ['dipole'])
--------------------------------------------------------------------------

    Molecular point group: c1
  Charge       = 0
  Multiplicity = 1
  Basis Set: AUG-CC-PVTZ
    Blend: AUG-CC-PVTZ
  Basis Set: (AUG-CC-PVTZ AUX)
    Blend: AUG-CC-PVTZ-JKFIT

    Orbital Energies [Eh]
    ---------------------

    Doubly Occupied:

       1A    -15.565023     2A    -15.564744     3A    -11.314560
       4A    -11.292695     5A    -11.292102     6A    -11.260784
       7A    -11.247623     8A    -11.231928     9A    -11.226387
      10A    -11.225705    11A     -1.302697    12A     -1.183522
      13A     -1.147710    14A     -1.087173    15A     -0.960222
      16A     -0.892302    17A     -0.869725    18A     -0.819147
      19A     -0.796991    20A     -0.716267    21A     -0.694105
      22A     -0.646633    23A     -0.613849    24A     -0.596747
      25A     -0.593254    26A     -0.581710    27A     -0.559931
      28A     -0.526398    29A     -0.518692    30A     -0.511089
      31A     -0.472552    32A     -0.434388    33A     -0.424842
      34A     -0.415202    35A     -0.403375    36A     -0.335022

  @DF-RHF Final Energy:  -417.75944801260709

   => Energetics <=

    Nuclear Repulsion Energy =            492.7764807186420626
    One-Electron Energy =               -1542.4216636248431769
    Two-Electron Energy =                 631.8857348935940763
    Total Energy =                       -417.7594480126070948
  Basis Set: (AUG-CC-PVTZ AUX)
    Blend: AUG-CC-PVTZ-RI
    Molecular point group: c1

    Geometry (in Angstrom), charge = 0, multiplicity = 1:

       Center              X                  Y                   Z               Mass
    ------------   -----------------  -----------------  -----------------  -----------------
         N            0.167465914262    -0.955856981859    -0.009732383651    14.003074004430
         N           -0.225912085738     1.408886018141    -0.002094383651    14.003074004430
         C            2.034637914262     0.575142018141     0.009016616349    12.000000000000
         C            2.946525914262    -0.371812981859    -0.739761383651    12.000000000000
         C            2.938827914262    -0.382457981859     0.753503616349    12.000000000000
         C            0.579135914262     0.327823018141     0.000198616349    12.000000000000
         C           -2.090471085738    -0.120252981859    -0.009457383651    12.000000000000
         C           -1.156531085738    -1.159431981859    -0.013735383651    12.000000000000
         C           -1.545274085738     1.165417018141    -0.006171383651    12.000000000000
         C           -3.571335085738    -0.368592981859     0.020363616349    12.000000000000
         H            2.298751914262     1.627747018141     0.017629616349     1.007825032230
         H            3.797962914262     0.059980018141    -1.255820383651     1.007825032230
         H            2.461380914262    -1.199723981859    -1.245407383651     1.007825032230
         H            2.448676914262    -1.217561981859     1.242231616349     1.007825032230
         H            3.784866914262     0.041837018141     1.284446616349     1.007825032230
         H           -1.482301085738    -2.200661981859    -0.027400383651     1.007825032230
         H           -2.192836085738     2.043370018141    -0.013597383651     1.007825032230
         H           -3.867415185738    -1.473535781859    -0.583175083651     1.007825032230
         H           -4.113600085738     0.444058018141    -0.470446383651     1.007825032230
         H           -3.936985085738    -0.441184981859     1.049681616349     1.007825032230

  Basis Set: AUG-CC-PVTZ
    Blend: AUG-CC-PVTZ
  Basis Set: (AUG-CC-PVTZ AUX)
    Blend: AUG-CC-PVTZ-JKFIT
	 Reference Energy          =    -417.7594480126070948 [Eh]
	 Singles Energy            =      -0.0000000000000000 [Eh]
	 Same-Spin Energy          =      -0.4576929914778942 [Eh]
	 Opposite-Spin Energy      =      -1.4490754944563911 [Eh]
	 Correlation Energy        =      -1.9067684859342853 [Eh]
	 Total Energy              =    -419.6662164985413597 [Eh]

	 ================> DF-SCS-MP2 Energies <==================
	-----------------------------------------------------------
	 SCS Same-Spin Scale       =       0.3333333333333333 [-]
	 SCS Opposite-Spin Scale   =       1.2000000000000000 [-]
	 SCS Same-Spin Energy      =      -0.1525643304926314 [Eh]
	 SCS Opposite-Spin Energy  =      -1.7388905933476693 [Eh]
	 SCS Correlation Energy    =      -1.8914549238403007 [Eh]
	 SCS Total Energy          =    -419.6509029364473804 [Eh]
	-----------------------------------------------------------

  Dipole Moment: [D]
     X:    -1.9532      Y:    -0.4871      Z:     0.0863     Total:     2.0149

*** Psi4 exiting successfully. Buy a developer a beer!
