                               Psi4 1.4a3.dev225

  ==> Input File <==

--------------------------------------------------------------------------
#psi4
#
memory 32 gb

molecule  {
0 1
  N        0.1723510    -0.9422650    -0.0110160
  N       -0.2210270     1.4224780    -0.0033780
  C        2.0395230     0.5887340     0.0077330
  C        2.9514110    -0.3582210    -0.7410450
  C        2.9437130    -0.3688660     0.7522200
  C        0.5840210     0.3414150    -0.0010850
  C       -2.0855860    -0.1066610    -0.0107410
  C       -1.1516460    -1.1458400    -0.0150190
  C       -1.5403890     1.1790090    -0.0074550
  C       -3.5664500    -0.3550010     0.0190800
  H        2.3036370     1.6413390     0.0163460
  H        3.8028480     0.0735720    -1.2571040
  H        2.4662660    -1.1861320    -1.2466910
  H        2.4535620    -1.2039700     1.2409480
  H        3.6338321    -0.0227660     1.1853134
  H       -1.4774160    -2.1870700    -0.0286840
  H       -2.1879510     2.0569620    -0.0148810
  H       -3.8167460    -1.2890820    -0.4911310
  H       -4.1087150     0.4576500    -0.4717300
  H       -3.9321000    -0.4275930     1.0483980
units angstrom
no_reorient  #important for SAPT in psi4, default
symmetry c1  #important for SAPT in psi4, default
}

set PROPERTIES_ORIGIN ["COM"]
properties('MP2/aug-cc-pvtz', properties = ['dipole'])
--------------------------------------------------------------------------

    Molecular point group: c1
  Charge       = 0
  Multiplicity = 1
  Basis Set: AUG-CC-PVTZ
    Blend: AUG-CC-PVTZ
  Basis Set: (AUG-CC-PVTZ AUX)
    Blend: AUG-CC-PVTZ-JKFIT

    Orbital Energies [Eh]
    ---------------------

    Doubly Occupied:

       1A    -15.563522     2A    -15.563347     3A    -11.313028
       4A    -11.291400     5A    -11.289928     6A    -11.245104
       7A    -11.237815     8A    -11.230605     9A    -11.224658
      10A    -11.201923    11A     -1.301185    12A     -1.182077
      13A     -1.150152    14A     -1.088688    15A     -0.968220
      16A     -0.890967    17A     -0.879232    18A     -0.843580
      19A     -0.797345    20A     -0.717458    21A     -0.694897
      22A     -0.663337    23A     -0.613680    24A     -0.598258
      25A     -0.591192    26A     -0.582800    27A     -0.560220
      28A     -0.554701    29A     -0.530281    30A     -0.518271
      31A     -0.471568    32A     -0.434510    33A     -0.423959
      34A     -0.413818    35A     -0.402220    36A     -0.334105

  @DF-RHF Final Energy:  -417.74414178817017

   => Energetics <=

    Nuclear Repulsion Energy =            494.6707893395404767
    One-Electron Energy =               -1546.0937604826281131
    Two-Electron Energy =                 633.6788293549174114
    Total Energy =                       -417.7441417881701682
  Basis Set: (AUG-CC-PVTZ AUX)
    Blend: AUG-CC-PVTZ-RI
    Molecular point group: c1

    Geometry (in Angstrom), charge = 0, multiplicity = 1:

       Center              X                  Y                   Z               Mass
    ------------   -----------------  -----------------  -----------------  -----------------
         N            0.168293733289    -0.956553497799    -0.009698395475    14.003074004430
         N           -0.225084266711     1.408189502201    -0.002060395475    14.003074004430
         C            2.035465733289     0.574445502201     0.009050604525    12.000000000000
         C            2.947353733289    -0.372509497799    -0.739727395475    12.000000000000
         C            2.939655733289    -0.383154497799     0.753537604525    12.000000000000
         C            0.579963733289     0.327126502201     0.000232604525    12.000000000000
         C           -2.089643266711    -0.120949497799    -0.009423395475    12.000000000000
         C           -1.155703266711    -1.160128497799    -0.013701395475    12.000000000000
         C           -1.544446266711     1.164720502201    -0.006137395475    12.000000000000
         C           -3.570507266711    -0.369289497799     0.020397604525    12.000000000000
         H            2.299579733289     1.627050502201     0.017663604525     1.007825032230
         H            3.798790733289     0.059283502201    -1.255786395475     1.007825032230
         H            2.462208733289    -1.200420497799    -1.245373395475     1.007825032230
         H            2.449504733289    -1.218258497799     1.242265604525     1.007825032230
         H            3.629774833289    -0.037054497799     1.186631004525     1.007825032230
         H           -1.481473266711    -2.201358497799    -0.027366395475     1.007825032230
         H           -2.192008266711     2.042673502201    -0.013563395475     1.007825032230
         H           -3.820803266711    -1.303370497799    -0.489813395475     1.007825032230
         H           -4.112772266711     0.443361502201    -0.470412395475     1.007825032230
         H           -3.936157266711    -0.441881497799     1.049715604525     1.007825032230

  Basis Set: AUG-CC-PVTZ
    Blend: AUG-CC-PVTZ
  Basis Set: (AUG-CC-PVTZ AUX)
    Blend: AUG-CC-PVTZ-JKFIT
	 Reference Energy          =    -417.7441417881701682 [Eh]
	 Singles Energy            =      -0.0000000000000000 [Eh]
	 Same-Spin Energy          =      -0.4577581767387137 [Eh]
	 Opposite-Spin Energy      =      -1.4471643000728063 [Eh]
	 Correlation Energy        =      -1.9049224768115200 [Eh]
	 Total Energy              =    -419.6490642649816891 [Eh]

	 ================> DF-SCS-MP2 Energies <==================
	-----------------------------------------------------------
	 SCS Same-Spin Scale       =       0.3333333333333333 [-]
	 SCS Opposite-Spin Scale   =       1.2000000000000000 [-]
	 SCS Same-Spin Energy      =      -0.1525860589129046 [Eh]
	 SCS Opposite-Spin Energy  =      -1.7365971600873675 [Eh]
	 SCS Correlation Energy    =      -1.8891832190002722 [Eh]
	 SCS Total Energy          =    -419.6333250071704128 [Eh]
	-----------------------------------------------------------

  Dipole Moment: [D]
     X:    -2.0006      Y:    -0.5770      Z:     0.0830     Total:     2.0838

*** Psi4 exiting successfully. Buy a developer a beer!
