                               Psi4 1.4a3.dev225

  ==> Input File <==

--------------------------------------------------------------------------
#psi4
#
memory 32 gb

molecule  {
0 1
  N        0.1723510    -0.9422650    -0.0110160
  N       -0.2210270     1.4224780    -0.0033780
  C        2.0395230     0.5887340     0.0077330
  C        2.9514110    -0.3582210    -0.7410450
  C        2.9437130    -0.3688660     0.7522200
  C        0.5840210     0.3414150    -0.0010850
  C       -2.0855860    -0.1066610    -0.0107410
  C       -1.1516460    -1.1458400    -0.0150190
  C       -1.4623082     1.3631371    -0.0069844
  C       -3.5664500    -0.3550010     0.0190800
  H        2.3036370     1.6413390     0.0163460
  H        3.8028480     0.0735720    -1.2571040
  H        2.4662660    -1.1861320    -1.2466910
  H        2.4535620    -1.2039700     1.2409480
  H        3.7897520     0.0554290     1.2831630
  H       -1.4774160    -2.1870700    -0.0286840
  H       -2.1879510     2.0569620    -0.0148810
  H       -3.8167460    -1.2890820    -0.4911310
  H       -4.1087150     0.4576500    -0.4717300
  H       -3.9321000    -0.4275930     1.0483980
units angstrom
no_reorient  #important for SAPT in psi4, default
symmetry c1  #important for SAPT in psi4, default
}

set PROPERTIES_ORIGIN ["COM"]
properties('MP2/aug-cc-pvtz', properties = ['dipole'])
--------------------------------------------------------------------------

    Molecular point group: c1
  Charge       = 0
  Multiplicity = 1
  Basis Set: AUG-CC-PVTZ
    Blend: AUG-CC-PVTZ
  Basis Set: (AUG-CC-PVTZ AUX)
    Blend: AUG-CC-PVTZ-JKFIT

    Orbital Energies [Eh]
    ---------------------

    Doubly Occupied:

       1A    -15.563696     2A    -15.560975     3A    -11.317728
       4A    -11.300458     5A    -11.275997     6A    -11.253450
       7A    -11.234702     8A    -11.232445     9A    -11.226162
      10A    -11.225474    11A     -1.310710    12A     -1.202561
      13A     -1.144982    14A     -1.065575    15A     -0.972030
      16A     -0.894963    17A     -0.858500    18A     -0.818811
      19A     -0.799907    20A     -0.725041    21A     -0.706468
      22A     -0.643486    23A     -0.620157    24A     -0.600510
      25A     -0.592328    26A     -0.582543    27A     -0.561525
      28A     -0.549560    29A     -0.522118    30A     -0.511840
      31A     -0.459962    32A     -0.435671    33A     -0.427857
      34A     -0.426301    35A     -0.383218    36A     -0.313090

  @DF-RHF Final Energy:  -417.73906197649359

   => Energetics <=

    Nuclear Repulsion Energy =            491.9683841807912472
    One-Electron Energy =               -1540.7732936071831773
    Two-Electron Energy =                 631.0658474498984560
    Total Energy =                       -417.7390619764935309
  Basis Set: (AUG-CC-PVTZ AUX)
    Blend: AUG-CC-PVTZ-RI
    Molecular point group: c1

    Geometry (in Angstrom), charge = 0, multiplicity = 1:

       Center              X                  Y                   Z               Mass
    ------------   -----------------  -----------------  -----------------  -----------------
         N            0.160133875828    -0.973619943313    -0.010475983902    14.003074004430
         N           -0.233244124172     1.391123056687    -0.002837983902    14.003074004430
         C            2.027305875828     0.557379056687     0.008273016098    12.000000000000
         C            2.939193875828    -0.389575943313    -0.740504983902    12.000000000000
         C            2.931495875828    -0.400220943313     0.752760016098    12.000000000000
         C            0.571803875828     0.310060056687    -0.000544983902    12.000000000000
         C           -2.097803124172    -0.138015943313    -0.010200983902    12.000000000000
         C           -1.163863124172    -1.177194943313    -0.014478983902    12.000000000000
         C           -1.474525324172     1.331782156687    -0.006444383902    12.000000000000
         C           -3.578667124172    -0.386355943313     0.019620016098    12.000000000000
         H            2.291419875828     1.609984056687     0.016886016098     1.007825032230
         H            3.790630875828     0.042217056687    -1.256563983902     1.007825032230
         H            2.454048875828    -1.217486943313    -1.246150983902     1.007825032230
         H            2.441344875828    -1.235324943313     1.241488016098     1.007825032230
         H            3.777534875828     0.024074056687     1.283703016098     1.007825032230
         H           -1.489633124172    -2.218424943313    -0.028143983902     1.007825032230
         H           -2.200168124172     2.025607056687    -0.014340983902     1.007825032230
         H           -3.828963124172    -1.320436943313    -0.490590983902     1.007825032230
         H           -4.120932124172     0.426295056687    -0.471189983902     1.007825032230
         H           -3.944317124172    -0.458947943313     1.048938016098     1.007825032230

  Basis Set: AUG-CC-PVTZ
    Blend: AUG-CC-PVTZ
  Basis Set: (AUG-CC-PVTZ AUX)
    Blend: AUG-CC-PVTZ-JKFIT
	 Reference Energy          =    -417.7390619764935877 [Eh]
	 Singles Energy            =      -0.0000000000000000 [Eh]
	 Same-Spin Energy          =      -0.4575382993523357 [Eh]
	 Opposite-Spin Energy      =      -1.4487981531691632 [Eh]
	 Correlation Energy        =      -1.9063364525214990 [Eh]
	 Total Energy              =    -419.6453984290150743 [Eh]

	 ================> DF-SCS-MP2 Energies <==================
	-----------------------------------------------------------
	 SCS Same-Spin Scale       =       0.3333333333333333 [-]
	 SCS Opposite-Spin Scale   =       1.2000000000000000 [-]
	 SCS Same-Spin Energy      =      -0.1525127664507785 [Eh]
	 SCS Opposite-Spin Energy  =      -1.7385577838029957 [Eh]
	 SCS Correlation Energy    =      -1.8910705502537744 [Eh]
	 SCS Total Energy          =    -419.6301325267473885 [Eh]
	-----------------------------------------------------------

  Dipole Moment: [D]
     X:    -2.0133      Y:    -0.1161      Z:     0.0536     Total:     2.0173

*** Psi4 exiting successfully. Buy a developer a beer!
