                               Psi4 1.4a3.dev225

  ==> Input File <==

--------------------------------------------------------------------------
#psi4
#
memory 32 gb

molecule  {
0 1
  N        0.1723510    -0.9422650    -0.0110160
  N       -0.2254766     1.4454667    -0.0035212
  C        2.0395230     0.5887340     0.0077330
  C        2.9514110    -0.3582210    -0.7410450
  C        2.9437130    -0.3688660     0.7522200
  C        0.5840210     0.3414150    -0.0010850
  C       -2.0855860    -0.1066610    -0.0107410
  C       -1.1516460    -1.1458400    -0.0150190
  C       -1.5403890     1.1790090    -0.0074550
  C       -3.5664500    -0.3550010     0.0190800
  H        2.3036370     1.6413390     0.0163460
  H        3.8028480     0.0735720    -1.2571040
  H        2.4662660    -1.1861320    -1.2466910
  H        2.4535620    -1.2039700     1.2409480
  H        3.7897520     0.0554290     1.2831630
  H       -1.4774160    -2.1870700    -0.0286840
  H       -2.1879510     2.0569620    -0.0148810
  H       -3.8167460    -1.2890820    -0.4911310
  H       -4.1087150     0.4576500    -0.4717300
  H       -3.9321000    -0.4275930     1.0483980
units angstrom
no_reorient  #important for SAPT in psi4, default
symmetry c1  #important for SAPT in psi4, default
}

set PROPERTIES_ORIGIN ["COM"]
properties('MP2/aug-cc-pvtz', properties = ['dipole'])
--------------------------------------------------------------------------

    Molecular point group: c1
  Charge       = 0
  Multiplicity = 1
  Basis Set: AUG-CC-PVTZ
    Blend: AUG-CC-PVTZ
  Basis Set: (AUG-CC-PVTZ AUX)
    Blend: AUG-CC-PVTZ-JKFIT

    Orbital Energies [Eh]
    ---------------------

    Doubly Occupied:

       1A    -15.567227     2A    -15.564859     3A    -11.316601
       4A    -11.292193     5A    -11.290037     6A    -11.245371
       7A    -11.238081     8A    -11.232048     9A    -11.226453
      10A    -11.225771    11A     -1.298649    12A     -1.182327
      13A     -1.147530    14A     -1.087203    15A     -0.966249
      16A     -0.889795    17A     -0.875708    18A     -0.819146
      19A     -0.795572    20A     -0.715538    21A     -0.692805
      22A     -0.646261    23A     -0.612909    24A     -0.597824
      25A     -0.591660    26A     -0.580996    27A     -0.556995
      28A     -0.555016    29A     -0.522929    30A     -0.511458
      31A     -0.473630    32A     -0.434521    33A     -0.424709
      34A     -0.414938    35A     -0.404565    36A     -0.333243

  @DF-RHF Final Energy:  -417.77783320022809

   => Energetics <=

    Nuclear Repulsion Energy =            492.9627667809073728
    One-Electron Energy =               -1542.8195679231810118
    Two-Electron Energy =                 632.0789679420454377
    Total Energy =                       -417.7778332002280877
  Basis Set: (AUG-CC-PVTZ AUX)
    Blend: AUG-CC-PVTZ-RI
    Molecular point group: c1

    Geometry (in Angstrom), charge = 0, multiplicity = 1:

       Center              X                  Y                   Z               Mass
    ------------   -----------------  -----------------  -----------------  -----------------
         N            0.167586477998    -0.959542058367    -0.010418912085    14.003074004430
         N           -0.230241122002     1.428189641633    -0.002924112085    14.003074004430
         C            2.034758477998     0.571456941633     0.008330087915    12.000000000000
         C            2.946646477998    -0.375498058367    -0.740447912085    12.000000000000
         C            2.938948477998    -0.386143058367     0.752817087915    12.000000000000
         C            0.579256477998     0.324137941633    -0.000487912085    12.000000000000
         C           -2.090350522002    -0.123938058367    -0.010143912085    12.000000000000
         C           -1.156410522002    -1.163117058367    -0.014421912085    12.000000000000
         C           -1.545153522002     1.161731941633    -0.006857912085    12.000000000000
         C           -3.571214522002    -0.372278058367     0.019677087915    12.000000000000
         H            2.298872477998     1.624061941633     0.016943087915     1.007825032230
         H            3.798083477998     0.056294941633    -1.256506912085     1.007825032230
         H            2.461501477998    -1.203409058367    -1.246093912085     1.007825032230
         H            2.448797477998    -1.221247058367     1.241545087915     1.007825032230
         H            3.784987477998     0.038151941633     1.283760087915     1.007825032230
         H           -1.482180522002    -2.204347058367    -0.028086912085     1.007825032230
         H           -2.192715522002     2.039684941633    -0.014283912085     1.007825032230
         H           -3.821510522002    -1.306359058367    -0.490533912085     1.007825032230
         H           -4.113479522002     0.440372941633    -0.471132912085     1.007825032230
         H           -3.936864522002    -0.444870058367     1.048995087915     1.007825032230

  Basis Set: AUG-CC-PVTZ
    Blend: AUG-CC-PVTZ
  Basis Set: (AUG-CC-PVTZ AUX)
    Blend: AUG-CC-PVTZ-JKFIT
	 Reference Energy          =    -417.7778332002280877 [Eh]
	 Singles Energy            =      -0.0000000000000000 [Eh]
	 Same-Spin Energy          =      -0.4578853209887170 [Eh]
	 Opposite-Spin Energy      =      -1.4481897845918619 [Eh]
	 Correlation Energy        =      -1.9060751055805789 [Eh]
	 Total Energy              =    -419.6839083058086430 [Eh]

	 ================> DF-SCS-MP2 Energies <==================
	-----------------------------------------------------------
	 SCS Same-Spin Scale       =       0.3333333333333333 [-]
	 SCS Opposite-Spin Scale   =       1.2000000000000000 [-]
	 SCS Same-Spin Energy      =      -0.1526284403295723 [Eh]
	 SCS Opposite-Spin Energy  =      -1.7378277415102341 [Eh]
	 SCS Correlation Energy    =      -1.8904561818398065 [Eh]
	 SCS Total Energy          =    -419.6682893820678828 [Eh]
	-----------------------------------------------------------

  Dipole Moment: [D]
     X:    -2.0159      Y:    -0.6125      Z:     0.0461     Total:     2.1074

*** Psi4 exiting successfully. Buy a developer a beer!
