                               Psi4 1.4a3.dev225

  ==> Input File <==

--------------------------------------------------------------------------
#psi4
#
memory 32 gb

molecule  {
0 1
  N        0.1723510    -0.9422650    -0.0110160
  N       -0.2210270     1.4224780    -0.0033780
  C        2.0395230     0.5887340     0.0077330
  C        2.9514110    -0.3582210    -0.7410450
  C        2.9437130    -0.3688660     0.7522200
  C        0.5840210     0.3414150    -0.0010850
  C       -2.0855860    -0.1066610    -0.0107410
  C       -1.1516460    -1.1458400    -0.0150190
  C       -1.5403890     1.1790090    -0.0074550
  C       -3.5664500    -0.3550010     0.0190800
  H        2.3036370     1.6413390     0.0163460
  H        3.8028480     0.0735720    -1.2571040
  H        2.4662660    -1.1861320    -1.2466910
  H        2.4535620    -1.2039700     1.2409480
  H        3.7897520     0.0554290     1.2831630
  H       -1.4774160    -2.1870700    -0.0286840
  H       -2.1879510     2.0569620    -0.0148810
  H       -3.8167460    -1.2890820    -0.4911310
  H       -4.0095189     0.3089924    -0.3819465
  H       -3.9321000    -0.4275930     1.0483980
units angstrom
no_reorient  #important for SAPT in psi4, default
symmetry c1  #important for SAPT in psi4, default
}

set PROPERTIES_ORIGIN ["COM"]
properties('MP2/aug-cc-pvtz', properties = ['dipole'])
--------------------------------------------------------------------------

    Molecular point group: c1
  Charge       = 0
  Multiplicity = 1
  Basis Set: AUG-CC-PVTZ
    Blend: AUG-CC-PVTZ
  Basis Set: (AUG-CC-PVTZ AUX)
    Blend: AUG-CC-PVTZ-JKFIT

    Orbital Energies [Eh]
    ---------------------

    Doubly Occupied:

       1A    -15.563705     2A    -15.563495     3A    -11.313056
       4A    -11.290918     5A    -11.290064     6A    -11.244408
       7A    -11.231029     8A    -11.225583     9A    -11.224902
      10A    -11.213687    11A     -1.301255    12A     -1.182122
      13A     -1.147018    14A     -1.093132    15A     -0.983138
      16A     -0.893466    17A     -0.880197    18A     -0.818386
      19A     -0.796931    20A     -0.717731    21A     -0.694418
      22A     -0.648759    23A     -0.617654    24A     -0.611619
      25A     -0.591809    26A     -0.584268    27A     -0.572178
      28A     -0.556884    29A     -0.523126    30A     -0.510870
      31A     -0.471419    32A     -0.433990    33A     -0.423968
      34A     -0.413857    35A     -0.402472    36A     -0.334146

  @DF-RHF Final Energy:  -417.74547796605640

   => Energetics <=

    Nuclear Repulsion Energy =            494.5300300531585549
    One-Electron Energy =               -1545.8196995344903826
    Two-Electron Energy =                 633.5441915152755428
    Total Energy =                       -417.7454779660563418
  Basis Set: (AUG-CC-PVTZ AUX)
    Blend: AUG-CC-PVTZ-RI
    Molecular point group: c1

    Geometry (in Angstrom), charge = 0, multiplicity = 1:

       Center              X                  Y                   Z               Mass
    ------------   -----------------  -----------------  -----------------  -----------------
         N            0.166376192590    -0.956023876359    -0.011108711198    14.003074004430
         N           -0.227001807410     1.408719123641    -0.003470711198    14.003074004430
         C            2.033548192590     0.574975123641     0.007640288802    12.000000000000
         C            2.945436192590    -0.371979876359    -0.741137711198    12.000000000000
         C            2.937738192590    -0.382624876359     0.752127288802    12.000000000000
         C            0.578046192590     0.327656123641    -0.001177711198    12.000000000000
         C           -2.091560807410    -0.120419876359    -0.010833711198    12.000000000000
         C           -1.157620807410    -1.159598876359    -0.015111711198    12.000000000000
         C           -1.546363807410     1.165250123641    -0.007547711198    12.000000000000
         C           -3.572424807410    -0.368759876359     0.018987288802    12.000000000000
         H            2.297662192590     1.627580123641     0.016253288802     1.007825032230
         H            3.796873192590     0.059813123641    -1.257196711198     1.007825032230
         H            2.460291192590    -1.199890876359    -1.246783711198     1.007825032230
         H            2.447587192590    -1.217728876359     1.240855288802     1.007825032230
         H            3.783777192590     0.041670123641     1.283070288802     1.007825032230
         H           -1.483390807410    -2.200828876359    -0.028776711198     1.007825032230
         H           -2.193925807410     2.043203123641    -0.014973711198     1.007825032230
         H           -3.822720807410    -1.302840876359    -0.491223711198     1.007825032230
         H           -4.015493707410     0.295233523641    -0.382039211198     1.007825032230
         H           -3.938074807410    -0.441351876359     1.048305288802     1.007825032230

  Basis Set: AUG-CC-PVTZ
    Blend: AUG-CC-PVTZ
  Basis Set: (AUG-CC-PVTZ AUX)
    Blend: AUG-CC-PVTZ-JKFIT
	 Reference Energy          =    -417.7454779660563986 [Eh]
	 Singles Energy            =      -0.0000000000000000 [Eh]
	 Same-Spin Energy          =      -0.4578106455669428 [Eh]
	 Opposite-Spin Energy      =      -1.4469425210828413 [Eh]
	 Correlation Energy        =      -1.9047531666497841 [Eh]
	 Total Energy              =    -419.6502311327062102 [Eh]

	 ================> DF-SCS-MP2 Energies <==================
	-----------------------------------------------------------
	 SCS Same-Spin Scale       =       0.3333333333333333 [-]
	 SCS Opposite-Spin Scale   =       1.2000000000000000 [-]
	 SCS Same-Spin Energy      =      -0.1526035485223143 [Eh]
	 SCS Opposite-Spin Energy  =      -1.7363310252994095 [Eh]
	 SCS Correlation Energy    =      -1.8889345738217238 [Eh]
	 SCS Total Energy          =    -419.6344125398780989 [Eh]
	-----------------------------------------------------------

  Dipole Moment: [D]
     X:    -2.1118      Y:    -0.5453      Z:     0.0285     Total:     2.1813

*** Psi4 exiting successfully. Buy a developer a beer!
