                               Psi4 1.4a3.dev225

  ==> Input File <==

--------------------------------------------------------------------------
#psi4
#
memory 32 gb

molecule  {
0 1
  N        0.1723510    -0.9422650    -0.0110160
  N       -0.2210270     1.4224780    -0.0033780
  C        2.0395230     0.5887340     0.0077330
  C        2.9514110    -0.3582210    -0.7410450
  C        2.9437130    -0.3688660     0.7522200
  C        0.5840210     0.3414150    -0.0010850
  C       -2.0855860    -0.1066610    -0.0107410
  C       -1.1516460    -1.1458400    -0.0150190
  C       -1.5403890     1.1790090    -0.0074550
  C       -3.5664500    -0.3550010     0.0190800
  H        2.3036370     1.6413390     0.0163460
  H        3.8028480     0.0735720    -1.2571040
  H        2.4662660    -1.1861320    -1.2466910
  H        2.4535620    -1.2039700     1.2409480
  H        3.7897520     0.0554290     1.2831630
  H       -1.4774160    -2.1870700    -0.0286840
  H       -2.1582725     2.0167244    -0.0145407
  H       -3.8167460    -1.2890820    -0.4911310
  H       -4.1087150     0.4576500    -0.4717300
  H       -3.9321000    -0.4275930     1.0483980
units angstrom
no_reorient  #important for SAPT in psi4, default
symmetry c1  #important for SAPT in psi4, default
}

set PROPERTIES_ORIGIN ["COM"]
properties('MP2/aug-cc-pvtz', properties = ['dipole'])
--------------------------------------------------------------------------

    Molecular point group: c1
  Charge       = 0
  Multiplicity = 1
  Basis Set: AUG-CC-PVTZ
    Blend: AUG-CC-PVTZ
  Basis Set: (AUG-CC-PVTZ AUX)
    Blend: AUG-CC-PVTZ-JKFIT

    Orbital Energies [Eh]
    ---------------------

    Doubly Occupied:

       1A    -15.563858     2A    -15.563570     3A    -11.313103
       4A    -11.291516     5A    -11.284535     6A    -11.245152
       7A    -11.238242     8A    -11.231130     9A    -11.225712
      10A    -11.225031    11A     -1.301485    12A     -1.182698
      13A     -1.147018    14A     -1.088399    15A     -0.967590
      16A     -0.894551    17A     -0.874691    18A     -0.818511
      19A     -0.799151    20A     -0.716031    21A     -0.696924
      22A     -0.647323    23A     -0.613863    24A     -0.598336
      25A     -0.593082    26A     -0.586717    27A     -0.558181
      28A     -0.555065    29A     -0.523611    30A     -0.510954
      31A     -0.471567    32A     -0.433973    33A     -0.424142
      34A     -0.414011    35A     -0.402996    36A     -0.334121

  @DF-RHF Final Energy:  -417.77887846689822

   => Energetics <=

    Nuclear Repulsion Energy =            493.8164617967854610
    One-Electron Energy =               -1544.5170051893810523
    Two-Electron Energy =                 632.9216649256973142
    Total Energy =                       -417.7788784668982771
  Basis Set: (AUG-CC-PVTZ AUX)
    Blend: AUG-CC-PVTZ-RI
    Molecular point group: c1

    Geometry (in Angstrom), charge = 0, multiplicity = 1:

       Center              X                  Y                   Z               Mass
    ------------   -----------------  -----------------  -----------------  -----------------
         N            0.166898711081    -0.956838798835    -0.010436424958    14.003074004430
         N           -0.226479288919     1.407904201165    -0.002798424958    14.003074004430
         C            2.034070711081     0.574160201165     0.008312575042    12.000000000000
         C            2.945958711081    -0.372794798835    -0.740465424958    12.000000000000
         C            2.938260711081    -0.383439798835     0.752799575042    12.000000000000
         C            0.578568711081     0.326841201165    -0.000505424958    12.000000000000
         C           -2.091038288919    -0.121234798835    -0.010161424958    12.000000000000
         C           -1.157098288919    -1.160413798835    -0.014439424958    12.000000000000
         C           -1.545841288919     1.164435201165    -0.006875424958    12.000000000000
         C           -3.571902288919    -0.369574798835     0.019659575042    12.000000000000
         H            2.298184711081     1.626765201165     0.016925575042     1.007825032230
         H            3.797395711081     0.058998201165    -1.256524424958     1.007825032230
         H            2.460813711081    -1.200705798835    -1.246111424958     1.007825032230
         H            2.448109711081    -1.218543798835     1.241527575042     1.007825032230
         H            3.784299711081     0.040855201165     1.283742575042     1.007825032230
         H           -1.482868288919    -2.201643798835    -0.028104424958     1.007825032230
         H           -2.163724788919     2.002150601165    -0.013961124958     1.007825032230
         H           -3.822198288919    -1.303655798835    -0.490551424958     1.007825032230
         H           -4.114167288919     0.443076201165    -0.471150424958     1.007825032230
         H           -3.937552288919    -0.442166798835     1.048977575042     1.007825032230

  Basis Set: AUG-CC-PVTZ
    Blend: AUG-CC-PVTZ
  Basis Set: (AUG-CC-PVTZ AUX)
    Blend: AUG-CC-PVTZ-JKFIT
	 Reference Energy          =    -417.7788784668982203 [Eh]
	 Singles Energy            =      -0.0000000000000000 [Eh]
	 Same-Spin Energy          =      -0.4575876007644989 [Eh]
	 Opposite-Spin Energy      =      -1.4471805207760737 [Eh]
	 Correlation Energy        =      -1.9047681215405727 [Eh]
	 Total Energy              =    -419.6836465884388190 [Eh]

	 ================> DF-SCS-MP2 Energies <==================
	-----------------------------------------------------------
	 SCS Same-Spin Scale       =       0.3333333333333333 [-]
	 SCS Opposite-Spin Scale   =       1.2000000000000000 [-]
	 SCS Same-Spin Energy      =      -0.1525292002548330 [Eh]
	 SCS Opposite-Spin Energy  =      -1.7366166249312884 [Eh]
	 SCS Correlation Energy    =      -1.8891458251861215 [Eh]
	 SCS Total Energy          =    -419.6680242920843398 [Eh]
	-----------------------------------------------------------

  Dipole Moment: [D]
     X:    -2.0695      Y:    -0.5627      Z:     0.0461     Total:     2.1451

*** Psi4 exiting successfully. Buy a developer a beer!
