                               Psi4 1.4a3.dev225

  ==> Input File <==

--------------------------------------------------------------------------
#psi4
#
memory 32 gb

molecule  {
0 1
  N        0.1723510    -0.9422650    -0.0110160
  N       -0.2210270     1.4224780    -0.0033780
  C        2.0395230     0.5887340     0.0077330
  C        2.9514110    -0.3582210    -0.7410450
  C        2.9437130    -0.3688660     0.7522200
  C        0.5840210     0.3414150    -0.0010850
  C       -2.0855860    -0.1066610    -0.0107410
  C       -1.1516460    -1.1458400    -0.0150190
  C       -1.5895586     1.1699355    -0.0076069
  C       -3.5664500    -0.3550010     0.0190800
  H        2.3036370     1.6413390     0.0163460
  H        3.8028480     0.0735720    -1.2571040
  H        2.4662660    -1.1861320    -1.2466910
  H        2.4535620    -1.2039700     1.2409480
  H        3.7897520     0.0554290     1.2831630
  H       -1.4774160    -2.1870700    -0.0286840
  H       -2.1879510     2.0569620    -0.0148810
  H       -3.8167460    -1.2890820    -0.4911310
  H       -4.1087150     0.4576500    -0.4717300
  H       -3.9321000    -0.4275930     1.0483980
units angstrom
no_reorient  #important for SAPT in psi4, default
symmetry c1  #important for SAPT in psi4, default
}

set PROPERTIES_ORIGIN ["COM"]
properties('MP2/aug-cc-pvtz', properties = ['dipole'])
--------------------------------------------------------------------------

    Molecular point group: c1
  Charge       = 0
  Multiplicity = 1
  Basis Set: AUG-CC-PVTZ
    Blend: AUG-CC-PVTZ
  Basis Set: (AUG-CC-PVTZ AUX)
    Blend: AUG-CC-PVTZ-JKFIT

    Orbital Energies [Eh]
    ---------------------

    Doubly Occupied:

       1A    -15.565461     2A    -15.564982     3A    -11.311726
       4A    -11.295373     5A    -11.289074     6A    -11.245014
       7A    -11.237969     8A    -11.230641     9A    -11.225242
      10A    -11.224562    11A     -1.296110    12A     -1.172291
      13A     -1.147204    14A     -1.092755    15A     -0.965501
      16A     -0.895607    17A     -0.873849    18A     -0.818142
      19A     -0.796128    20A     -0.715723    21A     -0.692240
      22A     -0.647238    23A     -0.613729    24A     -0.598446
      25A     -0.590741    26A     -0.586624    27A     -0.555888
      28A     -0.555635    29A     -0.523455    30A     -0.510301
      31A     -0.468924    32A     -0.434628    33A     -0.423188
      34A     -0.406913    35A     -0.404502    36A     -0.338658

  @DF-RHF Final Energy:  -417.77503075399011

   => Energetics <=

    Nuclear Repulsion Energy =            493.0649705847576456
    One-Electron Energy =               -1543.0510728797125921
    Two-Electron Energy =                 632.2110715409647810
    Total Energy =                       -417.7750307539901087
  Basis Set: (AUG-CC-PVTZ AUX)
    Blend: AUG-CC-PVTZ-RI
    Molecular point group: c1

    Geometry (in Angstrom), charge = 0, multiplicity = 1:

       Center              X                  Y                   Z               Mass
    ------------   -----------------  -----------------  -----------------  -----------------
         N            0.171522261195    -0.956329197865    -0.010420272722    14.003074004430
         N           -0.221855738805     1.408413802135    -0.002782272722    14.003074004430
         C            2.038694261195     0.574669802135     0.008328727278    12.000000000000
         C            2.950582261195    -0.372285197865    -0.740449272722    12.000000000000
         C            2.942884261195    -0.382930197865     0.752815727278    12.000000000000
         C            0.583192261195     0.327350802135    -0.000489272722    12.000000000000
         C           -2.086414738805    -0.120725197865    -0.010145272722    12.000000000000
         C           -1.152474738805    -1.159904197865    -0.014423272722    12.000000000000
         C           -1.590387338805     1.155871302135    -0.007011172722    12.000000000000
         C           -3.567278738805    -0.369065197865     0.019675727278    12.000000000000
         H            2.302808261195     1.627274802135     0.016941727278     1.007825032230
         H            3.802019261195     0.059507802135    -1.256508272722     1.007825032230
         H            2.465437261195    -1.200196197865    -1.246095272722     1.007825032230
         H            2.452733261195    -1.218034197865     1.241543727278     1.007825032230
         H            3.788923261195     0.041364802135     1.283758727278     1.007825032230
         H           -1.478244738805    -2.201134197865    -0.028088272722     1.007825032230
         H           -2.188779738805     2.042897802135    -0.014285272722     1.007825032230
         H           -3.817574738805    -1.303146197865    -0.490535272722     1.007825032230
         H           -4.109543738805     0.443585802135    -0.471134272722     1.007825032230
         H           -3.932928738805    -0.441657197865     1.048993727278     1.007825032230

  Basis Set: AUG-CC-PVTZ
    Blend: AUG-CC-PVTZ
  Basis Set: (AUG-CC-PVTZ AUX)
    Blend: AUG-CC-PVTZ-JKFIT
	 Reference Energy          =    -417.7750307539901087 [Eh]
	 Singles Energy            =      -0.0000000000000000 [Eh]
	 Same-Spin Energy          =      -0.4579706255098205 [Eh]
	 Opposite-Spin Energy      =      -1.4487209969602082 [Eh]
	 Correlation Energy        =      -1.9066916224700288 [Eh]
	 Total Energy              =    -419.6817223764601295 [Eh]

	 ================> DF-SCS-MP2 Energies <==================
	-----------------------------------------------------------
	 SCS Same-Spin Scale       =       0.3333333333333333 [-]
	 SCS Opposite-Spin Scale   =       1.2000000000000000 [-]
	 SCS Same-Spin Energy      =      -0.1526568751699402 [Eh]
	 SCS Opposite-Spin Energy  =      -1.7384651963522497 [Eh]
	 SCS Correlation Energy    =      -1.8911220715221899 [Eh]
	 SCS Total Energy          =    -419.6661528255123130 [Eh]
	-----------------------------------------------------------

  Dipole Moment: [D]
     X:    -2.0910      Y:    -0.6028      Z:     0.0446     Total:     2.1766

*** Psi4 exiting successfully. Buy a developer a beer!
