                               Psi4 1.4a3.dev225

  ==> Input File <==

--------------------------------------------------------------------------
#psi4
#
memory 32 gb

molecule  {
0 1
  N        0.1723510    -0.9422650    -0.0110160
  N       -0.2210270     1.4224780    -0.0033780
  C        2.0395230     0.5887340     0.0077330
  C        2.9514110    -0.3582210    -0.7410450
  C        2.9437130    -0.3688660     0.7522200
  C        0.5840210     0.3414150    -0.0010850
  C       -2.0855860    -0.1066610    -0.0107410
  C       -1.1516460    -1.1458400    -0.0150190
  C       -1.5794294     1.0869449    -0.0076903
  C       -3.5664500    -0.3550010     0.0190800
  H        2.3036370     1.6413390     0.0163460
  H        3.8028480     0.0735720    -1.2571040
  H        2.4662660    -1.1861320    -1.2466910
  H        2.4535620    -1.2039700     1.2409480
  H        3.7897520     0.0554290     1.2831630
  H       -1.4774160    -2.1870700    -0.0286840
  H       -2.1879510     2.0569620    -0.0148810
  H       -3.8167460    -1.2890820    -0.4911310
  H       -4.1087150     0.4576500    -0.4717300
  H       -3.9321000    -0.4275930     1.0483980
units angstrom
no_reorient  #important for SAPT in psi4, default
symmetry c1  #important for SAPT in psi4, default
}

set PROPERTIES_ORIGIN ["COM"]
properties('MP2/aug-cc-pvtz', properties = ['dipole'])
--------------------------------------------------------------------------

    Molecular point group: c1
  Charge       = 0
  Multiplicity = 1
  Basis Set: AUG-CC-PVTZ
    Blend: AUG-CC-PVTZ
  Basis Set: (AUG-CC-PVTZ AUX)
    Blend: AUG-CC-PVTZ-JKFIT

    Orbital Energies [Eh]
    ---------------------

    Doubly Occupied:

       1A    -15.566746     2A    -15.564427     3A    -11.311636
       4A    -11.300023     5A    -11.282384     6A    -11.239444
       7A    -11.236776     8A    -11.230897     9A    -11.225793
      10A    -11.225115    11A     -1.300322    12A     -1.171414
      13A     -1.149951    14A     -1.102935    15A     -0.966637
      16A     -0.897403    17A     -0.879289    18A     -0.818680
      19A     -0.790404    20A     -0.717779    21A     -0.692467
      22A     -0.645697    23A     -0.615335    24A     -0.602509
      25A     -0.592676    26A     -0.562074    27A     -0.557644
      28A     -0.556671    29A     -0.523297    30A     -0.511113
      31A     -0.472956    32A     -0.437930    33A     -0.422632
      34A     -0.408276    35A     -0.407345    36A     -0.346973

  @DF-RHF Final Energy:  -417.76512059953654

   => Energetics <=

    Nuclear Repulsion Energy =            494.5035294007403195
    One-Electron Energy =               -1545.8699992826780090
    Two-Electron Energy =                 633.6013492824012019
    Total Energy =                       -417.7651205995365444
  Basis Set: (AUG-CC-PVTZ AUX)
    Blend: AUG-CC-PVTZ-RI
    Molecular point group: c1

    Geometry (in Angstrom), charge = 0, multiplicity = 1:

       Center              X                  Y                   Z               Mass
    ------------   -----------------  -----------------  -----------------  -----------------
         N            0.170615739620    -0.948901881843    -0.010412808766    14.003074004430
         N           -0.222762260380     1.415841118157    -0.002774808766    14.003074004430
         C            2.037787739620     0.582097118157     0.008336191234    12.000000000000
         C            2.949675739620    -0.364857881843    -0.740441808766    12.000000000000
         C            2.941977739620    -0.375502881843     0.752823191234    12.000000000000
         C            0.582285739620     0.334778118157    -0.000481808766    12.000000000000
         C           -2.087321260380    -0.113297881843    -0.010137808766    12.000000000000
         C           -1.153381260380    -1.152476881843    -0.014415808766    12.000000000000
         C           -1.581164660380     1.080308018157    -0.007087108766    12.000000000000
         C           -3.568185260380    -0.361637881843     0.019683191234    12.000000000000
         H            2.301901739620     1.634702118157     0.016949191234     1.007825032230
         H            3.801112739620     0.066935118157    -1.256500808766     1.007825032230
         H            2.464530739620    -1.192768881843    -1.246087808766     1.007825032230
         H            2.451826739620    -1.210606881843     1.241551191234     1.007825032230
         H            3.788016739620     0.048792118157     1.283766191234     1.007825032230
         H           -1.479151260380    -2.193706881843    -0.028080808766     1.007825032230
         H           -2.189686260380     2.050325118157    -0.014277808766     1.007825032230
         H           -3.818481260380    -1.295718881843    -0.490527808766     1.007825032230
         H           -4.110450260380     0.451013118157    -0.471126808766     1.007825032230
         H           -3.933835260380    -0.434229881843     1.049001191234     1.007825032230

  Basis Set: AUG-CC-PVTZ
    Blend: AUG-CC-PVTZ
  Basis Set: (AUG-CC-PVTZ AUX)
    Blend: AUG-CC-PVTZ-JKFIT
	 Reference Energy          =    -417.7651205995365444 [Eh]
	 Singles Energy            =      -0.0000000000000000 [Eh]
	 Same-Spin Energy          =      -0.4576629883247424 [Eh]
	 Opposite-Spin Energy      =      -1.4486741728314194 [Eh]
	 Correlation Energy        =      -1.9063371611561619 [Eh]
	 Total Energy              =    -419.6714577606927037 [Eh]

	 ================> DF-SCS-MP2 Energies <==================
	-----------------------------------------------------------
	 SCS Same-Spin Scale       =       0.3333333333333333 [-]
	 SCS Opposite-Spin Scale   =       1.2000000000000000 [-]
	 SCS Same-Spin Energy      =      -0.1525543294415808 [Eh]
	 SCS Opposite-Spin Energy  =      -1.7384090073977032 [Eh]
	 SCS Correlation Energy    =      -1.8909633368392840 [Eh]
	 SCS Total Energy          =    -419.6560839363758078 [Eh]
	-----------------------------------------------------------

  Dipole Moment: [D]
     X:    -1.9854      Y:    -0.7534      Z:     0.0429     Total:     2.1239

*** Psi4 exiting successfully. Buy a developer a beer!
