                               Psi4 1.4a3.dev225

  ==> Input File <==

--------------------------------------------------------------------------
#psi4
#
memory 32 gb

molecule  {
0 1
  N        0.1723510    -0.9422650    -0.0110160
  N       -0.2210270     1.4224780    -0.0033780
  C        2.0395230     0.5887340     0.0077330
  C        2.9634657    -0.3707392    -0.7509434
  C        2.9437130    -0.3688660     0.7522200
  C        0.5840210     0.3414150    -0.0010850
  C       -2.0855860    -0.1066610    -0.0107410
  C       -1.1516460    -1.1458400    -0.0150190
  C       -1.5403890     1.1790090    -0.0074550
  C       -3.5664500    -0.3550010     0.0190800
  H        2.3036370     1.6413390     0.0163460
  H        3.8028480     0.0735720    -1.2571040
  H        2.4662660    -1.1861320    -1.2466910
  H        2.4535620    -1.2039700     1.2409480
  H        3.7897520     0.0554290     1.2831630
  H       -1.4774160    -2.1870700    -0.0286840
  H       -2.1879510     2.0569620    -0.0148810
  H       -3.8167460    -1.2890820    -0.4911310
  H       -4.1087150     0.4576500    -0.4717300
  H       -3.9321000    -0.4275930     1.0483980
units angstrom
no_reorient  #important for SAPT in psi4, default
symmetry c1  #important for SAPT in psi4, default
}

set PROPERTIES_ORIGIN ["COM"]
properties('MP2/aug-cc-pvtz', properties = ['dipole'])
--------------------------------------------------------------------------

    Molecular point group: c1
  Charge       = 0
  Multiplicity = 1
  Basis Set: AUG-CC-PVTZ
    Blend: AUG-CC-PVTZ
  Basis Set: (AUG-CC-PVTZ AUX)
    Blend: AUG-CC-PVTZ-JKFIT

    Orbital Energies [Eh]
    ---------------------

    Doubly Occupied:

       1A    -15.563955     2A    -15.563917     3A    -11.313536
       4A    -11.291815     5A    -11.290335     6A    -11.245516
       7A    -11.238094     8A    -11.232161     9A    -11.226914
      10A    -11.225758    11A     -1.301582    12A     -1.182426
      13A     -1.143096    14A     -1.087436    15A     -0.966947
      16A     -0.891303    17A     -0.874758    18A     -0.820440
      19A     -0.796368    20A     -0.715534    21A     -0.694234
      22A     -0.645684    23A     -0.612165    24A     -0.598288
      25A     -0.591567    26A     -0.582347    27A     -0.558357
      28A     -0.554995    29A     -0.525296    30A     -0.514395
      31A     -0.471637    32A     -0.433071    33A     -0.422173
      34A     -0.414262    35A     -0.402689    36A     -0.333655

  @DF-RHF Final Energy:  -417.77921079314387

   => Energetics <=

    Nuclear Repulsion Energy =            493.1662138605854011
    One-Electron Energy =               -1543.2374380807648322
    Two-Electron Energy =                 632.2920134270354993
    Total Energy =                       -417.7792107931438750
  Basis Set: (AUG-CC-PVTZ AUX)
    Blend: AUG-CC-PVTZ-RI
    Molecular point group: c1

    Geometry (in Angstrom), charge = 0, multiplicity = 1:

       Center              X                  Y                   Z               Mass
    ------------   -----------------  -----------------  -----------------  -----------------
         N            0.166042939148    -0.956020911439    -0.009548001217    14.003074004430
         N           -0.227335060852     1.408722088561    -0.001910001217    14.003074004430
         C            2.033214939148     0.574978088561     0.009200998783    12.000000000000
         C            2.957157639148    -0.384495111439    -0.749475401217    12.000000000000
         C            2.937404939148    -0.382621911439     0.753687998783    12.000000000000
         C            0.577712939148     0.327659088561     0.000382998783    12.000000000000
         C           -2.091894060852    -0.120416911439    -0.009273001217    12.000000000000
         C           -1.157954060852    -1.159595911439    -0.013551001217    12.000000000000
         C           -1.546697060852     1.165253088561    -0.005987001217    12.000000000000
         C           -3.572758060852    -0.368756911439     0.020547998783    12.000000000000
         H            2.297328939148     1.627583088561     0.017813998783     1.007825032230
         H            3.796539939148     0.059816088561    -1.255636001217     1.007825032230
         H            2.459957939148    -1.199887911439    -1.245223001217     1.007825032230
         H            2.447253939148    -1.217725911439     1.242415998783     1.007825032230
         H            3.783443939148     0.041673088561     1.284630998783     1.007825032230
         H           -1.483724060852    -2.200825911439    -0.027216001217     1.007825032230
         H           -2.194259060852     2.043206088561    -0.013413001217     1.007825032230
         H           -3.823054060852    -1.302837911439    -0.489663001217     1.007825032230
         H           -4.115023060852     0.443894088561    -0.470262001217     1.007825032230
         H           -3.938408060852    -0.441348911439     1.049865998783     1.007825032230

  Basis Set: AUG-CC-PVTZ
    Blend: AUG-CC-PVTZ
  Basis Set: (AUG-CC-PVTZ AUX)
    Blend: AUG-CC-PVTZ-JKFIT
	 Reference Energy          =    -417.7792107931438750 [Eh]
	 Singles Energy            =      -0.0000000000000000 [Eh]
	 Same-Spin Energy          =      -0.4576541487798328 [Eh]
	 Opposite-Spin Energy      =      -1.4476536173719761 [Eh]
	 Correlation Energy        =      -1.9053077661518087 [Eh]
	 Total Energy              =    -419.6845185592956682 [Eh]

	 ================> DF-SCS-MP2 Energies <==================
	-----------------------------------------------------------
	 SCS Same-Spin Scale       =       0.3333333333333333 [-]
	 SCS Opposite-Spin Scale   =       1.2000000000000000 [-]
	 SCS Same-Spin Energy      =      -0.1525513829266109 [Eh]
	 SCS Opposite-Spin Energy  =      -1.7371843408463712 [Eh]
	 SCS Correlation Energy    =      -1.8897357237729822 [Eh]
	 SCS Total Energy          =    -419.6689465169168329 [Eh]
	-----------------------------------------------------------

  Dipole Moment: [D]
     X:    -2.0424      Y:    -0.5686      Z:     0.0569     Total:     2.1209

*** Psi4 exiting successfully. Buy a developer a beer!
