                               Psi4 1.4a3.dev225

  ==> Input File <==

--------------------------------------------------------------------------
#psi4
#
memory 32 gb

molecule  {
0 1
  N        0.1723510    -0.9422650    -0.0110160
  N       -0.2210270     1.4224780    -0.0033780
  C        2.0395230     0.5887340     0.0077330
  C        2.9514110    -0.3582210    -0.7410450
  C        2.9437130    -0.3688660     0.7522200
  C        0.5840210     0.3414150    -0.0010850
  C       -2.0855860    -0.1066610    -0.0107410
  C       -1.1516460    -1.1458400    -0.0150190
  C       -1.4420498     1.1971561    -0.0071511
  C       -3.5664500    -0.3550010     0.0190800
  H        2.3036370     1.6413390     0.0163460
  H        3.8028480     0.0735720    -1.2571040
  H        2.4662660    -1.1861320    -1.2466910
  H        2.4535620    -1.2039700     1.2409480
  H        3.7897520     0.0554290     1.2831630
  H       -1.4774160    -2.1870700    -0.0286840
  H       -2.1879510     2.0569620    -0.0148810
  H       -3.8167460    -1.2890820    -0.4911310
  H       -4.1087150     0.4576500    -0.4717300
  H       -3.9321000    -0.4275930     1.0483980
units angstrom
no_reorient  #important for SAPT in psi4, default
symmetry c1  #important for SAPT in psi4, default
}

set PROPERTIES_ORIGIN ["COM"]
properties('MP2/aug-cc-pvtz', properties = ['dipole'])
--------------------------------------------------------------------------

    Molecular point group: c1
  Charge       = 0
  Multiplicity = 1
  Basis Set: AUG-CC-PVTZ
    Blend: AUG-CC-PVTZ
  Basis Set: (AUG-CC-PVTZ AUX)
    Blend: AUG-CC-PVTZ-JKFIT

    Orbital Energies [Eh]
    ---------------------

    Doubly Occupied:

       1A    -15.561951     2A    -15.560802     3A    -11.317700
       4A    -11.291287     5A    -11.284538     6A    -11.246678
       7A    -11.238309     8A    -11.233069     9A    -11.227384
      10A    -11.226700    11A     -1.320476    12A     -1.203635
      13A     -1.147590    14A     -1.078674    15A     -0.970931
      16A     -0.889753    17A     -0.868626    18A     -0.819948
      19A     -0.799365    20A     -0.718814    21A     -0.696879
      22A     -0.644737    23A     -0.612929    24A     -0.599923
      25A     -0.593225    26A     -0.577168    27A     -0.564583
      28A     -0.553128    29A     -0.522041    30A     -0.513216
      31A     -0.473528    32A     -0.436514    33A     -0.429094
      34A     -0.426544    35A     -0.395668    36A     -0.325949

  @DF-RHF Final Energy:  -417.76879572023455

   => Energetics <=

    Nuclear Repulsion Energy =            494.6553824774045438
    One-Electron Energy =               -1546.1056458986963662
    Two-Electron Energy =                 633.6814677010571586
    Total Energy =                       -417.7687957202346070
  Basis Set: (AUG-CC-PVTZ AUX)
    Blend: AUG-CC-PVTZ-RI
    Molecular point group: c1

    Geometry (in Angstrom), charge = 0, multiplicity = 1:

       Center              X                  Y                   Z               Mass
    ------------   -----------------  -----------------  -----------------  -----------------
         N            0.158320832677    -0.958765329168    -0.010461064940    14.003074004430
         N           -0.235057167323     1.405977670832    -0.002823064940    14.003074004430
         C            2.025492832677     0.572233670832     0.008287935060    12.000000000000
         C            2.937380832677    -0.374721329168    -0.740490064940    12.000000000000
         C            2.929682832677    -0.385366329168     0.752774935060    12.000000000000
         C            0.569990832677     0.324914670832    -0.000530064940    12.000000000000
         C           -2.099616167323    -0.123161329168    -0.010186064940    12.000000000000
         C           -1.165676167323    -1.162340329168    -0.014464064940    12.000000000000
         C           -1.456079967323     1.180655770832    -0.006596164940    12.000000000000
         C           -3.580480167323    -0.371501329168     0.019634935060    12.000000000000
         H            2.289606832677     1.624838670832     0.016900935060     1.007825032230
         H            3.788817832677     0.057071670832    -1.256549064940     1.007825032230
         H            2.452235832677    -1.202632329168    -1.246136064940     1.007825032230
         H            2.439531832677    -1.220470329168     1.241502935060     1.007825032230
         H            3.775721832677     0.038928670832     1.283717935060     1.007825032230
         H           -1.491446167323    -2.203570329168    -0.028129064940     1.007825032230
         H           -2.201981167323     2.040461670832    -0.014326064940     1.007825032230
         H           -3.830776167323    -1.305582329168    -0.490576064940     1.007825032230
         H           -4.122745167323     0.441149670832    -0.471175064940     1.007825032230
         H           -3.946130167323    -0.444093329168     1.048952935060     1.007825032230

  Basis Set: AUG-CC-PVTZ
    Blend: AUG-CC-PVTZ
  Basis Set: (AUG-CC-PVTZ AUX)
    Blend: AUG-CC-PVTZ-JKFIT
	 Reference Energy          =    -417.7687957202345501 [Eh]
	 Singles Energy            =      -0.0000000000000000 [Eh]
	 Same-Spin Energy          =      -0.4570178286009662 [Eh]
	 Opposite-Spin Energy      =      -1.4459941613651577 [Eh]
	 Correlation Energy        =      -1.9030119899661240 [Eh]
	 Total Energy              =    -419.6718077102006532 [Eh]

	 ================> DF-SCS-MP2 Energies <==================
	-----------------------------------------------------------
	 SCS Same-Spin Scale       =       0.3333333333333333 [-]
	 SCS Opposite-Spin Scale   =       1.2000000000000000 [-]
	 SCS Same-Spin Energy      =      -0.1523392762003221 [Eh]
	 SCS Opposite-Spin Energy  =      -1.7351929936381891 [Eh]
	 SCS Correlation Energy    =      -1.8875322698385111 [Eh]
	 SCS Total Energy          =    -419.6563279900730663 [Eh]
	-----------------------------------------------------------

  Dipole Moment: [D]
     X:    -1.8983      Y:    -0.5065      Z:     0.0497     Total:     1.9654

*** Psi4 exiting successfully. Buy a developer a beer!
