                               Psi4 1.4a3.dev225

  ==> Input File <==

--------------------------------------------------------------------------
#psi4
#
memory 32 gb

molecule  {
0 1
  N        0.1723510    -0.9422650    -0.0110160
  N       -0.2210270     1.4224780    -0.0033780
  C        2.0395230     0.5887340     0.0077330
  C        2.9514110    -0.3582210    -0.7410450
  C        2.9556662    -0.3815253     0.7620620
  C        0.5840210     0.3414150    -0.0010850
  C       -2.0855860    -0.1066610    -0.0107410
  C       -1.1516460    -1.1458400    -0.0150190
  C       -1.5403890     1.1790090    -0.0074550
  C       -3.5664500    -0.3550010     0.0190800
  H        2.3036370     1.6413390     0.0163460
  H        3.8028480     0.0735720    -1.2571040
  H        2.4662660    -1.1861320    -1.2466910
  H        2.4535620    -1.2039700     1.2409480
  H        3.7897520     0.0554290     1.2831630
  H       -1.4774160    -2.1870700    -0.0286840
  H       -2.1879510     2.0569620    -0.0148810
  H       -3.8167460    -1.2890820    -0.4911310
  H       -4.1087150     0.4576500    -0.4717300
  H       -3.9321000    -0.4275930     1.0483980
units angstrom
no_reorient  #important for SAPT in psi4, default
symmetry c1  #important for SAPT in psi4, default
}

set PROPERTIES_ORIGIN ["COM"]
properties('MP2/aug-cc-pvtz', properties = ['dipole'])
--------------------------------------------------------------------------

    Molecular point group: c1
  Charge       = 0
  Multiplicity = 1
  Basis Set: AUG-CC-PVTZ
    Blend: AUG-CC-PVTZ
  Basis Set: (AUG-CC-PVTZ AUX)
    Blend: AUG-CC-PVTZ-JKFIT

    Orbital Energies [Eh]
    ---------------------

    Doubly Occupied:

       1A    -15.563955     2A    -15.563917     3A    -11.313537
       4A    -11.291816     5A    -11.290335     6A    -11.245516
       7A    -11.238093     8A    -11.232163     9A    -11.226913
      10A    -11.225759    11A     -1.301582    12A     -1.182426
      13A     -1.143096    14A     -1.087436    15A     -0.966947
      16A     -0.891304    17A     -0.874757    18A     -0.820439
      19A     -0.796369    20A     -0.715534    21A     -0.694234
      22A     -0.645686    23A     -0.612164    24A     -0.598301
      25A     -0.591536    26A     -0.582352    27A     -0.558399
      28A     -0.554994    29A     -0.525187    30A     -0.514480
      31A     -0.471649    32A     -0.433071    33A     -0.422133
      34A     -0.414286    35A     -0.402682    36A     -0.333662

  @DF-RHF Final Energy:  -417.77921106336362

   => Energetics <=

    Nuclear Repulsion Energy =            493.1662920777068280
    One-Electron Energy =               -1543.2375882532865035
    Two-Electron Energy =                 632.2920851122160002
    Total Energy =                       -417.7792110633636185
  Basis Set: (AUG-CC-PVTZ AUX)
    Blend: AUG-CC-PVTZ-RI
    Molecular point group: c1

    Geometry (in Angstrom), charge = 0, multiplicity = 1:

       Center              X                  Y                   Z               Mass
    ------------   -----------------  -----------------  -----------------  -----------------
         N            0.166052022979    -0.956008283571    -0.011314685506    14.003074004430
         N           -0.227325977021     1.408734716429    -0.003676685506    14.003074004430
         C            2.033224022979     0.574990716429     0.007434314494    12.000000000000
         C            2.945112022979    -0.371964283571    -0.741343685506    12.000000000000
         C            2.949367222979    -0.395268583571     0.761763314494    12.000000000000
         C            0.577722022979     0.327671716429    -0.001383685506    12.000000000000
         C           -2.091884977021    -0.120404283571    -0.011039685506    12.000000000000
         C           -1.157944977021    -1.159583283571    -0.015317685506    12.000000000000
         C           -1.546687977021     1.165265716429    -0.007753685506    12.000000000000
         C           -3.572748977021    -0.368744283571     0.018781314494    12.000000000000
         H            2.297338022979     1.627595716429     0.016047314494     1.007825032230
         H            3.796549022979     0.059828716429    -1.257402685506     1.007825032230
         H            2.459967022979    -1.199875283571    -1.246989685506     1.007825032230
         H            2.447263022979    -1.217713283571     1.240649314494     1.007825032230
         H            3.783453022979     0.041685716429     1.282864314494     1.007825032230
         H           -1.483714977021    -2.200813283571    -0.028982685506     1.007825032230
         H           -2.194249977021     2.043218716429    -0.015179685506     1.007825032230
         H           -3.823044977021    -1.302825283571    -0.491429685506     1.007825032230
         H           -4.115013977021     0.443906716429    -0.472028685506     1.007825032230
         H           -3.938398977021    -0.441336283571     1.048099314494     1.007825032230

  Basis Set: AUG-CC-PVTZ
    Blend: AUG-CC-PVTZ
  Basis Set: (AUG-CC-PVTZ AUX)
    Blend: AUG-CC-PVTZ-JKFIT
	 Reference Energy          =    -417.7792110633636185 [Eh]
	 Singles Energy            =      -0.0000000000000000 [Eh]
	 Same-Spin Energy          =      -0.4576538626540537 [Eh]
	 Opposite-Spin Energy      =      -1.4476530137021346 [Eh]
	 Correlation Energy        =      -1.9053068763561882 [Eh]
	 Total Energy              =    -419.6845179397197967 [Eh]

	 ================> DF-SCS-MP2 Energies <==================
	-----------------------------------------------------------
	 SCS Same-Spin Scale       =       0.3333333333333333 [-]
	 SCS Opposite-Spin Scale   =       1.2000000000000000 [-]
	 SCS Same-Spin Energy      =      -0.1525512875513512 [Eh]
	 SCS Opposite-Spin Energy  =      -1.7371836164425616 [Eh]
	 SCS Correlation Energy    =      -1.8897349039939129 [Eh]
	 SCS Total Energy          =    -419.6689459673575584 [Eh]
	-----------------------------------------------------------

  Dipole Moment: [D]
     X:    -2.0424      Y:    -0.5685      Z:     0.0356     Total:     2.1203

*** Psi4 exiting successfully. Buy a developer a beer!
