                               Psi4 1.4a3.dev225

  ==> Input File <==

--------------------------------------------------------------------------
#psi4
#
memory 32 gb

molecule  {
0 1
  N        0.1723510    -0.9422650    -0.0110160
  N       -0.2210270     1.4224780    -0.0033780
  C        2.0395230     0.5887340     0.0077330
  C        2.9514110    -0.3582210    -0.7410450
  C        2.9437130    -0.3688660     0.7522200
  C        0.5840210     0.3414150    -0.0010850
  C       -2.0855860    -0.1066610    -0.0107410
  C       -1.1182240    -1.1830280    -0.0151721
  C       -1.5403890     1.1790090    -0.0074550
  C       -3.5664500    -0.3550010     0.0190800
  H        2.3036370     1.6413390     0.0163460
  H        3.8028480     0.0735720    -1.2571040
  H        2.4662660    -1.1861320    -1.2466910
  H        2.4535620    -1.2039700     1.2409480
  H        3.7897520     0.0554290     1.2831630
  H       -1.4774160    -2.1870700    -0.0286840
  H       -2.1879510     2.0569620    -0.0148810
  H       -3.8167460    -1.2890820    -0.4911310
  H       -4.1087150     0.4576500    -0.4717300
  H       -3.9321000    -0.4275930     1.0483980
units angstrom
no_reorient  #important for SAPT in psi4, default
symmetry c1  #important for SAPT in psi4, default
}

set PROPERTIES_ORIGIN ["COM"]
properties('MP2/aug-cc-pvtz', properties = ['dipole'])
--------------------------------------------------------------------------

    Molecular point group: c1
  Charge       = 0
  Multiplicity = 1
  Basis Set: AUG-CC-PVTZ
    Blend: AUG-CC-PVTZ
  Basis Set: (AUG-CC-PVTZ AUX)
    Blend: AUG-CC-PVTZ-JKFIT

    Orbital Energies [Eh]
    ---------------------

    Doubly Occupied:

       1A    -15.564110     2A    -15.563065     3A    -11.314569
       4A    -11.294889     5A    -11.286279     6A    -11.248859
       7A    -11.237478     8A    -11.231804     9A    -11.226148
      10A    -11.225466    11A     -1.303527    12A     -1.187470
      13A     -1.147184    14A     -1.081713    15A     -0.967537
      16A     -0.889587    17A     -0.872985    18A     -0.819008
      19A     -0.797197    20A     -0.719528    21A     -0.693729
      22A     -0.646919    23A     -0.613984    24A     -0.597584
      25A     -0.595484    26A     -0.583621    27A     -0.559144
      28A     -0.553341    29A     -0.524590    30A     -0.511333
      31A     -0.470169    32A     -0.433525    33A     -0.424185
      34A     -0.418430    35A     -0.399679    36A     -0.328486

  @DF-RHF Final Energy:  -417.77694150553930

   => Energetics <=

    Nuclear Repulsion Energy =            493.1770411538428220
    One-Electron Energy =               -1543.2427526682388361
    Two-Electron Energy =                 632.2887700088567726
    Total Energy =                       -417.7769415055392983
  Basis Set: (AUG-CC-PVTZ AUX)
    Blend: AUG-CC-PVTZ-RI
    Molecular point group: c1

    Geometry (in Angstrom), charge = 0, multiplicity = 1:

       Center              X                  Y                   Z               Mass
    ------------   -----------------  -----------------  -----------------  -----------------
         N            0.164130654026    -0.953813066203    -0.010420165327    14.003074004430
         N           -0.229247345974     1.410929933797    -0.002782165327    14.003074004430
         C            2.031302654026     0.577185933797     0.008328834673    12.000000000000
         C            2.943190654026    -0.369769066203    -0.740449165327    12.000000000000
         C            2.935492654026    -0.380414066203     0.752815834673    12.000000000000
         C            0.575800654026     0.329866933797    -0.000489165327    12.000000000000
         C           -2.093806345974    -0.118209066203    -0.010145165327    12.000000000000
         C           -1.126444345974    -1.194576066203    -0.014576265327    12.000000000000
         C           -1.548609345974     1.167460933797    -0.006859165327    12.000000000000
         C           -3.574670345974    -0.366549066203     0.019675834673    12.000000000000
         H            2.295416654026     1.629790933797     0.016941834673     1.007825032230
         H            3.794627654026     0.062023933797    -1.256508165327     1.007825032230
         H            2.458045654026    -1.197680066203    -1.246095165327     1.007825032230
         H            2.445341654026    -1.215518066203     1.241543834673     1.007825032230
         H            3.781531654026     0.043880933797     1.283758834673     1.007825032230
         H           -1.485636345974    -2.198618066203    -0.028088165327     1.007825032230
         H           -2.196171345974     2.045413933797    -0.014285165327     1.007825032230
         H           -3.824966345974    -1.300630066203    -0.490535165327     1.007825032230
         H           -4.116935345974     0.446101933797    -0.471134165327     1.007825032230
         H           -3.940320345974    -0.439141066203     1.048993834673     1.007825032230

  Basis Set: AUG-CC-PVTZ
    Blend: AUG-CC-PVTZ
  Basis Set: (AUG-CC-PVTZ AUX)
    Blend: AUG-CC-PVTZ-JKFIT
	 Reference Energy          =    -417.7769415055392983 [Eh]
	 Singles Energy            =      -0.0000000000000000 [Eh]
	 Same-Spin Energy          =      -0.4575917465572937 [Eh]
	 Opposite-Spin Energy      =      -1.4473702539847000 [Eh]
	 Correlation Energy        =      -1.9049620005419938 [Eh]
	 Total Energy              =    -419.6819035060813121 [Eh]

	 ================> DF-SCS-MP2 Energies <==================
	-----------------------------------------------------------
	 SCS Same-Spin Scale       =       0.3333333333333333 [-]
	 SCS Opposite-Spin Scale   =       1.2000000000000000 [-]
	 SCS Same-Spin Energy      =      -0.1525305821857646 [Eh]
	 SCS Opposite-Spin Energy  =      -1.7368443047816400 [Eh]
	 SCS Correlation Energy    =      -1.8893748869674045 [Eh]
	 SCS Total Energy          =    -419.6663163925067010 [Eh]
	-----------------------------------------------------------

  Dipole Moment: [D]
     X:    -2.0290      Y:    -0.6685      Z:     0.0472     Total:     2.1369

*** Psi4 exiting successfully. Buy a developer a beer!
