                               Psi4 1.4a3.dev225

  ==> Input File <==

--------------------------------------------------------------------------
#psi4
#
memory 32 gb

molecule  {
0 1
  N        0.1723510    -0.9422650    -0.0110160
  N       -0.2210270     1.4224780    -0.0033780
  C        2.0395230     0.5887340     0.0077330
  C        2.9393563    -0.3457028    -0.7311466
  C        2.9437130    -0.3688660     0.7522200
  C        0.5840210     0.3414150    -0.0010850
  C       -2.0855860    -0.1066610    -0.0107410
  C       -1.1516460    -1.1458400    -0.0150190
  C       -1.5403890     1.1790090    -0.0074550
  C       -3.5664500    -0.3550010     0.0190800
  H        2.3036370     1.6413390     0.0163460
  H        3.8028480     0.0735720    -1.2571040
  H        2.4662660    -1.1861320    -1.2466910
  H        2.4535620    -1.2039700     1.2409480
  H        3.7897520     0.0554290     1.2831630
  H       -1.4774160    -2.1870700    -0.0286840
  H       -2.1879510     2.0569620    -0.0148810
  H       -3.8167460    -1.2890820    -0.4911310
  H       -4.1087150     0.4576500    -0.4717300
  H       -3.9321000    -0.4275930     1.0483980
units angstrom
no_reorient  #important for SAPT in psi4, default
symmetry c1  #important for SAPT in psi4, default
}

set PROPERTIES_ORIGIN ["COM"]
properties('MP2/aug-cc-pvtz', properties = ['dipole'])
--------------------------------------------------------------------------

    Molecular point group: c1
  Charge       = 0
  Multiplicity = 1
  Basis Set: AUG-CC-PVTZ
    Blend: AUG-CC-PVTZ
  Basis Set: (AUG-CC-PVTZ AUX)
    Blend: AUG-CC-PVTZ-JKFIT

    Orbital Energies [Eh]
    ---------------------

    Doubly Occupied:

       1A    -15.564167     2A    -15.564114     3A    -11.313558
       4A    -11.291917     5A    -11.290414     6A    -11.245728
       7A    -11.238206     8A    -11.230493     9A    -11.225350
      10A    -11.224145    11A     -1.301892    12A     -1.182753
      13A     -1.151443    14A     -1.088773    15A     -0.967288
      16A     -0.891450    17A     -0.874734    18A     -0.817030
      19A     -0.796412    20A     -0.716150    21A     -0.695356
      22A     -0.646282    23A     -0.614978    24A     -0.598405
      25A     -0.591543    26A     -0.582623    27A     -0.558354
      28A     -0.555109    29A     -0.522477    30A     -0.506884
      31A     -0.472037    32A     -0.436940    33A     -0.424743
      34A     -0.414289    35A     -0.402829    36A     -0.335000

  @DF-RHF Final Energy:  -417.77912713605076

   => Energetics <=

    Nuclear Repulsion Energy =            493.9221636788005299
    One-Electron Energy =               -1544.7348472819869585
    Two-Electron Energy =                 633.0335564671357815
    Total Energy =                       -417.7791271360507608
  Basis Set: (AUG-CC-PVTZ AUX)
    Blend: AUG-CC-PVTZ-RI
    Molecular point group: c1

    Geometry (in Angstrom), charge = 0, multiplicity = 1:

       Center              X                  Y                   Z               Mass
    ------------   -----------------  -----------------  -----------------  -----------------
         N            0.168200630897    -0.958261565860    -0.011319733073    14.003074004430
         N           -0.225177369103     1.406481434140    -0.003681733073    14.003074004430
         C            2.035372630897     0.572737434140     0.007429266927    12.000000000000
         C            2.935205930897    -0.361699365860    -0.731450333073    12.000000000000
         C            2.939562630897    -0.384862565860     0.751916266927    12.000000000000
         C            0.579870630897     0.325418434140    -0.001388733073    12.000000000000
         C           -2.089736369103    -0.122657565860    -0.011044733073    12.000000000000
         C           -1.155796369103    -1.161836565860    -0.015322733073    12.000000000000
         C           -1.544539369103     1.163012434140    -0.007758733073    12.000000000000
         C           -3.570600369103    -0.370997565860     0.018776266927    12.000000000000
         H            2.299486630897     1.625342434140     0.016042266927     1.007825032230
         H            3.798697630897     0.057575434140    -1.257407733073     1.007825032230
         H            2.462115630897    -1.202128565860    -1.246994733073     1.007825032230
         H            2.449411630897    -1.219966565860     1.240644266927     1.007825032230
         H            3.785601630897     0.039432434140     1.282859266927     1.007825032230
         H           -1.481566369103    -2.203066565860    -0.028987733073     1.007825032230
         H           -2.192101369103     2.040965434140    -0.015184733073     1.007825032230
         H           -3.820896369103    -1.305078565860    -0.491434733073     1.007825032230
         H           -4.112865369103     0.441653434140    -0.472033733073     1.007825032230
         H           -3.936250369103    -0.443589565860     1.048094266927     1.007825032230

  Basis Set: AUG-CC-PVTZ
    Blend: AUG-CC-PVTZ
  Basis Set: (AUG-CC-PVTZ AUX)
    Blend: AUG-CC-PVTZ-JKFIT
	 Reference Energy          =    -417.7791271360507608 [Eh]
	 Singles Energy            =      -0.0000000000000000 [Eh]
	 Same-Spin Energy          =      -0.4577901826327054 [Eh]
	 Opposite-Spin Energy      =      -1.4474641002634463 [Eh]
	 Correlation Energy        =      -1.9052542828961516 [Eh]
	 Total Energy              =    -419.6843814189468844 [Eh]

	 ================> DF-SCS-MP2 Energies <==================
	-----------------------------------------------------------
	 SCS Same-Spin Scale       =       0.3333333333333333 [-]
	 SCS Opposite-Spin Scale   =       1.2000000000000000 [-]
	 SCS Same-Spin Energy      =      -0.1525967275442351 [Eh]
	 SCS Opposite-Spin Energy  =      -1.7369569203161355 [Eh]
	 SCS Correlation Energy    =      -1.8895536478603705 [Eh]
	 SCS Total Energy          =    -419.6686807839111566 [Eh]
	-----------------------------------------------------------

  Dipole Moment: [D]
     X:    -2.0539      Y:    -0.5768      Z:     0.0363     Total:     2.1336

*** Psi4 exiting successfully. Buy a developer a beer!
