                               Psi4 1.4a3.dev225

  ==> Input File <==

--------------------------------------------------------------------------
#psi4
#
memory 32 gb

molecule  {
0 1
  N        0.1723510    -0.9422650    -0.0110160
  N       -0.2210270     1.4224780    -0.0033780
  C        2.0395230     0.5887340     0.0077330
  C        2.9514110    -0.3582210    -0.7410450
  C        2.9437130    -0.3688660     0.7522200
  C        0.5840210     0.3414150    -0.0010850
  C       -2.0855860    -0.1066610    -0.0107410
  C       -1.1516460    -1.1458400    -0.0150190
  C       -1.5403890     1.1790090    -0.0074550
  C       -3.5664500    -0.3550010     0.0190800
  H        2.3036370     1.6413390     0.0163460
  H        3.8028480     0.0735720    -1.2571040
  H        2.4662660    -1.1861320    -1.2466910
  H        2.4535620    -1.2039700     1.2409480
  H        3.8287320     0.0749777     1.3076254
  H       -1.4774160    -2.1870700    -0.0286840
  H       -2.1879510     2.0569620    -0.0148810
  H       -3.8167460    -1.2890820    -0.4911310
  H       -4.1087150     0.4576500    -0.4717300
  H       -3.9321000    -0.4275930     1.0483980
units angstrom
no_reorient  #important for SAPT in psi4, default
symmetry c1  #important for SAPT in psi4, default
}

set PROPERTIES_ORIGIN ["COM"]
properties('MP2/aug-cc-pvtz', properties = ['dipole'])
--------------------------------------------------------------------------

    Molecular point group: c1
  Charge       = 0
  Multiplicity = 1
  Basis Set: AUG-CC-PVTZ
    Blend: AUG-CC-PVTZ
  Basis Set: (AUG-CC-PVTZ AUX)
    Blend: AUG-CC-PVTZ-JKFIT

    Orbital Energies [Eh]
    ---------------------

    Doubly Occupied:

       1A    -15.564290     2A    -15.564266     3A    -11.313762
       4A    -11.292053     5A    -11.290555     6A    -11.245830
       7A    -11.238285     8A    -11.231867     9A    -11.231069
      10A    -11.225902    11A     -1.301956    12A     -1.182791
      13A     -1.146944    14A     -1.088173    15A     -0.967095
      16A     -0.891569    17A     -0.874505    18A     -0.814684
      19A     -0.796045    20A     -0.715628    21A     -0.694937
      22A     -0.641935    23A     -0.613685    24A     -0.598413
      25A     -0.591707    26A     -0.582475    27A     -0.558024
      28A     -0.555193    29A     -0.522973    30A     -0.507084
      31A     -0.471907    32A     -0.434112    33A     -0.424484
      34A     -0.414476    35A     -0.402988    36A     -0.334517

  @DF-RHF Final Energy:  -417.77725094132245

   => Energetics <=

    Nuclear Repulsion Energy =            493.3025362047297335
    One-Electron Energy =               -1543.5072125093411159
    Two-Electron Energy =                 632.4274253632889895
    Total Energy =                       -417.7772509413224498
  Basis Set: (AUG-CC-PVTZ AUX)
    Blend: AUG-CC-PVTZ-RI
    Molecular point group: c1

    Geometry (in Angstrom), charge = 0, multiplicity = 1:

       Center              X                  Y                   Z               Mass
    ------------   -----------------  -----------------  -----------------  -----------------
         N            0.166828797768    -0.957288173487    -0.010617735062    14.003074004430
         N           -0.226549202232     1.407454826513    -0.002979735062    14.003074004430
         C            2.034000797768     0.573710826513     0.008131264938    12.000000000000
         C            2.945888797768    -0.373244173487    -0.740646735062    12.000000000000
         C            2.938190797768    -0.383889173487     0.752618264938    12.000000000000
         C            0.578498797768     0.326391826513    -0.000686735062    12.000000000000
         C           -2.091108202232    -0.121684173487    -0.010342735062    12.000000000000
         C           -1.157168202232    -1.160863173487    -0.014620735062    12.000000000000
         C           -1.545911202232     1.163985826513    -0.007056735062    12.000000000000
         C           -3.571972202232    -0.370024173487     0.019478264938    12.000000000000
         H            2.298114797768     1.626315826513     0.016744264938     1.007825032230
         H            3.797325797768     0.058548826513    -1.256705735062     1.007825032230
         H            2.460743797768    -1.201155173487    -1.246292735062     1.007825032230
         H            2.448039797768    -1.218993173487     1.241346264938     1.007825032230
         H            3.823209797768     0.059954526513     1.308023664938     1.007825032230
         H           -1.482938202232    -2.202093173487    -0.028285735062     1.007825032230
         H           -2.193473202232     2.041938826513    -0.014482735062     1.007825032230
         H           -3.822268202232    -1.304105173487    -0.490732735062     1.007825032230
         H           -4.114237202232     0.442626826513    -0.471331735062     1.007825032230
         H           -3.937622202232    -0.442616173487     1.048796264938     1.007825032230

  Basis Set: AUG-CC-PVTZ
    Blend: AUG-CC-PVTZ
  Basis Set: (AUG-CC-PVTZ AUX)
    Blend: AUG-CC-PVTZ-JKFIT
	 Reference Energy          =    -417.7772509413224498 [Eh]
	 Singles Energy            =      -0.0000000000000000 [Eh]
	 Same-Spin Energy          =      -0.4577330992644754 [Eh]
	 Opposite-Spin Energy      =      -1.4478642970528492 [Eh]
	 Correlation Energy        =      -1.9055973963173245 [Eh]
	 Total Energy              =    -419.6828483376397685 [Eh]

	 ================> DF-SCS-MP2 Energies <==================
	-----------------------------------------------------------
	 SCS Same-Spin Scale       =       0.3333333333333333 [-]
	 SCS Opposite-Spin Scale   =       1.2000000000000000 [-]
	 SCS Same-Spin Energy      =      -0.1525776997548251 [Eh]
	 SCS Opposite-Spin Energy  =      -1.7374371564634190 [Eh]
	 SCS Correlation Energy    =      -1.8900148562182442 [Eh]
	 SCS Total Energy          =    -419.6672657975407219 [Eh]
	-----------------------------------------------------------

  Dipole Moment: [D]
     X:    -2.0708      Y:    -0.5736      Z:     0.0292     Total:     2.1490

*** Psi4 exiting successfully. Buy a developer a beer!
