                               Psi4 1.4a3.dev225

  ==> Input File <==

--------------------------------------------------------------------------
#psi4
#
memory 32 gb

molecule  {
0 1
  N        0.1723510    -0.9422650    -0.0110160
  N       -0.2210270     1.4224780    -0.0033780
  C        2.0395230     0.5887340     0.0077330
  C        2.9514110    -0.3582210    -0.7410450
  C        2.9437130    -0.3688660     0.7522200
  C        0.5840210     0.3414150    -0.0010850
  C       -2.0855860    -0.1066610    -0.0107410
  C       -1.1516460    -1.1458400    -0.0150190
  C       -1.5403890     1.1790090    -0.0074550
  C       -3.5664500    -0.3550010     0.0190800
  H        2.3036370     1.6413390     0.0163460
  H        3.8028480     0.0735720    -1.2571040
  H        2.4662660    -1.1861320    -1.2466910
  H        2.4535620    -1.2039700     1.2409480
  H        3.7897520     0.0554290     1.2831630
  H       -1.4774160    -2.1870700    -0.0286840
  H       -2.1879510     2.0569620    -0.0148810
  H       -3.8167460    -1.2890820    -0.4911310
  H       -4.0987954     0.4427842    -0.4627517
  H       -3.9321000    -0.4275930     1.0483980
units angstrom
no_reorient  #important for SAPT in psi4, default
symmetry c1  #important for SAPT in psi4, default
}

set PROPERTIES_ORIGIN ["COM"]
properties('MP2/aug-cc-pvtz', properties = ['dipole'])
--------------------------------------------------------------------------

    Molecular point group: c1
  Charge       = 0
  Multiplicity = 1
  Basis Set: AUG-CC-PVTZ
    Blend: AUG-CC-PVTZ
  Basis Set: (AUG-CC-PVTZ AUX)
    Blend: AUG-CC-PVTZ-JKFIT

    Orbital Energies [Eh]
    ---------------------

    Doubly Occupied:

       1A    -15.564003     2A    -15.563940     3A    -11.313469
       4A    -11.291734     5A    -11.290318     6A    -11.245456
       7A    -11.235731     8A    -11.231285     9A    -11.225821
      10A    -11.225140    11A     -1.301659    12A     -1.182508
      13A     -1.147119    14A     -1.088403    15A     -0.968225
      16A     -0.891467    17A     -0.875245    18A     -0.818613
      19A     -0.796476    20A     -0.715934    21A     -0.694730
      22A     -0.646017    23A     -0.613578    24A     -0.599087
      25A     -0.591587    26A     -0.582663    27A     -0.559110
      28A     -0.556934    29A     -0.523435    30A     -0.511066
      31A     -0.471762    32A     -0.434130    33A     -0.424227
      34A     -0.414222    35A     -0.402718    36A     -0.334322

  @DF-RHF Final Energy:  -417.77958922765066

   => Energetics <=

    Nuclear Repulsion Energy =            493.6294492785232251
    One-Electron Energy =               -1544.1538070608664839
    Two-Electron Energy =                 632.7447685546926550
    Total Energy =                       -417.7795892276506038
  Basis Set: (AUG-CC-PVTZ AUX)
    Blend: AUG-CC-PVTZ-RI
    Molecular point group: c1

    Geometry (in Angstrom), charge = 0, multiplicity = 1:

       Center              X                  Y                   Z               Mass
    ------------   -----------------  -----------------  -----------------  -----------------
         N            0.167047225854    -0.957029502120    -0.010501351174    14.003074004430
         N           -0.226330774146     1.407713497880    -0.002863351174    14.003074004430
         C            2.034219225854     0.573969497880     0.008247648826    12.000000000000
         C            2.946107225854    -0.372985502120    -0.740530351174    12.000000000000
         C            2.938409225854    -0.383630502120     0.752734648826    12.000000000000
         C            0.578717225854     0.326650497880    -0.000570351174    12.000000000000
         C           -2.090889774146    -0.121425502120    -0.010226351174    12.000000000000
         C           -1.156949774146    -1.160604502120    -0.014504351174    12.000000000000
         C           -1.545692774146     1.164244497880    -0.006940351174    12.000000000000
         C           -3.571753774146    -0.369765502120     0.019594648826    12.000000000000
         H            2.298333225854     1.626574497880     0.016860648826     1.007825032230
         H            3.797544225854     0.058807497880    -1.256589351174     1.007825032230
         H            2.460962225854    -1.200896502120    -1.246176351174     1.007825032230
         H            2.448258225854    -1.218734502120     1.241462648826     1.007825032230
         H            3.784448225854     0.040664497880     1.283677648826     1.007825032230
         H           -1.482719774146    -2.201834502120    -0.028169351174     1.007825032230
         H           -2.193254774146     2.042197497880    -0.014366351174     1.007825032230
         H           -3.822049774146    -1.303846502120    -0.490616351174     1.007825032230
         H           -4.104099174146     0.428019697880    -0.462237051174     1.007825032230
         H           -3.937403774146    -0.442357502120     1.048912648826     1.007825032230

  Basis Set: AUG-CC-PVTZ
    Blend: AUG-CC-PVTZ
  Basis Set: (AUG-CC-PVTZ AUX)
    Blend: AUG-CC-PVTZ-JKFIT
	 Reference Energy          =    -417.7795892276506606 [Eh]
	 Singles Energy            =      -0.0000000000000000 [Eh]
	 Same-Spin Energy          =      -0.4577122309788686 [Eh]
	 Opposite-Spin Energy      =      -1.4474175973410883 [Eh]
	 Correlation Energy        =      -1.9051298283199569 [Eh]
	 Total Energy              =    -419.6847190559706178 [Eh]

	 ================> DF-SCS-MP2 Energies <==================
	-----------------------------------------------------------
	 SCS Same-Spin Scale       =       0.3333333333333333 [-]
	 SCS Opposite-Spin Scale   =       1.2000000000000000 [-]
	 SCS Same-Spin Energy      =      -0.1525707436596229 [Eh]
	 SCS Opposite-Spin Energy  =      -1.7369011168093060 [Eh]
	 SCS Correlation Energy    =      -1.8894718604689289 [Eh]
	 SCS Total Energy          =    -419.6690610881195767 [Eh]
	-----------------------------------------------------------

  Dipole Moment: [D]
     X:    -2.0562      Y:    -0.5690      Z:     0.0435     Total:     2.1339

*** Psi4 exiting successfully. Buy a developer a beer!
