                               Psi4 1.4a3.dev225

  ==> Input File <==

--------------------------------------------------------------------------
#psi4
#
memory 32 gb

molecule  {
0 1
  N        0.2628973    -0.9678595    -0.0103003
  N       -0.2210270     1.4224780    -0.0033780
  C        2.0395230     0.5887340     0.0077330
  C        2.9514110    -0.3582210    -0.7410450
  C        2.9437130    -0.3688660     0.7522200
  C        0.5840210     0.3414150    -0.0010850
  C       -2.0855860    -0.1066610    -0.0107410
  C       -1.1516460    -1.1458400    -0.0150190
  C       -1.5403890     1.1790090    -0.0074550
  C       -3.5664500    -0.3550010     0.0190800
  H        2.3036370     1.6413390     0.0163460
  H        3.8028480     0.0735720    -1.2571040
  H        2.4662660    -1.1861320    -1.2466910
  H        2.4535620    -1.2039700     1.2409480
  H        3.7897520     0.0554290     1.2831630
  H       -1.4774160    -2.1870700    -0.0286840
  H       -2.1879510     2.0569620    -0.0148810
  H       -3.8167460    -1.2890820    -0.4911310
  H       -4.1087150     0.4576500    -0.4717300
  H       -3.9321000    -0.4275930     1.0483980
units angstrom
no_reorient  #important for SAPT in psi4, default
symmetry c1  #important for SAPT in psi4, default
}

set PROPERTIES_ORIGIN ["COM"]
properties('MP2/aug-cc-pvtz', properties = ['dipole'])
--------------------------------------------------------------------------

    Molecular point group: c1
  Charge       = 0
  Multiplicity = 1
  Basis Set: AUG-CC-PVTZ
    Blend: AUG-CC-PVTZ
  Basis Set: (AUG-CC-PVTZ AUX)
    Blend: AUG-CC-PVTZ-JKFIT

    Orbital Energies [Eh]
    ---------------------

    Doubly Occupied:

       1A    -15.573569     2A    -15.566306     3A    -11.312054
       4A    -11.301411     5A    -11.296966     6A    -11.250096
       7A    -11.241041     8A    -11.226789     9A    -11.222885
      10A    -11.222220    11A     -1.293393    12A     -1.175895
      13A     -1.140681    14A     -1.091030    15A     -0.965148
      16A     -0.896793    17A     -0.872042    18A     -0.815985
      19A     -0.788912    20A     -0.710032    21A     -0.692689
      22A     -0.641181    23A     -0.610774    24A     -0.599163
      25A     -0.595168    26A     -0.578230    27A     -0.557362
      28A     -0.556201    29A     -0.518213    30A     -0.508470
      31A     -0.470450    32A     -0.431787    33A     -0.423811
      34A     -0.411642    35A     -0.405510    36A     -0.339125

  @DF-RHF Final Energy:  -417.76649585069021

   => Energetics <=

    Nuclear Repulsion Energy =            492.2914175366421432
    One-Electron Energy =               -1541.5097810325789851
    Two-Electron Energy =                 631.4518676452468071
    Total Energy =                       -417.7664958506901485
  Basis Set: (AUG-CC-PVTZ AUX)
    Blend: AUG-CC-PVTZ-RI
    Molecular point group: c1

    Geometry (in Angstrom), charge = 0, multiplicity = 1:

       Center              X                  Y                   Z               Mass
    ------------   -----------------  -----------------  -----------------  -----------------
         N            0.248211902532    -0.980062782794    -0.009792911113    14.003074004430
         N           -0.235712397468     1.410274717206    -0.002870611113    14.003074004430
         C            2.024837602532     0.576530717206     0.008240388887    12.000000000000
         C            2.936725602532    -0.370424282794    -0.740537611113    12.000000000000
         C            2.929027602532    -0.381069282794     0.752727388887    12.000000000000
         C            0.569335602532     0.329211717206    -0.000577611113    12.000000000000
         C           -2.100271397468    -0.118864282794    -0.010233611113    12.000000000000
         C           -1.166331397468    -1.158043282794    -0.014511611113    12.000000000000
         C           -1.555074397468     1.166805717206    -0.006947611113    12.000000000000
         C           -3.581135397468    -0.367204282794     0.019587388887    12.000000000000
         H            2.288951602532     1.629135717206     0.016853388887     1.007825032230
         H            3.788162602532     0.061368717206    -1.256596611113     1.007825032230
         H            2.451580602532    -1.198335282794    -1.246183611113     1.007825032230
         H            2.438876602532    -1.216173282794     1.241455388887     1.007825032230
         H            3.775066602532     0.043225717206     1.283670388887     1.007825032230
         H           -1.492101397468    -2.199273282794    -0.028176611113     1.007825032230
         H           -2.202636397468     2.044758717206    -0.014373611113     1.007825032230
         H           -3.831431397468    -1.301285282794    -0.490623611113     1.007825032230
         H           -4.123400397468     0.445446717206    -0.471222611113     1.007825032230
         H           -3.946785397468    -0.439796282794     1.048905388887     1.007825032230

  Basis Set: AUG-CC-PVTZ
    Blend: AUG-CC-PVTZ
  Basis Set: (AUG-CC-PVTZ AUX)
    Blend: AUG-CC-PVTZ-JKFIT
	 Reference Energy          =    -417.7664958506902053 [Eh]
	 Singles Energy            =      -0.0000000000000000 [Eh]
	 Same-Spin Energy          =      -0.4586829198337090 [Eh]
	 Opposite-Spin Energy      =      -1.4510258814042365 [Eh]
	 Correlation Energy        =      -1.9097088012379455 [Eh]
	 Total Energy              =    -419.6762046519281739 [Eh]

	 ================> DF-SCS-MP2 Energies <==================
	-----------------------------------------------------------
	 SCS Same-Spin Scale       =       0.3333333333333333 [-]
	 SCS Opposite-Spin Scale   =       1.2000000000000000 [-]
	 SCS Same-Spin Energy      =      -0.1528943066112363 [Eh]
	 SCS Opposite-Spin Energy  =      -1.7412310576850838 [Eh]
	 SCS Correlation Energy    =      -1.8941253642963201 [Eh]
	 SCS Total Energy          =    -419.6606212149865200 [Eh]
	-----------------------------------------------------------

  Dipole Moment: [D]
     X:    -2.3139      Y:    -0.5026      Z:     0.0439     Total:     2.3682

*** Psi4 exiting successfully. Buy a developer a beer!
