                               Psi4 1.4a3.dev225

  ==> Input File <==

--------------------------------------------------------------------------
#psi4
#
memory 32 gb

molecule  {
0 1
  N        0.1723510    -0.9422650    -0.0110160
  N       -0.2210270     1.4224780    -0.0033780
  C        2.0395230     0.5887340     0.0077330
  C        2.9514110    -0.3582210    -0.7410450
  C        2.9437130    -0.3688660     0.7522200
  C        0.5840210     0.3414150    -0.0010850
  C       -2.0855860    -0.1066610    -0.0107410
  C       -1.1516460    -1.1458400    -0.0150190
  C       -1.5403890     1.1790090    -0.0074550
  C       -3.5664500    -0.3550010     0.0190800
  H        2.3036370     1.6413390     0.0163460
  H        3.8028480     0.0735720    -1.2571040
  H        2.4662660    -1.1861320    -1.2466910
  H        2.4535620    -1.2039700     1.2409480
  H        3.7897520     0.0554290     1.2831630
  H       -1.4774160    -2.1870700    -0.0286840
  H       -2.1879510     2.0569620    -0.0148810
  H       -3.8004039    -1.2753912    -0.5227853
  H       -4.1087150     0.4576500    -0.4717300
  H       -3.9321000    -0.4275930     1.0483980
units angstrom
no_reorient  #important for SAPT in psi4, default
symmetry c1  #important for SAPT in psi4, default
}

set PROPERTIES_ORIGIN ["COM"]
properties('MP2/aug-cc-pvtz', properties = ['dipole'])
--------------------------------------------------------------------------

    Molecular point group: c1
  Charge       = 0
  Multiplicity = 1
  Basis Set: AUG-CC-PVTZ
    Blend: AUG-CC-PVTZ
  Basis Set: (AUG-CC-PVTZ AUX)
    Blend: AUG-CC-PVTZ-JKFIT

    Orbital Energies [Eh]
    ---------------------

    Doubly Occupied:

       1A    -15.563993     2A    -15.563945     3A    -11.313497
       4A    -11.291822     5A    -11.290199     6A    -11.245339
       7A    -11.238155     8A    -11.231303     9A    -11.225843
      10A    -11.225162    11A     -1.301669    12A     -1.182511
      13A     -1.147139    14A     -1.088204    15A     -0.967110
      16A     -0.891317    17A     -0.874480    18A     -0.818635
      19A     -0.796383    20A     -0.715798    21A     -0.694587
      22A     -0.645896    23A     -0.613284    24A     -0.600199
      25A     -0.591167    26A     -0.582189    27A     -0.559629
      28A     -0.553075    29A     -0.523421    30A     -0.511105
      31A     -0.471609    32A     -0.434220    33A     -0.424241
      34A     -0.414226    35A     -0.402650    36A     -0.334456

  @DF-RHF Final Energy:  -417.77941029068319

   => Energetics <=

    Nuclear Repulsion Energy =            493.5725843644774500
    One-Electron Energy =               -1544.0470703363600933
    Two-Electron Energy =                 632.6950756811993415
    Total Energy =                       -417.7794102906832450
  Basis Set: (AUG-CC-PVTZ AUX)
    Blend: AUG-CC-PVTZ-RI
    Molecular point group: c1

    Geometry (in Angstrom), charge = 0, multiplicity = 1:

       Center              X                  Y                   Z               Mass
    ------------   -----------------  -----------------  -----------------  -----------------
         N            0.166998952108    -0.957244143470    -0.010195942403    14.003074004430
         N           -0.226379047892     1.407498856530    -0.002557942403    14.003074004430
         C            2.034170952108     0.573754856530     0.008553057597    12.000000000000
         C            2.946058952108    -0.373200143470    -0.740224942403    12.000000000000
         C            2.938360952108    -0.383845143470     0.753040057597    12.000000000000
         C            0.578668952108     0.326435856530    -0.000264942403    12.000000000000
         C           -2.090938047892    -0.121640143470    -0.009920942403    12.000000000000
         C           -1.156998047892    -1.160819143470    -0.014198942403    12.000000000000
         C           -1.545741047892     1.164029856530    -0.006634942403    12.000000000000
         C           -3.571802047892    -0.369980143470     0.019900057597    12.000000000000
         H            2.298284952108     1.626359856530     0.017166057597     1.007825032230
         H            3.797495952108     0.058592856530    -1.256283942403     1.007825032230
         H            2.460913952108    -1.201111143470    -1.245870942403     1.007825032230
         H            2.448209952108    -1.218949143470     1.241768057597     1.007825032230
         H            3.784399952108     0.040449856530     1.283983057597     1.007825032230
         H           -1.482768047892    -2.202049143470    -0.027863942403     1.007825032230
         H           -2.193303047892     2.041982856530    -0.014060942403     1.007825032230
         H           -3.805755947892    -1.290370343470    -0.521965242403     1.007825032230
         H           -4.114067047892     0.442670856530    -0.470909942403     1.007825032230
         H           -3.937452047892    -0.442572143470     1.049218057597     1.007825032230

  Basis Set: AUG-CC-PVTZ
    Blend: AUG-CC-PVTZ
  Basis Set: (AUG-CC-PVTZ AUX)
    Blend: AUG-CC-PVTZ-JKFIT
	 Reference Energy          =    -417.7794102906831881 [Eh]
	 Singles Energy            =      -0.0000000000000000 [Eh]
	 Same-Spin Energy          =      -0.4577212744001962 [Eh]
	 Opposite-Spin Energy      =      -1.4475672903590158 [Eh]
	 Correlation Energy        =      -1.9052885647592119 [Eh]
	 Total Energy              =    -419.6846988554423774 [Eh]

	 ================> DF-SCS-MP2 Energies <==================
	-----------------------------------------------------------
	 SCS Same-Spin Scale       =       0.3333333333333333 [-]
	 SCS Opposite-Spin Scale   =       1.2000000000000000 [-]
	 SCS Same-Spin Energy      =      -0.1525737581333987 [Eh]
	 SCS Opposite-Spin Energy  =      -1.7370807484308188 [Eh]
	 SCS Correlation Energy    =      -1.8896545065642176 [Eh]
	 SCS Total Energy          =    -419.6690647972474153 [Eh]
	-----------------------------------------------------------

  Dipole Moment: [D]
     X:    -2.0446      Y:    -0.5650      Z:     0.0368     Total:     2.1216

*** Psi4 exiting successfully. Buy a developer a beer!
