                               Psi4 1.4a3.dev225

  ==> Input File <==

--------------------------------------------------------------------------
#psi4
#
memory 32 gb

molecule  {
0 1
  N        0.1723510    -0.9422650    -0.0110160
  N       -0.2210270     1.4224780    -0.0033780
  C        2.0395230     0.5887340     0.0077330
  C        2.9514110    -0.3582210    -0.7410450
  C        2.9437130    -0.3688660     0.7522200
  C        0.5840210     0.3414150    -0.0010850
  C       -2.0855860    -0.1066610    -0.0107410
  C       -1.1516460    -1.1458400    -0.0150190
  C       -1.5403890     1.1790090    -0.0074550
  C       -3.5664500    -0.3550010     0.0190800
  H        2.3036370     1.6413390     0.0163460
  H        3.8028480     0.0735720    -1.2571040
  H        2.4662660    -1.1861320    -1.2466910
  H        2.4535620    -1.2039700     1.2409480
  H        3.7897520     0.0554290     1.2831630
  H       -1.4774160    -2.1870700    -0.0286840
  H       -2.1879510     2.0569620    -0.0148810
  H       -3.7938540    -1.2036511    -0.4444672
  H       -4.1087150     0.4576500    -0.4717300
  H       -3.9321000    -0.4275930     1.0483980
units angstrom
no_reorient  #important for SAPT in psi4, default
symmetry c1  #important for SAPT in psi4, default
}

set PROPERTIES_ORIGIN ["COM"]
properties('MP2/aug-cc-pvtz', properties = ['dipole'])
--------------------------------------------------------------------------

    Molecular point group: c1
  Charge       = 0
  Multiplicity = 1
  Basis Set: AUG-CC-PVTZ
    Blend: AUG-CC-PVTZ
  Basis Set: (AUG-CC-PVTZ AUX)
    Blend: AUG-CC-PVTZ-JKFIT

    Orbital Energies [Eh]
    ---------------------

    Doubly Occupied:

       1A    -15.563795     2A    -15.563737     3A    -11.313238
       4A    -11.291651     5A    -11.289806     6A    -11.244897
       7A    -11.231147     8A    -11.225869     9A    -11.225704
      10A    -11.225023    11A     -1.301435    12A     -1.182279
      13A     -1.147054    14A     -1.089907    15A     -0.973775
      16A     -0.891142    17A     -0.878505    18A     -0.818502
      19A     -0.796413    20A     -0.715819    21A     -0.695844
      22A     -0.645689    23A     -0.615400    24A     -0.603431
      25A     -0.591136    26A     -0.583872    27A     -0.566857
      28A     -0.557076    29A     -0.523403    30A     -0.510968
      31A     -0.471518    32A     -0.434081    33A     -0.424095
      34A     -0.413997    35A     -0.402575    36A     -0.334210

  @DF-RHF Final Energy:  -417.77351082331847

   => Energetics <=

    Nuclear Repulsion Energy =            493.9983626441754154
    One-Electron Energy =               -1544.8560422530536016
    Two-Electron Energy =                 633.0841687855597684
    Total Energy =                       -417.7735108233184746
  Basis Set: (AUG-CC-PVTZ AUX)
    Blend: AUG-CC-PVTZ-RI
    Molecular point group: c1

    Geometry (in Angstrom), charge = 0, multiplicity = 1:

       Center              X                  Y                   Z               Mass
    ------------   -----------------  -----------------  -----------------  -----------------
         N            0.166949720778    -0.957783367045    -0.010784608516    14.003074004430
         N           -0.226428279222     1.406959632955    -0.003146608516    14.003074004430
         C            2.034121720778     0.573215632955     0.007964391484    12.000000000000
         C            2.946009720778    -0.373739367045    -0.740813608516    12.000000000000
         C            2.938311720778    -0.384384367045     0.752451391484    12.000000000000
         C            0.578619720778     0.325896632955    -0.000853608516    12.000000000000
         C           -2.090987279222    -0.122179367045    -0.010509608516    12.000000000000
         C           -1.157047279222    -1.161358367045    -0.014787608516    12.000000000000
         C           -1.545790279222     1.163490632955    -0.007223608516    12.000000000000
         C           -3.571851279222    -0.370519367045     0.019311391484    12.000000000000
         H            2.298235720778     1.625820632955     0.016577391484     1.007825032230
         H            3.797446720778     0.058053632955    -1.256872608516     1.007825032230
         H            2.460864720778    -1.201650367045    -1.246459608516     1.007825032230
         H            2.448160720778    -1.219488367045     1.241179391484     1.007825032230
         H            3.784350720778     0.039910632955     1.283394391484     1.007825032230
         H           -1.482817279222    -2.202588367045    -0.028452608516     1.007825032230
         H           -2.193352279222     2.041443632955    -0.014649608516     1.007825032230
         H           -3.799255279222    -1.219169467045    -0.444235808516     1.007825032230
         H           -4.114116279222     0.442131632955    -0.471498608516     1.007825032230
         H           -3.937501279222    -0.443111367045     1.048629391484     1.007825032230

  Basis Set: AUG-CC-PVTZ
    Blend: AUG-CC-PVTZ
  Basis Set: (AUG-CC-PVTZ AUX)
    Blend: AUG-CC-PVTZ-JKFIT
	 Reference Energy          =    -417.7735108233184746 [Eh]
	 Singles Energy            =      -0.0000000000000000 [Eh]
	 Same-Spin Energy          =      -0.4577359203696014 [Eh]
	 Opposite-Spin Energy      =      -1.4470687632959747 [Eh]
	 Correlation Energy        =      -1.9048046836655761 [Eh]
	 Total Energy              =    -419.6783155069840632 [Eh]

	 ================> DF-SCS-MP2 Energies <==================
	-----------------------------------------------------------
	 SCS Same-Spin Scale       =       0.3333333333333333 [-]
	 SCS Opposite-Spin Scale   =       1.2000000000000000 [-]
	 SCS Same-Spin Energy      =      -0.1525786401232005 [Eh]
	 SCS Opposite-Spin Energy  =      -1.7364825159551696 [Eh]
	 SCS Correlation Energy    =      -1.8890611560783701 [Eh]
	 SCS Total Energy          =    -419.6625719793968301 [Eh]
	-----------------------------------------------------------

  Dipole Moment: [D]
     X:    -2.0785      Y:    -0.6011      Z:     0.0340     Total:     2.1640

*** Psi4 exiting successfully. Buy a developer a beer!
