                               Psi4 1.4a3.dev225

  ==> Input File <==

--------------------------------------------------------------------------
#psi4
#
memory 32 gb

molecule  {
0 1
  N        0.1723510    -0.9422650    -0.0110160
  N       -0.2210270     1.4224780    -0.0033780
  C        2.0395230     0.5887340     0.0077330
  C        2.9514110    -0.3582210    -0.7410450
  C        2.9437130    -0.3688660     0.7522200
  C        0.5840210     0.3414150    -0.0010850
  C       -2.1739373    -0.0654977    -0.0116390
  C       -1.1516460    -1.1458400    -0.0150190
  C       -1.5403890     1.1790090    -0.0074550
  C       -3.5664500    -0.3550010     0.0190800
  H        2.3036370     1.6413390     0.0163460
  H        3.8028480     0.0735720    -1.2571040
  H        2.4662660    -1.1861320    -1.2466910
  H        2.4535620    -1.2039700     1.2409480
  H        3.7897520     0.0554290     1.2831630
  H       -1.4774160    -2.1870700    -0.0286840
  H       -2.1879510     2.0569620    -0.0148810
  H       -3.8167460    -1.2890820    -0.4911310
  H       -4.1087150     0.4576500    -0.4717300
  H       -3.9321000    -0.4275930     1.0483980
units angstrom
no_reorient  #important for SAPT in psi4, default
symmetry c1  #important for SAPT in psi4, default
}

set PROPERTIES_ORIGIN ["COM"]
properties('MP2/aug-cc-pvtz', properties = ['dipole'])
--------------------------------------------------------------------------

    Molecular point group: c1
  Charge       = 0
  Multiplicity = 1
  Basis Set: AUG-CC-PVTZ
    Blend: AUG-CC-PVTZ
  Basis Set: (AUG-CC-PVTZ AUX)
    Blend: AUG-CC-PVTZ-JKFIT

    Orbital Energies [Eh]
    ---------------------

    Doubly Occupied:

       1A    -15.567381     2A    -15.562333     3A    -11.314825
       4A    -11.303421     5A    -11.286259     6A    -11.251142
       7A    -11.235526     8A    -11.232012     9A    -11.226593
      10A    -11.225912    11A     -1.298896    12A     -1.181650
      13A     -1.146787    14A     -1.094881    15A     -0.974175
      16A     -0.884904    17A     -0.872719    18A     -0.819364
      19A     -0.793229    20A     -0.713165    21A     -0.693098
      22A     -0.645286    23A     -0.621167    24A     -0.606928
      25A     -0.602118    26A     -0.577137    27A     -0.558727
      28A     -0.545916    29A     -0.523590    30A     -0.511527
      31A     -0.478457    32A     -0.431523    33A     -0.424901
      34A     -0.414693    35A     -0.398178    36A     -0.327060

  @DF-RHF Final Energy:  -417.76555966102399

   => Energetics <=

    Nuclear Repulsion Energy =            492.5671174061980082
    One-Electron Energy =               -1541.9743871928851604
    Two-Electron Energy =                 631.6417101256632805
    Total Energy =                       -417.7655596610239854
  Basis Set: (AUG-CC-PVTZ AUX)
    Blend: AUG-CC-PVTZ-RI
    Molecular point group: c1

    Geometry (in Angstrom), charge = 0, multiplicity = 1:

       Center              X                  Y                   Z               Mass
    ------------   -----------------  -----------------  -----------------  -----------------
         N            0.175028861559    -0.960825184031    -0.010353499853    14.003074004430
         N           -0.218349138441     1.403917815969    -0.002715499853    14.003074004430
         C            2.042200861559     0.570173815969     0.008395500147    12.000000000000
         C            2.954088861559    -0.376781184031    -0.740382499853    12.000000000000
         C            2.946390861559    -0.387426184031     0.752882500147    12.000000000000
         C            0.586698861559     0.322854815969    -0.000422499853    12.000000000000
         C           -2.171259438441    -0.084057884031    -0.010976499853    12.000000000000
         C           -1.148968138441    -1.164400184031    -0.014356499853    12.000000000000
         C           -1.537711138441     1.160448815969    -0.006792499853    12.000000000000
         C           -3.563772138441    -0.373561184031     0.019742500147    12.000000000000
         H            2.306314861559     1.622778815969     0.017008500147     1.007825032230
         H            3.805525861559     0.055011815969    -1.256441499853     1.007825032230
         H            2.468943861559    -1.204692184031    -1.246028499853     1.007825032230
         H            2.456239861559    -1.222530184031     1.241610500147     1.007825032230
         H            3.792429861559     0.036868815969     1.283825500147     1.007825032230
         H           -1.474738138441    -2.205630184031    -0.028021499853     1.007825032230
         H           -2.185273138441     2.038401815969    -0.014218499853     1.007825032230
         H           -3.814068138441    -1.307642184031    -0.490468499853     1.007825032230
         H           -4.106037138441     0.439089815969    -0.471067499853     1.007825032230
         H           -3.929422138441    -0.446153184031     1.049060500147     1.007825032230

  Basis Set: AUG-CC-PVTZ
    Blend: AUG-CC-PVTZ
  Basis Set: (AUG-CC-PVTZ AUX)
    Blend: AUG-CC-PVTZ-JKFIT
	 Reference Energy          =    -417.7655596610239854 [Eh]
	 Singles Energy            =      -0.0000000000000000 [Eh]
	 Same-Spin Energy          =      -0.4586497777512335 [Eh]
	 Opposite-Spin Energy      =      -1.4492361644515865 [Eh]
	 Correlation Energy        =      -1.9078859422028200 [Eh]
	 Total Energy              =    -419.6734456032268099 [Eh]

	 ================> DF-SCS-MP2 Energies <==================
	-----------------------------------------------------------
	 SCS Same-Spin Scale       =       0.3333333333333333 [-]
	 SCS Opposite-Spin Scale   =       1.2000000000000000 [-]
	 SCS Same-Spin Energy      =      -0.1528832592504112 [Eh]
	 SCS Opposite-Spin Energy  =      -1.7390833973419038 [Eh]
	 SCS Correlation Energy    =      -1.8919666565923150 [Eh]
	 SCS Total Energy          =    -419.6575263176163162 [Eh]
	-----------------------------------------------------------

  Dipole Moment: [D]
     X:    -2.1264      Y:    -0.6905      Z:     0.0583     Total:     2.2365

*** Psi4 exiting successfully. Buy a developer a beer!
