                               Psi4 1.4a3.dev225

  ==> Input File <==

--------------------------------------------------------------------------
#psi4
#
memory 32 gb

molecule  {
0 1
  N        0.1723510    -0.9422650    -0.0110160
  N       -0.2210270     1.4224780    -0.0033780
  C        2.0395230     0.5887340     0.0077330
  C        2.9514110    -0.3582210    -0.7410450
  C        2.9437130    -0.3688660     0.7522200
  C        0.5840210     0.3414150    -0.0010850
  C       -2.0855860    -0.1066610    -0.0107410
  C       -1.1516460    -1.1458400    -0.0150190
  C       -1.5403890     1.1790090    -0.0074550
  C       -3.5664500    -0.3550010     0.0190800
  H        2.3036370     1.6413390     0.0163460
  H        3.8028480     0.0735720    -1.2571040
  H        2.4662660    -1.1861320    -1.2466910
  H        2.4535620    -1.2039700     1.2409480
  H        3.7897520     0.0554290     1.2831630
  H       -1.4774160    -2.1870700    -0.0286840
  H       -2.1879510     2.0569620    -0.0148810
  H       -3.8167460    -1.2890820    -0.4911310
  H       -4.0591170     0.3833212    -0.4268383
  H       -3.9321000    -0.4275930     1.0483980
units angstrom
no_reorient  #important for SAPT in psi4, default
symmetry c1  #important for SAPT in psi4, default
}

set PROPERTIES_ORIGIN ["COM"]
properties('MP2/aug-cc-pvtz', properties = ['dipole'])
--------------------------------------------------------------------------

    Molecular point group: c1
  Charge       = 0
  Multiplicity = 1
  Basis Set: AUG-CC-PVTZ
    Blend: AUG-CC-PVTZ
  Basis Set: (AUG-CC-PVTZ AUX)
    Blend: AUG-CC-PVTZ-JKFIT

    Orbital Energies [Eh]
    ---------------------

    Doubly Occupied:

       1A    -15.563837     2A    -15.563701     3A    -11.313238
       4A    -11.291298     5A    -11.290159     6A    -11.244903
       7A    -11.231143     8A    -11.225884     9A    -11.225689
      10A    -11.225008    11A     -1.301434    12A     -1.182295
      13A     -1.147020    14A     -1.089932    15A     -0.973709
      16A     -0.892078    17A     -0.877465    18A     -0.818487
      19A     -0.796622    20A     -0.716552    21A     -0.694558
      22A     -0.646751    23A     -0.613611    24A     -0.604385
      25A     -0.591726    26A     -0.583448    27A     -0.566961
      28A     -0.557195    29A     -0.523265    30A     -0.510958
      31A     -0.471570    32A     -0.434044    33A     -0.424084
      34A     -0.414022    35A     -0.402576    36A     -0.334199

  @DF-RHF Final Energy:  -417.77351282086602

   => Energetics <=

    Nuclear Repulsion Energy =            494.0016177785398099
    One-Electron Energy =               -1544.8626432569765257
    Two-Electron Energy =                 633.0875126575706417
    Total Energy =                       -417.7735128208660171
  Basis Set: (AUG-CC-PVTZ AUX)
    Blend: AUG-CC-PVTZ-RI
    Molecular point group: c1

    Geometry (in Angstrom), charge = 0, multiplicity = 1:

       Center              X                  Y                   Z               Mass
    ------------   -----------------  -----------------  -----------------  -----------------
         N            0.166748989182    -0.956582557504    -0.010771288795    14.003074004430
         N           -0.226629010818     1.408160442496    -0.003133288795    14.003074004430
         C            2.033920989182     0.574416442496     0.007977711205    12.000000000000
         C            2.945808989182    -0.372538557504    -0.740800288795    12.000000000000
         C            2.938110989182    -0.383183557504     0.752464711205    12.000000000000
         C            0.578418989182     0.327097442496    -0.000840288795    12.000000000000
         C           -2.091188010818    -0.120978557504    -0.010496288795    12.000000000000
         C           -1.157248010818    -1.160157557504    -0.014774288795    12.000000000000
         C           -1.545991010818     1.164691442496    -0.007210288795    12.000000000000
         C           -3.572052010818    -0.369318557504     0.019324711205    12.000000000000
         H            2.298034989182     1.627021442496     0.016590711205     1.007825032230
         H            3.797245989182     0.059254442496    -1.256859288795     1.007825032230
         H            2.460663989182    -1.200449557504    -1.246446288795     1.007825032230
         H            2.447959989182    -1.218287557504     1.241192711205     1.007825032230
         H            3.784149989182     0.041111442496     1.283407711205     1.007825032230
         H           -1.483018010818    -2.201387557504    -0.028439288795     1.007825032230
         H           -2.193553010818     2.042644442496    -0.014636288795     1.007825032230
         H           -3.822348010818    -1.303399557504    -0.490886288795     1.007825032230
         H           -4.064719010818     0.369003642496    -0.426593588795     1.007825032230
         H           -3.937702010818    -0.441910557504     1.048642711205     1.007825032230

  Basis Set: AUG-CC-PVTZ
    Blend: AUG-CC-PVTZ
  Basis Set: (AUG-CC-PVTZ AUX)
    Blend: AUG-CC-PVTZ-JKFIT
	 Reference Energy          =    -417.7735128208660171 [Eh]
	 Singles Energy            =      -0.0000000000000000 [Eh]
	 Same-Spin Energy          =      -0.4577329677147803 [Eh]
	 Opposite-Spin Energy      =      -1.4470656935925819 [Eh]
	 Correlation Energy        =      -1.9047986613073622 [Eh]
	 Total Energy              =    -419.6783114821733989 [Eh]

	 ================> DF-SCS-MP2 Energies <==================
	-----------------------------------------------------------
	 SCS Same-Spin Scale       =       0.3333333333333333 [-]
	 SCS Opposite-Spin Scale   =       1.2000000000000000 [-]
	 SCS Same-Spin Energy      =      -0.1525776559049268 [Eh]
	 SCS Opposite-Spin Energy  =      -1.7364788323110982 [Eh]
	 SCS Correlation Energy    =      -1.8890564882160250 [Eh]
	 SCS Total Energy          =    -419.6625693090820164 [Eh]
	-----------------------------------------------------------

  Dipole Moment: [D]
     X:    -2.0861      Y:    -0.5555      Z:     0.0346     Total:     2.1591

*** Psi4 exiting successfully. Buy a developer a beer!
