                               Psi4 1.4a3.dev225

  ==> Input File <==

--------------------------------------------------------------------------
#psi4
#
memory 32 gb

molecule  {
0 1
  N        0.1723510    -0.9422650    -0.0110160
  N       -0.2210270     1.4224780    -0.0033780
  C        2.0395230     0.5887340     0.0077330
  C        2.9514110    -0.3582210    -0.7410450
  C        2.9437130    -0.3688660     0.7522200
  C        0.5840210     0.3414150    -0.0010850
  C       -2.0855860    -0.1066610    -0.0107410
  C       -1.1516460    -1.1458400    -0.0150190
  C       -1.5403890     1.1790090    -0.0074550
  C       -3.5664500    -0.3550010     0.0190800
  H        2.3036370     1.6413390     0.0163460
  H        3.8028480     0.0735720    -1.2571040
  H        2.4662660    -1.1861320    -1.2466910
  H        2.4535620    -1.2039700     1.2409480
  H        3.7897520     0.0554290     1.2831630
  H       -1.4774160    -2.1870700    -0.0286840
  H       -2.1879510     2.0569620    -0.0148810
  H       -3.8167460    -1.2890820    -0.4911310
  H       -4.0839160     0.4204856    -0.4492841
  H       -3.9321000    -0.4275930     1.0483980
units angstrom
no_reorient  #important for SAPT in psi4, default
symmetry c1  #important for SAPT in psi4, default
}

set PROPERTIES_ORIGIN ["COM"]
properties('MP2/aug-cc-pvtz', properties = ['dipole'])
--------------------------------------------------------------------------

    Molecular point group: c1
  Charge       = 0
  Multiplicity = 1
  Basis Set: AUG-CC-PVTZ
    Blend: AUG-CC-PVTZ
  Basis Set: (AUG-CC-PVTZ AUX)
    Blend: AUG-CC-PVTZ-JKFIT

    Orbital Energies [Eh]
    ---------------------

    Doubly Occupied:

       1A    -15.563934     2A    -15.563843     3A    -11.313373
       4A    -11.291556     5A    -11.290249     6A    -11.245232
       7A    -11.232065     8A    -11.231226     9A    -11.225766
      10A    -11.225085    11A     -1.301566    12A     -1.182419
      13A     -1.147073    14A     -1.088889    15A     -0.970082
      16A     -0.891651    17A     -0.876059    18A     -0.818561
      19A     -0.796519    20A     -0.716134    21A     -0.694659
      22A     -0.646233    23A     -0.613536    24A     -0.600631
      25A     -0.591648    26A     -0.582951    27A     -0.562236
      28A     -0.557350    29A     -0.523365    30A     -0.511022
      31A     -0.471684    32A     -0.434093    33A     -0.424168
      34A     -0.414139    35A     -0.402659    36A     -0.334267

  @DF-RHF Final Energy:  -417.77858160782688

   => Energetics <=

    Nuclear Repulsion Energy =            493.7644557513732479
    One-Electron Energy =               -1544.4142281524582359
    Two-Electron Energy =                 632.8711907932581653
    Total Energy =                       -417.7785816078269363
  Basis Set: (AUG-CC-PVTZ AUX)
    Blend: AUG-CC-PVTZ-RI
    Molecular point group: c1

    Geometry (in Angstrom), charge = 0, multiplicity = 1:

       Center              X                  Y                   Z               Mass
    ------------   -----------------  -----------------  -----------------  -----------------
         N            0.166935387102    -0.956861898077    -0.010602578346    14.003074004430
         N           -0.226442612898     1.407881101923    -0.002964578346    14.003074004430
         C            2.034107387102     0.574137101923     0.008146421654    12.000000000000
         C            2.945995387102    -0.372817898077    -0.740631578346    12.000000000000
         C            2.938297387102    -0.383462898077     0.752633421654    12.000000000000
         C            0.578605387102     0.326818101923    -0.000671578346    12.000000000000
         C           -2.091001612898    -0.121257898077    -0.010327578346    12.000000000000
         C           -1.157061612898    -1.160436898077    -0.014605578346    12.000000000000
         C           -1.545804612898     1.164412101923    -0.007041578346    12.000000000000
         C           -3.571865612898    -0.369597898077     0.019493421654    12.000000000000
         H            2.298221387102     1.626742101923     0.016759421654     1.007825032230
         H            3.797432387102     0.058975101923    -1.256690578346     1.007825032230
         H            2.460850387102    -1.200728898077    -1.246277578346     1.007825032230
         H            2.448146387102    -1.218566898077     1.241361421654     1.007825032230
         H            3.784336387102     0.040832101923     1.283576421654     1.007825032230
         H           -1.482831612898    -2.201666898077    -0.028270578346     1.007825032230
         H           -2.193366612898     2.042365101923    -0.014467578346     1.007825032230
         H           -3.822161612898    -1.303678898077    -0.490717578346     1.007825032230
         H           -4.089331612898     0.405888701923    -0.448870678346     1.007825032230
         H           -3.937515612898    -0.442189898077     1.048811421654     1.007825032230

  Basis Set: AUG-CC-PVTZ
    Blend: AUG-CC-PVTZ
  Basis Set: (AUG-CC-PVTZ AUX)
    Blend: AUG-CC-PVTZ-JKFIT
	 Reference Energy          =    -417.7785816078268795 [Eh]
	 Singles Energy            =      -0.0000000000000000 [Eh]
	 Same-Spin Energy          =      -0.4577169228589880 [Eh]
	 Opposite-Spin Energy      =      -1.4472630298019902 [Eh]
	 Correlation Energy        =      -1.9049799526609781 [Eh]
	 Total Energy              =    -419.6835615604878740 [Eh]

	 ================> DF-SCS-MP2 Energies <==================
	-----------------------------------------------------------
	 SCS Same-Spin Scale       =       0.3333333333333333 [-]
	 SCS Opposite-Spin Scale   =       1.2000000000000000 [-]
	 SCS Same-Spin Energy      =      -0.1525723076196627 [Eh]
	 SCS Opposite-Spin Energy  =      -1.7367156357623881 [Eh]
	 SCS Correlation Energy    =      -1.8892879433820506 [Eh]
	 SCS Total Energy          =    -419.6678695512089234 [Eh]
	-----------------------------------------------------------

  Dipole Moment: [D]
     X:    -2.0684      Y:    -0.5634      Z:     0.0398     Total:     2.1441

*** Psi4 exiting successfully. Buy a developer a beer!
