                               Psi4 1.4a3.dev225

  ==> Input File <==

--------------------------------------------------------------------------
#psi4
#
memory 32 gb

molecule  {
0 1
  N        0.1500108    -0.9348836    -0.0111875
  N       -0.2210270     1.4224780    -0.0033780
  C        2.0395230     0.5887340     0.0077330
  C        2.9514110    -0.3582210    -0.7410450
  C        2.9437130    -0.3688660     0.7522200
  C        0.5840210     0.3414150    -0.0010850
  C       -2.0855860    -0.1066610    -0.0107410
  C       -1.1516460    -1.1458400    -0.0150190
  C       -1.5403890     1.1790090    -0.0074550
  C       -3.5664500    -0.3550010     0.0190800
  H        2.3036370     1.6413390     0.0163460
  H        3.8028480     0.0735720    -1.2571040
  H        2.4662660    -1.1861320    -1.2466910
  H        2.4535620    -1.2039700     1.2409480
  H        3.7897520     0.0554290     1.2831630
  H       -1.4774160    -2.1870700    -0.0286840
  H       -2.1879510     2.0569620    -0.0148810
  H       -3.8167460    -1.2890820    -0.4911310
  H       -4.1087150     0.4576500    -0.4717300
  H       -3.9321000    -0.4275930     1.0483980
units angstrom
no_reorient  #important for SAPT in psi4, default
symmetry c1  #important for SAPT in psi4, default
}

set PROPERTIES_ORIGIN ["COM"]
properties('MP2/aug-cc-pvtz', properties = ['dipole'])
--------------------------------------------------------------------------

    Molecular point group: c1
  Charge       = 0
  Multiplicity = 1
  Basis Set: AUG-CC-PVTZ
    Blend: AUG-CC-PVTZ
  Basis Set: (AUG-CC-PVTZ AUX)
    Blend: AUG-CC-PVTZ-JKFIT

    Orbital Energies [Eh]
    ---------------------

    Doubly Occupied:

       1A    -15.563513     2A    -15.561430     3A    -11.314001
       4A    -11.289205     5A    -11.288667     6A    -11.244461
       7A    -11.237375     8A    -11.232486     9A    -11.226605
      10A    -11.225921    11A     -1.304408    12A     -1.184836
      13A     -1.148326    14A     -1.087322    15A     -0.967671
      16A     -0.890055    17A     -0.875265    18A     -0.819339
      19A     -0.798508    20A     -0.717150    21A     -0.695394
      22A     -0.647187    23A     -0.614524    24A     -0.598401
      25A     -0.590679    26A     -0.583301    27A     -0.558951
      28A     -0.554418    29A     -0.524962    30A     -0.511803
      31A     -0.471442    32A     -0.435234    33A     -0.424639
      34A     -0.416166    35A     -0.399864    36A     -0.333149

  @DF-RHF Final Energy:  -417.78038477486842

   => Energetics <=

    Nuclear Repulsion Energy =            493.8890275542596555
    One-Electron Energy =               -1544.6655119882568670
    Two-Electron Energy =                 632.9960996591288449
    Total Energy =                       -417.7803847748683665
  Basis Set: (AUG-CC-PVTZ AUX)
    Blend: AUG-CC-PVTZ-RI
    Molecular point group: c1

    Geometry (in Angstrom), charge = 0, multiplicity = 1:

       Center              X                  Y                   Z               Mass
    ------------   -----------------  -----------------  -----------------  -----------------
         N            0.147114678789    -0.950530713500    -0.010587456581    14.003074004430
         N           -0.223923121211     1.406830886500    -0.002777956581    14.003074004430
         C            2.036626878789     0.573086886500     0.008333043419    12.000000000000
         C            2.948514878789    -0.373868113500    -0.740444956581    12.000000000000
         C            2.940816878789    -0.384513113500     0.752820043419    12.000000000000
         C            0.581124878789     0.325767886500    -0.000484956581    12.000000000000
         C           -2.088482121211    -0.122308113500    -0.010140956581    12.000000000000
         C           -1.154542121211    -1.161487113500    -0.014418956581    12.000000000000
         C           -1.543285121211     1.163361886500    -0.006854956581    12.000000000000
         C           -3.569346121211    -0.370648113500     0.019680043419    12.000000000000
         H            2.300740878789     1.625691886500     0.016946043419     1.007825032230
         H            3.799951878789     0.057924886500    -1.256503956581     1.007825032230
         H            2.463369878789    -1.201779113500    -1.246090956581     1.007825032230
         H            2.450665878789    -1.219617113500     1.241548043419     1.007825032230
         H            3.786855878789     0.039781886500     1.283763043419     1.007825032230
         H           -1.480312121211    -2.202717113500    -0.028083956581     1.007825032230
         H           -2.190847121211     2.041314886500    -0.014280956581     1.007825032230
         H           -3.819642121211    -1.304729113500    -0.490530956581     1.007825032230
         H           -4.111611121211     0.442002886500    -0.471129956581     1.007825032230
         H           -3.934996121211    -0.443240113500     1.048998043419     1.007825032230

  Basis Set: AUG-CC-PVTZ
    Blend: AUG-CC-PVTZ
  Basis Set: (AUG-CC-PVTZ AUX)
    Blend: AUG-CC-PVTZ-JKFIT
	 Reference Energy          =    -417.7803847748684234 [Eh]
	 Singles Energy            =      -0.0000000000000000 [Eh]
	 Same-Spin Energy          =      -0.4575145457462396 [Eh]
	 Opposite-Spin Energy      =      -1.4468380803548107 [Eh]
	 Correlation Energy        =      -1.9043526261010504 [Eh]
	 Total Energy              =    -419.6847374009694818 [Eh]

	 ================> DF-SCS-MP2 Energies <==================
	-----------------------------------------------------------
	 SCS Same-Spin Scale       =       0.3333333333333333 [-]
	 SCS Opposite-Spin Scale   =       1.2000000000000000 [-]
	 SCS Same-Spin Energy      =      -0.1525048485820799 [Eh]
	 SCS Opposite-Spin Energy  =      -1.7362056964257728 [Eh]
	 SCS Correlation Energy    =      -1.8887105450078527 [Eh]
	 SCS Total Energy          =    -419.6690953198762486 [Eh]
	-----------------------------------------------------------

  Dipole Moment: [D]
     X:    -1.9736      Y:    -0.5930      Z:     0.0469     Total:     2.0613

*** Psi4 exiting successfully. Buy a developer a beer!
