                               Psi4 1.4a3.dev225

  ==> Input File <==

--------------------------------------------------------------------------
#psi4
#
memory 32 gb

molecule  {
0 1
  N        0.1723510    -0.9422650    -0.0110160
  N       -0.2210270     1.4224780    -0.0033780
  C        2.0395230     0.5887340     0.0077330
  C        2.9514110    -0.3582210    -0.7410450
  C        2.9437130    -0.3688660     0.7522200
  C        0.5840210     0.3414150    -0.0010850
  C       -2.0855860    -0.1066610    -0.0107410
  C       -1.1516460    -1.1458400    -0.0150190
  C       -1.6387282     1.1608619    -0.0077589
  C       -3.5664500    -0.3550010     0.0190800
  H        2.3036370     1.6413390     0.0163460
  H        3.8028480     0.0735720    -1.2571040
  H        2.4662660    -1.1861320    -1.2466910
  H        2.4535620    -1.2039700     1.2409480
  H        3.7897520     0.0554290     1.2831630
  H       -1.4774160    -2.1870700    -0.0286840
  H       -2.1879510     2.0569620    -0.0148810
  H       -3.8167460    -1.2890820    -0.4911310
  H       -4.1087150     0.4576500    -0.4717300
  H       -3.9321000    -0.4275930     1.0483980
units angstrom
no_reorient  #important for SAPT in psi4, default
symmetry c1  #important for SAPT in psi4, default
}

set PROPERTIES_ORIGIN ["COM"]
properties('MP2/aug-cc-pvtz', properties = ['dipole'])
--------------------------------------------------------------------------

    Molecular point group: c1
  Charge       = 0
  Multiplicity = 1
  Basis Set: AUG-CC-PVTZ
    Blend: AUG-CC-PVTZ
  Basis Set: (AUG-CC-PVTZ AUX)
    Blend: AUG-CC-PVTZ-JKFIT

    Orbital Energies [Eh]
    ---------------------

    Doubly Occupied:

       1A    -15.567076     2A    -15.565452     3A    -11.310033
       4A    -11.298670     5A    -11.287472     6A    -11.244409
       7A    -11.237762     8A    -11.230042     9A    -11.224697
      10A    -11.224017    11A     -1.292145    12A     -1.162881
      13A     -1.147432    14A     -1.097128    15A     -0.964014
      16A     -0.900515    17A     -0.872059    18A     -0.817701
      19A     -0.796398    20A     -0.716822    21A     -0.689239
      22A     -0.648797    23A     -0.613790    24A     -0.598893
      25A     -0.591643    26A     -0.588977    27A     -0.555654
      28A     -0.553844    29A     -0.523105    30A     -0.509636
      31A     -0.465081    32A     -0.435329    33A     -0.422187
      34A     -0.405079    35A     -0.400574    36A     -0.342732

  @DF-RHF Final Energy:  -417.76530959835401

   => Energetics <=

    Nuclear Repulsion Energy =            492.6309677008706558
    One-Electron Energy =               -1542.1899902483621645
    Two-Electron Energy =                 631.7937129491375572
    Total Energy =                       -417.7653095983540652
  Basis Set: (AUG-CC-PVTZ AUX)
    Blend: AUG-CC-PVTZ-RI
    Molecular point group: c1

    Geometry (in Angstrom), charge = 0, multiplicity = 1:

       Center              X                  Y                   Z               Mass
    ------------   -----------------  -----------------  -----------------  -----------------
         N            0.175922737368    -0.955517148131    -0.010406669350    14.003074004430
         N           -0.217455262632     1.409225851869    -0.002768669350    14.003074004430
         C            2.043094737368     0.575481851869     0.008342330650    12.000000000000
         C            2.954982737368    -0.371473148131    -0.740435669350    12.000000000000
         C            2.947284737368    -0.382118148131     0.752829330650    12.000000000000
         C            0.587592737368     0.328162851869    -0.000475669350    12.000000000000
         C           -2.082014262632    -0.119913148131    -0.010131669350    12.000000000000
         C           -1.148074262632    -1.159092148131    -0.014409669350    12.000000000000
         C           -1.635156462632     1.147609751869    -0.007149569350    12.000000000000
         C           -3.562878262632    -0.368253148131     0.019689330650    12.000000000000
         H            2.307208737368     1.628086851869     0.016955330650     1.007825032230
         H            3.806419737368     0.060319851869    -1.256494669350     1.007825032230
         H            2.469837737368    -1.199384148131    -1.246081669350     1.007825032230
         H            2.457133737368    -1.217222148131     1.241557330650     1.007825032230
         H            3.793323737368     0.042176851869     1.283772330650     1.007825032230
         H           -1.473844262632    -2.200322148131    -0.028074669350     1.007825032230
         H           -2.184379262632     2.043709851869    -0.014271669350     1.007825032230
         H           -3.813174262632    -1.302334148131    -0.490521669350     1.007825032230
         H           -4.105143262632     0.444397851869    -0.471120669350     1.007825032230
         H           -3.928528262632    -0.440845148131     1.049007330650     1.007825032230

  Basis Set: AUG-CC-PVTZ
    Blend: AUG-CC-PVTZ
  Basis Set: (AUG-CC-PVTZ AUX)
    Blend: AUG-CC-PVTZ-JKFIT
	 Reference Energy          =    -417.7653095983540084 [Eh]
	 Singles Energy            =      -0.0000000000000000 [Eh]
	 Same-Spin Energy          =      -0.4582008010590441 [Eh]
	 Opposite-Spin Energy      =      -1.4501767458663366 [Eh]
	 Correlation Energy        =      -1.9083775469253808 [Eh]
	 Total Energy              =    -419.6736871452794162 [Eh]

	 ================> DF-SCS-MP2 Energies <==================
	-----------------------------------------------------------
	 SCS Same-Spin Scale       =       0.3333333333333333 [-]
	 SCS Opposite-Spin Scale   =       1.2000000000000000 [-]
	 SCS Same-Spin Energy      =      -0.1527336003530147 [Eh]
	 SCS Opposite-Spin Energy  =      -1.7402120950396038 [Eh]
	 SCS Correlation Energy    =      -1.8929456953926185 [Eh]
	 SCS Total Energy          =    -419.6582552937466062 [Eh]
	-----------------------------------------------------------

  Dipole Moment: [D]
     X:    -2.1229      Y:    -0.6298      Z:     0.0431     Total:     2.2148

*** Psi4 exiting successfully. Buy a developer a beer!
