                               Psi4 1.4a3.dev225

  ==> Input File <==

--------------------------------------------------------------------------
#psi4
#
memory 32 gb

molecule  {
0 1
  N        0.1723510    -0.9422650    -0.0110160
  N       -0.2210270     1.4224780    -0.0033780
  C        2.0395230     0.5887340     0.0077330
  C        2.9514110    -0.3582210    -0.7410450
  C        2.9437130    -0.3688660     0.7522200
  C        0.5840210     0.3414150    -0.0010850
  C       -2.0855860    -0.1066610    -0.0107410
  C       -1.1850680    -1.1086520    -0.0148659
  C       -1.5403890     1.1790090    -0.0074550
  C       -3.5664500    -0.3550010     0.0190800
  H        2.3036370     1.6413390     0.0163460
  H        3.8028480     0.0735720    -1.2571040
  H        2.4662660    -1.1861320    -1.2466910
  H        2.4535620    -1.2039700     1.2409480
  H        3.7897520     0.0554290     1.2831630
  H       -1.4774160    -2.1870700    -0.0286840
  H       -2.1879510     2.0569620    -0.0148810
  H       -3.8167460    -1.2890820    -0.4911310
  H       -4.1087150     0.4576500    -0.4717300
  H       -3.9321000    -0.4275930     1.0483980
units angstrom
no_reorient  #important for SAPT in psi4, default
symmetry c1  #important for SAPT in psi4, default
}

set PROPERTIES_ORIGIN ["COM"]
properties('MP2/aug-cc-pvtz', properties = ['dipole'])
--------------------------------------------------------------------------

    Molecular point group: c1
  Charge       = 0
  Multiplicity = 1
  Basis Set: AUG-CC-PVTZ
    Blend: AUG-CC-PVTZ
  Basis Set: (AUG-CC-PVTZ AUX)
    Blend: AUG-CC-PVTZ-JKFIT

    Orbital Energies [Eh]
    ---------------------

    Doubly Occupied:

       1A    -15.565220     2A    -15.563880     3A    -11.312556
       4A    -11.294492     5A    -11.288214     6A    -11.241608
       7A    -11.238738     8A    -11.230874     9A    -11.225596
      10A    -11.224916    11A     -1.300478    12A     -1.177642
      13A     -1.147453    14A     -1.095016    15A     -0.966986
      16A     -0.896065    17A     -0.874297    18A     -0.818318
      19A     -0.794689    20A     -0.714298    21A     -0.694940
      22A     -0.645546    23A     -0.614177    24A     -0.600183
      25A     -0.589601    26A     -0.575784    27A     -0.557677
      28A     -0.556688    29A     -0.522226    30A     -0.510907
      31A     -0.472271    32A     -0.435428    33A     -0.424349
      34A     -0.410386    35A     -0.405207    36A     -0.340565

  @DF-RHF Final Energy:  -417.77590815962532

   => Energetics <=

    Nuclear Repulsion Energy =            493.9413222179951504
    One-Electron Energy =               -1544.7799185164990377
    Two-Electron Energy =                 633.0626881388786842
    Total Energy =                       -417.7759081596252599
  Basis Set: (AUG-CC-PVTZ AUX)
    Blend: AUG-CC-PVTZ-RI
    Molecular point group: c1

    Geometry (in Angstrom), charge = 0, multiplicity = 1:

       Center              X                  Y                   Z               Mass
    ------------   -----------------  -----------------  -----------------  -----------------
         N            0.170112916019    -0.960469411096    -0.010447568963    14.003074004430
         N           -0.223265083981     1.404273588904    -0.002809568963    14.003074004430
         C            2.037284916019     0.570529588904     0.008301431037    12.000000000000
         C            2.949172916019    -0.376425411096    -0.740476568963    12.000000000000
         C            2.941474916019    -0.387070411096     0.752788431037    12.000000000000
         C            0.581782916019     0.323210588904    -0.000516568963    12.000000000000
         C           -2.087824083981    -0.124865411096    -0.010172568963    12.000000000000
         C           -1.187306083981    -1.126856411096    -0.014297468963    12.000000000000
         C           -1.542627083981     1.160804588904    -0.006886568963    12.000000000000
         C           -3.568688083981    -0.373205411096     0.019648431037    12.000000000000
         H            2.301398916019     1.623134588904     0.016914431037     1.007825032230
         H            3.800609916019     0.055367588904    -1.256535568963     1.007825032230
         H            2.464027916019    -1.204336411096    -1.246122568963     1.007825032230
         H            2.451323916019    -1.222174411096     1.241516431037     1.007825032230
         H            3.787513916019     0.037224588904     1.283731431037     1.007825032230
         H           -1.479654083981    -2.205274411096    -0.028115568963     1.007825032230
         H           -2.190189083981     2.038757588904    -0.014312568963     1.007825032230
         H           -3.818984083981    -1.307286411096    -0.490562568963     1.007825032230
         H           -4.110953083981     0.439445588904    -0.471161568963     1.007825032230
         H           -3.934338083981    -0.445797411096     1.048966431037     1.007825032230

  Basis Set: AUG-CC-PVTZ
    Blend: AUG-CC-PVTZ
  Basis Set: (AUG-CC-PVTZ AUX)
    Blend: AUG-CC-PVTZ-JKFIT
	 Reference Energy          =    -417.7759081596253168 [Eh]
	 Singles Energy            =      -0.0000000000000000 [Eh]
	 Same-Spin Energy          =      -0.4577751220737609 [Eh]
	 Opposite-Spin Energy      =      -1.4479794438526061 [Eh]
	 Correlation Energy        =      -1.9057545659263671 [Eh]
	 Total Energy              =    -419.6816627255516892 [Eh]

	 ================> DF-SCS-MP2 Energies <==================
	-----------------------------------------------------------
	 SCS Same-Spin Scale       =       0.3333333333333333 [-]
	 SCS Opposite-Spin Scale   =       1.2000000000000000 [-]
	 SCS Same-Spin Energy      =      -0.1525917073579203 [Eh]
	 SCS Opposite-Spin Energy  =      -1.7375753326231274 [Eh]
	 SCS Correlation Energy    =      -1.8901670399810477 [Eh]
	 SCS Total Energy          =    -419.6660751996063823 [Eh]
	-----------------------------------------------------------

  Dipole Moment: [D]
     X:    -2.0518      Y:    -0.4798      Z:     0.0453     Total:     2.1077

*** Psi4 exiting successfully. Buy a developer a beer!
