                               Psi4 1.4a3.dev225

  ==> Input File <==

--------------------------------------------------------------------------
#psi4
#
memory 32 gb

molecule  {
0 1
  N        0.1723510    -0.9422650    -0.0110160
  N       -0.2210270     1.4224780    -0.0033780
  C        2.0395230     0.5887340     0.0077330
  C        2.9514110    -0.3582210    -0.7410450
  C        2.9437130    -0.3688660     0.7522200
  C        0.5840210     0.3414150    -0.0010850
  C       -2.1053155    -0.0172702    -0.0618163
  C       -1.1516460    -1.1458400    -0.0150190
  C       -1.5403890     1.1790090    -0.0074550
  C       -3.5664500    -0.3550010     0.0190800
  H        2.3036370     1.6413390     0.0163460
  H        3.8028480     0.0735720    -1.2571040
  H        2.4662660    -1.1861320    -1.2466910
  H        2.4535620    -1.2039700     1.2409480
  H        3.7897520     0.0554290     1.2831630
  H       -1.4774160    -2.1870700    -0.0286840
  H       -2.1879510     2.0569620    -0.0148810
  H       -3.8167460    -1.2890820    -0.4911310
  H       -4.1087150     0.4576500    -0.4717300
  H       -3.9321000    -0.4275930     1.0483980
units angstrom
no_reorient  #important for SAPT in psi4, default
symmetry c1  #important for SAPT in psi4, default
}

set PROPERTIES_ORIGIN ["COM"]
properties('MP2/aug-cc-pvtz', properties = ['dipole'])
--------------------------------------------------------------------------

    Molecular point group: c1
  Charge       = 0
  Multiplicity = 1
  Basis Set: AUG-CC-PVTZ
    Blend: AUG-CC-PVTZ
  Basis Set: (AUG-CC-PVTZ AUX)
    Blend: AUG-CC-PVTZ-JKFIT

    Orbital Energies [Eh]
    ---------------------

    Doubly Occupied:

       1A    -15.568462     2A    -15.559493     3A    -11.314133
       4A    -11.305595     5A    -11.275099     6A    -11.245179
       7A    -11.238537     8A    -11.231749     9A    -11.226411
      10A    -11.225730    11A     -1.301657    12A     -1.183101
      13A     -1.147194    14A     -1.089204    15A     -0.967800
      16A     -0.894521    17A     -0.873062    18A     -0.819275
      19A     -0.794111    20A     -0.714416    21A     -0.696127
      22A     -0.645828    23A     -0.614216    24A     -0.599903
      25A     -0.597373    26A     -0.576699    27A     -0.558382
      28A     -0.552471    29A     -0.523672    30A     -0.511769
      31A     -0.469880    32A     -0.434675    33A     -0.424012
      34A     -0.416037    35A     -0.401346    36A     -0.335228

  @DF-RHF Final Energy:  -417.76883006918916

   => Energetics <=

    Nuclear Repulsion Energy =            493.4346739323478914
    One-Electron Energy =               -1543.7423141363328796
    Two-Electron Energy =                 632.5388101347958809
    Total Energy =                       -417.7688300691892209
  Basis Set: (AUG-CC-PVTZ AUX)
    Blend: AUG-CC-PVTZ-RI
    Molecular point group: c1

    Geometry (in Angstrom), charge = 0, multiplicity = 1:

       Center              X                  Y                   Z               Mass
    ------------   -----------------  -----------------  -----------------  -----------------
         N            0.168887493807    -0.965141346144    -0.005862838691    14.003074004430
         N           -0.224490506193     1.399601653856     0.001775161309    14.003074004430
         C            2.036059493807     0.565857653856     0.012886161309    12.000000000000
         C            2.947947493807    -0.381097346144    -0.735891838691    12.000000000000
         C            2.940249493807    -0.391742346144     0.757373161309    12.000000000000
         C            0.580557493807     0.318538653856     0.004068161309    12.000000000000
         C           -2.108779006193    -0.040146546144    -0.056663138691    12.000000000000
         C           -1.155109506193    -1.168716346144    -0.009865838691    12.000000000000
         C           -1.543852506193     1.156132653856    -0.002301838691    12.000000000000
         C           -3.569913506193    -0.377877346144     0.024233161309    12.000000000000
         H            2.300173493807     1.618462653856     0.021499161309     1.007825032230
         H            3.799384493807     0.050695653856    -1.251950838691     1.007825032230
         H            2.462802493807    -1.209008346144    -1.241537838691     1.007825032230
         H            2.450098493807    -1.226846346144     1.246101161309     1.007825032230
         H            3.786288493807     0.032552653856     1.288316161309     1.007825032230
         H           -1.480879506193    -2.209946346144    -0.023530838691     1.007825032230
         H           -2.191414506193     2.034085653856    -0.009727838691     1.007825032230
         H           -3.820209506193    -1.311958346144    -0.485977838691     1.007825032230
         H           -4.112178506193     0.434773653856    -0.466576838691     1.007825032230
         H           -3.935563506193    -0.450469346144     1.053551161309     1.007825032230

  Basis Set: AUG-CC-PVTZ
    Blend: AUG-CC-PVTZ
  Basis Set: (AUG-CC-PVTZ AUX)
    Blend: AUG-CC-PVTZ-JKFIT
	 Reference Energy          =    -417.7688300691891641 [Eh]
	 Singles Energy            =      -0.0000000000000000 [Eh]
	 Same-Spin Energy          =      -0.4573616774821716 [Eh]
	 Opposite-Spin Energy      =      -1.4478153326038050 [Eh]
	 Correlation Energy        =      -1.9051770100859766 [Eh]
	 Total Energy              =    -419.6740070792751567 [Eh]

	 ================> DF-SCS-MP2 Energies <==================
	-----------------------------------------------------------
	 SCS Same-Spin Scale       =       0.3333333333333333 [-]
	 SCS Opposite-Spin Scale   =       1.2000000000000000 [-]
	 SCS Same-Spin Energy      =      -0.1524538924940572 [Eh]
	 SCS Opposite-Spin Energy  =      -1.7373783991245659 [Eh]
	 SCS Correlation Energy    =      -1.8898322916186232 [Eh]
	 SCS Total Energy          =    -419.6586623608077957 [Eh]
	-----------------------------------------------------------

  Dipole Moment: [D]
     X:    -1.9827      Y:    -0.7373      Z:     0.0447     Total:     2.1158

*** Psi4 exiting successfully. Buy a developer a beer!
