                               Psi4 1.4a3.dev225

  ==> Input File <==

--------------------------------------------------------------------------
#psi4
#
memory 32 gb

molecule  {
0 1
  N        0.1723510    -0.9422650    -0.0110160
  N       -0.2210270     1.4224780    -0.0033780
  C        2.0395230     0.5887340     0.0077330
  C        2.9514110    -0.3582210    -0.7410450
  C        2.9735960    -0.4005142     0.7768249
  C        0.5840210     0.3414150    -0.0010850
  C       -2.0855860    -0.1066610    -0.0107410
  C       -1.1516460    -1.1458400    -0.0150190
  C       -1.5403890     1.1790090    -0.0074550
  C       -3.5664500    -0.3550010     0.0190800
  H        2.3036370     1.6413390     0.0163460
  H        3.8028480     0.0735720    -1.2571040
  H        2.4662660    -1.1861320    -1.2466910
  H        2.4535620    -1.2039700     1.2409480
  H        3.7897520     0.0554290     1.2831630
  H       -1.4774160    -2.1870700    -0.0286840
  H       -2.1879510     2.0569620    -0.0148810
  H       -3.8167460    -1.2890820    -0.4911310
  H       -4.1087150     0.4576500    -0.4717300
  H       -3.9321000    -0.4275930     1.0483980
units angstrom
no_reorient  #important for SAPT in psi4, default
symmetry c1  #important for SAPT in psi4, default
}

set PROPERTIES_ORIGIN ["COM"]
properties('MP2/aug-cc-pvtz', properties = ['dipole'])
--------------------------------------------------------------------------

    Molecular point group: c1
  Charge       = 0
  Multiplicity = 1
  Basis Set: AUG-CC-PVTZ
    Blend: AUG-CC-PVTZ
  Basis Set: (AUG-CC-PVTZ AUX)
    Blend: AUG-CC-PVTZ-JKFIT

    Orbital Energies [Eh]
    ---------------------

    Doubly Occupied:

       1A    -15.563831     2A    -15.563801     3A    -11.313557
       4A    -11.291762     5A    -11.290297     6A    -11.245383
       7A    -11.238024     8A    -11.233411     9A    -11.228838
      10A    -11.226436    11A     -1.301398    12A     -1.182256
      13A     -1.137459    14A     -1.086282    15A     -0.966718
      16A     -0.891228    17A     -0.874894    18A     -0.823306
      19A     -0.796096    20A     -0.715180    21A     -0.693472
      22A     -0.645662    23A     -0.609786    24A     -0.598256
      25A     -0.591540    26A     -0.582135    27A     -0.558616
      28A     -0.554924    29A     -0.529533    30A     -0.517436
      31A     -0.471448    32A     -0.433484    33A     -0.417160
      34A     -0.414208    35A     -0.402533    36A     -0.332454

  @DF-RHF Final Energy:  -417.77733294450223

   => Energetics <=

    Nuclear Repulsion Energy =            492.6093399648715376
    One-Electron Energy =               -1542.1277427102120328
    Two-Electron Energy =                 631.7410698008384315
    Total Energy =                       -417.7773329445021773
  Basis Set: (AUG-CC-PVTZ AUX)
    Blend: AUG-CC-PVTZ-RI
    Molecular point group: c1

    Geometry (in Angstrom), charge = 0, multiplicity = 1:

       Center              X                  Y                   Z               Mass
    ------------   -----------------  -----------------  -----------------  -----------------
         N            0.164447379913    -0.954308855429    -0.012635904098    14.003074004430
         N           -0.228930620087     1.410434144571    -0.004997904098    14.003074004430
         C            2.031619379913     0.576690144571     0.006113095902    12.000000000000
         C            2.943507379913    -0.370264855429    -0.742664904098    12.000000000000
         C            2.965692379913    -0.412558055429     0.775204995902    12.000000000000
         C            0.576117379913     0.329371144571    -0.002704904098    12.000000000000
         C           -2.093489620087    -0.118704855429    -0.012360904098    12.000000000000
         C           -1.159549620087    -1.157883855429    -0.016638904098    12.000000000000
         C           -1.548292620087     1.166965144571    -0.009074904098    12.000000000000
         C           -3.574353620087    -0.367044855429     0.017460095902    12.000000000000
         H            2.295733379913     1.629295144571     0.014726095902     1.007825032230
         H            3.794944379913     0.061528144571    -1.258723904098     1.007825032230
         H            2.458362379913    -1.198175855429    -1.248310904098     1.007825032230
         H            2.445658379913    -1.216013855429     1.239328095902     1.007825032230
         H            3.781848379913     0.043385144571     1.281543095902     1.007825032230
         H           -1.485319620087    -2.199113855429    -0.030303904098     1.007825032230
         H           -2.195854620087     2.044918144571    -0.016500904098     1.007825032230
         H           -3.824649620087    -1.301125855429    -0.492750904098     1.007825032230
         H           -4.116618620087     0.445606144571    -0.473349904098     1.007825032230
         H           -3.940003620087    -0.439636855429     1.046778095902     1.007825032230

  Basis Set: AUG-CC-PVTZ
    Blend: AUG-CC-PVTZ
  Basis Set: (AUG-CC-PVTZ AUX)
    Blend: AUG-CC-PVTZ-JKFIT
	 Reference Energy          =    -417.7773329445022341 [Eh]
	 Singles Energy            =      -0.0000000000000000 [Eh]
	 Same-Spin Energy          =      -0.4576110208614018 [Eh]
	 Opposite-Spin Energy      =      -1.4479229607709645 [Eh]
	 Correlation Energy        =      -1.9055339816323662 [Eh]
	 Total Energy              =    -419.6828669261345794 [Eh]

	 ================> DF-SCS-MP2 Energies <==================
	-----------------------------------------------------------
	 SCS Same-Spin Scale       =       0.3333333333333333 [-]
	 SCS Opposite-Spin Scale   =       1.2000000000000000 [-]
	 SCS Same-Spin Energy      =      -0.1525370069538006 [Eh]
	 SCS Opposite-Spin Energy  =      -1.7375075529251574 [Eh]
	 SCS Correlation Energy    =      -1.8900445598789579 [Eh]
	 SCS Total Energy          =    -419.6673775043811929 [Eh]
	-----------------------------------------------------------

  Dipole Moment: [D]
     X:    -2.0380      Y:    -0.5601      Z:     0.0184     Total:     2.1137

*** Psi4 exiting successfully. Buy a developer a beer!
