                               Psi4 1.4a3.dev225

  ==> Input File <==

--------------------------------------------------------------------------
#psi4
#
memory 32 gb

molecule  {
0 1
  N        0.1723510    -0.9422650    -0.0110160
  N       -0.2210270     1.4224780    -0.0033780
  C        2.0395230     0.5887340     0.0077330
  C        2.9514110    -0.3582210    -0.7410450
  C        2.9437130    -0.3688660     0.7522200
  C        0.5840210     0.3414150    -0.0010850
  C       -2.0855860    -0.1066610    -0.0107410
  C       -1.1516460    -1.1458400    -0.0150190
  C       -1.5403890     1.1790090    -0.0074550
  C       -3.5664500    -0.3550010     0.0190800
  H        2.3036370     1.6413390     0.0163460
  H        3.8028480     0.0735720    -1.2571040
  H        2.4662660    -1.1861320    -1.2466910
  H        2.4535620    -1.2039700     1.2409480
  H        3.7897520     0.0554290     1.2831630
  H       -1.4774160    -2.1870700    -0.0286840
  H       -2.3066652     2.2179126    -0.0162424
  H       -3.8167460    -1.2890820    -0.4911310
  H       -4.1087150     0.4576500    -0.4717300
  H       -3.9321000    -0.4275930     1.0483980
units angstrom
no_reorient  #important for SAPT in psi4, default
symmetry c1  #important for SAPT in psi4, default
}

set PROPERTIES_ORIGIN ["COM"]
properties('MP2/aug-cc-pvtz', properties = ['dipole'])
--------------------------------------------------------------------------

    Molecular point group: c1
  Charge       = 0
  Multiplicity = 1
  Basis Set: AUG-CC-PVTZ
    Blend: AUG-CC-PVTZ
  Basis Set: (AUG-CC-PVTZ AUX)
    Blend: AUG-CC-PVTZ-JKFIT

    Orbital Energies [Eh]
    ---------------------

    Doubly Occupied:

       1A    -15.566833     2A    -15.565194     3A    -11.315858
       4A    -11.311576     5A    -11.293789     6A    -11.248307
       7A    -11.237862     8A    -11.232408     9A    -11.226698
      10A    -11.226015    11A     -1.303420    12A     -1.183338
      13A     -1.148077    14A     -1.088123    15A     -0.966546
      16A     -0.884826    17A     -0.875039    18A     -0.819444
      19A     -0.789183    20A     -0.716316    21A     -0.689118
      22A     -0.642233    23A     -0.613683    24A     -0.598851
      25A     -0.591606    26A     -0.559389    27A     -0.555455
      28A     -0.554321    29A     -0.521377    30A     -0.511918
      31A     -0.473220    32A     -0.435228    33A     -0.425007
      34A     -0.415971    35A     -0.401542    36A     -0.335792

  @DF-RHF Final Energy:  -417.75746406702473

   => Energetics <=

    Nuclear Repulsion Energy =            492.5816138980946448
    One-Electron Energy =               -1542.0310310405377550
    Two-Electron Energy =                 631.6919530754183825
    Total Energy =                       -417.7574640670246708
  Basis Set: (AUG-CC-PVTZ AUX)
    Blend: AUG-CC-PVTZ-RI
    Molecular point group: c1

    Geometry (in Angstrom), charge = 0, multiplicity = 1:

       Center              X                  Y                   Z               Mass
    ------------   -----------------  -----------------  -----------------  -----------------
         N            0.168014082291    -0.958350999410    -0.010423634388    14.003074004430
         N           -0.225363917709     1.406392000590    -0.002785634388    14.003074004430
         C            2.035186082291     0.572648000590     0.008325365612    12.000000000000
         C            2.947074082291    -0.374306999410    -0.740452634388    12.000000000000
         C            2.939376082291    -0.384951999410     0.752812365612    12.000000000000
         C            0.579684082291     0.325329000590    -0.000492634388    12.000000000000
         C           -2.089922917709    -0.122746999410    -0.010148634388    12.000000000000
         C           -1.155982917709    -1.161925999410    -0.014426634388    12.000000000000
         C           -1.544725917709     1.162923000590    -0.006862634388    12.000000000000
         C           -3.570786917709    -0.371086999410     0.019672365612    12.000000000000
         H            2.299300082291     1.625253000590     0.016938365612     1.007825032230
         H            3.798511082291     0.057486000590    -1.256511634388     1.007825032230
         H            2.461929082291    -1.202217999410    -1.246098634388     1.007825032230
         H            2.449225082291    -1.220055999410     1.241540365612     1.007825032230
         H            3.785415082291     0.039343000590     1.283755365612     1.007825032230
         H           -1.481752917709    -2.203155999410    -0.028091634388     1.007825032230
         H           -2.311002117709     2.201826600590    -0.015650034388     1.007825032230
         H           -3.821082917709    -1.305167999410    -0.490538634388     1.007825032230
         H           -4.113051917709     0.441564000590    -0.471137634388     1.007825032230
         H           -3.936436917709    -0.443678999410     1.048990365612     1.007825032230

  Basis Set: AUG-CC-PVTZ
    Blend: AUG-CC-PVTZ
  Basis Set: (AUG-CC-PVTZ AUX)
    Blend: AUG-CC-PVTZ-JKFIT
	 Reference Energy          =    -417.7574640670247277 [Eh]
	 Singles Energy            =      -0.0000000000000000 [Eh]
	 Same-Spin Energy          =      -0.4584307895486253 [Eh]
	 Opposite-Spin Energy      =      -1.4498956826462881 [Eh]
	 Correlation Energy        =      -1.9083264721949134 [Eh]
	 Total Energy              =    -419.6657905392196426 [Eh]

	 ================> DF-SCS-MP2 Energies <==================
	-----------------------------------------------------------
	 SCS Same-Spin Scale       =       0.3333333333333333 [-]
	 SCS Opposite-Spin Scale   =       1.2000000000000000 [-]
	 SCS Same-Spin Energy      =      -0.1528102631828751 [Eh]
	 SCS Opposite-Spin Energy  =      -1.7398748191755458 [Eh]
	 SCS Correlation Energy    =      -1.8926850823584209 [Eh]
	 SCS Total Energy          =    -419.6501491493831395 [Eh]
	-----------------------------------------------------------

  Dipole Moment: [D]
     X:    -1.9190      Y:    -0.6585      Z:     0.0471     Total:     2.0294

*** Psi4 exiting successfully. Buy a developer a beer!
