                               Psi4 1.4a3.dev225

  ==> Input File <==

--------------------------------------------------------------------------
#psi4
#
memory 32 gb

molecule  {
0 1
  N        0.1723510    -0.9422650    -0.0110160
  N       -0.2210270     1.4224780    -0.0033780
  C        2.0395230     0.5887340     0.0077330
  C        2.9514110    -0.3582210    -0.7410450
  C        2.9437130    -0.3688660     0.7522200
  C        0.5840210     0.3414150    -0.0010850
  C       -2.0855860    -0.1066610    -0.0107410
  C       -1.1516460    -1.1458400    -0.0150190
  C       -1.5403890     1.1790090    -0.0074550
  C       -3.5664500    -0.3550010     0.0190800
  H        2.3036370     1.6413390     0.0163460
  H        3.8028480     0.0735720    -1.2571040
  H        2.4662660    -1.1861320    -1.2466910
  H        2.4535620    -1.2039700     1.2409480
  H        3.7897520     0.0554290     1.2831630
  H       -1.4774160    -2.1870700    -0.0286840
  H       -2.1998224     2.0730571    -0.0150171
  H       -3.8167460    -1.2890820    -0.4911310
  H       -4.1087150     0.4576500    -0.4717300
  H       -3.9321000    -0.4275930     1.0483980
units angstrom
no_reorient  #important for SAPT in psi4, default
symmetry c1  #important for SAPT in psi4, default
}

set PROPERTIES_ORIGIN ["COM"]
properties('MP2/aug-cc-pvtz', properties = ['dipole'])
--------------------------------------------------------------------------

    Molecular point group: c1
  Charge       = 0
  Multiplicity = 1
  Basis Set: AUG-CC-PVTZ
    Blend: AUG-CC-PVTZ
  Basis Set: (AUG-CC-PVTZ AUX)
    Blend: AUG-CC-PVTZ-JKFIT

    Orbital Energies [Eh]
    ---------------------

    Doubly Occupied:

       1A    -15.564269     2A    -15.564090     3A    -11.313731
       4A    -11.292655     5A    -11.292016     6A    -11.245828
       7A    -11.238111     8A    -11.231415     9A    -11.225927
      10A    -11.225246    11A     -1.301846    12A     -1.182563
      13A     -1.147222    14A     -1.088057    15A     -0.966969
      16A     -0.890307    17A     -0.874740    18A     -0.818713
      19A     -0.795476    20A     -0.715784    21A     -0.694000
      22A     -0.645391    23A     -0.613566    24A     -0.598363
      25A     -0.591323    26A     -0.580186    27A     -0.558405
      28A     -0.555043    29A     -0.523417    30A     -0.511161
      31A     -0.471930    32A     -0.434239    33A     -0.424328
      34A     -0.414409    35A     -0.402665    36A     -0.334476

  @DF-RHF Final Energy:  -417.77889082698425

   => Energetics <=

    Nuclear Repulsion Energy =            493.4368593390973956
    One-Electron Energy =               -1543.7757653693029170
    Two-Electron Energy =                 632.5600152032213828
    Total Energy =                       -417.7788908269842523
  Basis Set: (AUG-CC-PVTZ AUX)
    Blend: AUG-CC-PVTZ-RI
    Molecular point group: c1

    Geometry (in Angstrom), charge = 0, multiplicity = 1:

       Center              X                  Y                   Z               Mass
    ------------   -----------------  -----------------  -----------------  -----------------
         N            0.167211014599    -0.957262215026    -0.010432844170    14.003074004430
         N           -0.226166985401     1.407480784974    -0.002794844170    14.003074004430
         C            2.034383014599     0.573736784974     0.008316155830    12.000000000000
         C            2.946271014599    -0.373218215026    -0.740461844170    12.000000000000
         C            2.938573014599    -0.383863215026     0.752803155830    12.000000000000
         C            0.578881014599     0.326417784974    -0.000501844170    12.000000000000
         C           -2.090725985401    -0.121658215026    -0.010157844170    12.000000000000
         C           -1.156785985401    -1.160837215026    -0.014435844170    12.000000000000
         C           -1.545528985401     1.164011784974    -0.006871844170    12.000000000000
         C           -3.571589985401    -0.369998215026     0.019663155830    12.000000000000
         H            2.298497014599     1.626341784974     0.016929155830     1.007825032230
         H            3.797708014599     0.058574784974    -1.256520844170     1.007825032230
         H            2.461126014599    -1.201129215026    -1.246107844170     1.007825032230
         H            2.448422014599    -1.218967215026     1.241531155830     1.007825032230
         H            3.784612014599     0.040431784974     1.283746155830     1.007825032230
         H           -1.482555985401    -2.202067215026    -0.028100844170     1.007825032230
         H           -2.204962385401     2.058059884974    -0.014433944170     1.007825032230
         H           -3.821885985401    -1.304079215026    -0.490547844170     1.007825032230
         H           -4.113854985401     0.442652784974    -0.471146844170     1.007825032230
         H           -3.937239985401    -0.442590215026     1.048981155830     1.007825032230

  Basis Set: AUG-CC-PVTZ
    Blend: AUG-CC-PVTZ
  Basis Set: (AUG-CC-PVTZ AUX)
    Blend: AUG-CC-PVTZ-JKFIT
	 Reference Energy          =    -417.7788908269842523 [Eh]
	 Singles Energy            =      -0.0000000000000000 [Eh]
	 Same-Spin Energy          =      -0.4577673671360327 [Eh]
	 Opposite-Spin Energy      =      -1.4477055174723774 [Eh]
	 Correlation Energy        =      -1.9054728846084101 [Eh]
	 Total Energy              =    -419.6843637115926526 [Eh]

	 ================> DF-SCS-MP2 Energies <==================
	-----------------------------------------------------------
	 SCS Same-Spin Scale       =       0.3333333333333333 [-]
	 SCS Opposite-Spin Scale   =       1.2000000000000000 [-]
	 SCS Same-Spin Energy      =      -0.1525891223786776 [Eh]
	 SCS Opposite-Spin Energy  =      -1.7372466209668529 [Eh]
	 SCS Correlation Energy    =      -1.8898357433455304 [Eh]
	 SCS Total Energy          =    -419.6687265703297953 [Eh]
	-----------------------------------------------------------

  Dipole Moment: [D]
     X:    -2.0374      Y:    -0.5785      Z:     0.0463     Total:     2.1184

*** Psi4 exiting successfully. Buy a developer a beer!
