                               Psi4 1.4a3.dev225

  ==> Input File <==

--------------------------------------------------------------------------
#psi4
#
memory 32 gb

molecule  {
0 1
  N        0.1723510    -0.9422650    -0.0110160
  N       -0.2210270     1.4224780    -0.0033780
  C        2.0395230     0.5887340     0.0077330
  C        2.9514110    -0.3582210    -0.7410450
  C        2.9437130    -0.3688660     0.7522200
  C        0.5840210     0.3414150    -0.0010850
  C       -2.0855860    -0.1066610    -0.0107410
  C       -1.2184899    -1.0714639    -0.0147128
  C       -1.5403890     1.1790090    -0.0074550
  C       -3.5664500    -0.3550010     0.0190800
  H        2.3036370     1.6413390     0.0163460
  H        3.8028480     0.0735720    -1.2571040
  H        2.4662660    -1.1861320    -1.2466910
  H        2.4535620    -1.2039700     1.2409480
  H        3.7897520     0.0554290     1.2831630
  H       -1.4774160    -2.1870700    -0.0286840
  H       -2.1879510     2.0569620    -0.0148810
  H       -3.8167460    -1.2890820    -0.4911310
  H       -4.1087150     0.4576500    -0.4717300
  H       -3.9321000    -0.4275930     1.0483980
units angstrom
no_reorient  #important for SAPT in psi4, default
symmetry c1  #important for SAPT in psi4, default
}

set PROPERTIES_ORIGIN ["COM"]
properties('MP2/aug-cc-pvtz', properties = ['dipole'])
--------------------------------------------------------------------------

    Molecular point group: c1
  Charge       = 0
  Multiplicity = 1
  Basis Set: AUG-CC-PVTZ
    Blend: AUG-CC-PVTZ
  Basis Set: (AUG-CC-PVTZ AUX)
    Blend: AUG-CC-PVTZ-JKFIT

    Orbital Energies [Eh]
    ---------------------

    Doubly Occupied:

       1A    -15.566535     2A    -15.563720     3A    -11.311640
       4A    -11.298586     5A    -11.283880     6A    -11.239410
       7A    -11.236737     8A    -11.230459     9A    -11.225365
      10A    -11.224686    11A     -1.299805    12A     -1.172868
      13A     -1.148429    14A     -1.102010    15A     -0.967187
      16A     -0.902502    17A     -0.872647    18A     -0.818019
      19A     -0.791904    20A     -0.714453    21A     -0.694315
      22A     -0.645630    23A     -0.615248    24A     -0.602400
      25A     -0.589921    26A     -0.565618    27A     -0.558155
      28A     -0.557156    29A     -0.520844    30A     -0.510774
      31A     -0.471046    32A     -0.437294    33A     -0.424433
      34A     -0.407432    35A     -0.406895    36A     -0.346822

  @DF-RHF Final Energy:  -417.76495247114809

   => Energetics <=

    Nuclear Repulsion Energy =            494.3812418832075082
    One-Electron Energy =               -1545.6427380439956778
    Two-Electron Energy =                 633.4965436896402480
    Total Energy =                       -417.7649524711480353
  Basis Set: (AUG-CC-PVTZ AUX)
    Blend: AUG-CC-PVTZ-RI
    Molecular point group: c1

    Geometry (in Angstrom), charge = 0, multiplicity = 1:

       Center              X                  Y                   Z               Mass
    ------------   -----------------  -----------------  -----------------  -----------------
         N            0.173104038066    -0.963797592492    -0.010461270780    14.003074004430
         N           -0.220273961934     1.400945407508    -0.002823270780    14.003074004430
         C            2.040276038066     0.567201407508     0.008287729220    12.000000000000
         C            2.952164038066    -0.379753592492    -0.740490270780    12.000000000000
         C            2.944466038066    -0.390398592492     0.752774729220    12.000000000000
         C            0.584774038066     0.319882407508    -0.000530270780    12.000000000000
         C           -2.084832961934    -0.128193592492    -0.010186270780    12.000000000000
         C           -1.217736861934    -1.092996492492    -0.014158070780    12.000000000000
         C           -1.539635961934     1.157476407508    -0.006900270780    12.000000000000
         C           -3.565696961934    -0.376533592492     0.019634729220    12.000000000000
         H            2.304390038066     1.619806407508     0.016900729220     1.007825032230
         H            3.803601038066     0.052039407508    -1.256549270780     1.007825032230
         H            2.467019038066    -1.207664592492    -1.246136270780     1.007825032230
         H            2.454315038066    -1.225502592492     1.241502729220     1.007825032230
         H            3.790505038066     0.033896407508     1.283717729220     1.007825032230
         H           -1.476662961934    -2.208602592492    -0.028129270780     1.007825032230
         H           -2.187197961934     2.035429407508    -0.014326270780     1.007825032230
         H           -3.815992961934    -1.310614592492    -0.490576270780     1.007825032230
         H           -4.107961961934     0.436117407508    -0.471175270780     1.007825032230
         H           -3.931346961934    -0.449125592492     1.048952729220     1.007825032230

  Basis Set: AUG-CC-PVTZ
    Blend: AUG-CC-PVTZ
  Basis Set: (AUG-CC-PVTZ AUX)
    Blend: AUG-CC-PVTZ-JKFIT
	 Reference Energy          =    -417.7649524711480922 [Eh]
	 Singles Energy            =      -0.0000000000000000 [Eh]
	 Same-Spin Energy          =      -0.4577821994085176 [Eh]
	 Opposite-Spin Energy      =      -1.4486826550626879 [Eh]
	 Correlation Energy        =      -1.9064648544712055 [Eh]
	 Total Energy              =    -419.6714173256193021 [Eh]

	 ================> DF-SCS-MP2 Energies <==================
	-----------------------------------------------------------
	 SCS Same-Spin Scale       =       0.3333333333333333 [-]
	 SCS Opposite-Spin Scale   =       1.2000000000000000 [-]
	 SCS Same-Spin Energy      =      -0.1525940664695059 [Eh]
	 SCS Opposite-Spin Energy  =      -1.7384191860752254 [Eh]
	 SCS Correlation Energy    =      -1.8910132525447312 [Eh]
	 SCS Total Energy          =    -419.6559657236928160 [Eh]
	-----------------------------------------------------------

  Dipole Moment: [D]
     X:    -2.0463      Y:    -0.3861      Z:     0.0443     Total:     2.0829

*** Psi4 exiting successfully. Buy a developer a beer!
