                               Psi4 1.4a3.dev225

  ==> Input File <==

--------------------------------------------------------------------------
#psi4
#
memory 32 gb

molecule  {
0 1
  N        0.1723510    -0.9422650    -0.0110160
  N       -0.2210270     1.4224780    -0.0033780
  C        2.0395230     0.5887340     0.0077330
  C        2.9514110    -0.3582210    -0.7410450
  C        2.9437130    -0.3688660     0.7522200
  C        0.5840210     0.3414150    -0.0010850
  C       -2.0855860    -0.1066610    -0.0107410
  C       -1.1516460    -1.1458400    -0.0150190
  C       -1.5403890     1.1790090    -0.0074550
  C       -3.5664500    -0.3550010     0.0190800
  H        2.3036370     1.6413390     0.0163460
  H        3.8028480     0.0735720    -1.2571040
  H        2.4662660    -1.1861320    -1.2466910
  H        2.4535620    -1.2039700     1.2409480
  H        3.7897520     0.0554290     1.2831630
  H       -1.4774160    -2.1870700    -0.0286840
  H       -2.1879510     2.0569620    -0.0148810
  H       -3.8638648    -1.3232663    -0.3925963
  H       -4.1087150     0.4576500    -0.4717300
  H       -3.9321000    -0.4275930     1.0483980
units angstrom
no_reorient  #important for SAPT in psi4, default
symmetry c1  #important for SAPT in psi4, default
}

set PROPERTIES_ORIGIN ["COM"]
properties('MP2/aug-cc-pvtz', properties = ['dipole'])
--------------------------------------------------------------------------

    Molecular point group: c1
  Charge       = 0
  Multiplicity = 1
  Basis Set: AUG-CC-PVTZ
    Blend: AUG-CC-PVTZ
  Basis Set: (AUG-CC-PVTZ AUX)
    Blend: AUG-CC-PVTZ-JKFIT

    Orbital Energies [Eh]
    ---------------------

    Doubly Occupied:

       1A    -15.564352     2A    -15.564070     3A    -11.313637
       4A    -11.291941     5A    -11.290847     6A    -11.246517
       7A    -11.238160     8A    -11.231385     9A    -11.225900
      10A    -11.225219    11A     -1.301885    12A     -1.182736
      13A     -1.147200    14A     -1.088001    15A     -0.967302
      16A     -0.891524    17A     -0.875534    18A     -0.818687
      19A     -0.796661    20A     -0.715870    21A     -0.695389
      22A     -0.645940    23A     -0.614993    24A     -0.594657
      25A     -0.593198    26A     -0.582970    27A     -0.560983
      28A     -0.551560    29A     -0.523633    30A     -0.511033
      31A     -0.472367    32A     -0.433911    33A     -0.424340
      34A     -0.414438    35A     -0.403051    36A     -0.334016

  @DF-RHF Final Energy:  -417.77833212562632

   => Energetics <=

    Nuclear Repulsion Energy =            493.4592737025684528
    One-Electron Energy =               -1543.8073959676819413
    Two-Electron Energy =                 632.5697901394871678
    Total Energy =                       -417.7783321256263207
  Basis Set: (AUG-CC-PVTZ AUX)
    Blend: AUG-CC-PVTZ-RI
    Molecular point group: c1

    Geometry (in Angstrom), charge = 0, multiplicity = 1:

       Center              X                  Y                   Z               Mass
    ------------   -----------------  -----------------  -----------------  -----------------
         N            0.167475946332    -0.956884297546    -0.011174488264    14.003074004430
         N           -0.225902053668     1.407858702454    -0.003536488264    14.003074004430
         C            2.034647946332     0.574114702454     0.007574511736    12.000000000000
         C            2.946535946332    -0.372840297546    -0.741203488264    12.000000000000
         C            2.938837946332    -0.383485297546     0.752061511736    12.000000000000
         C            0.579145946332     0.326795702454    -0.001243488264    12.000000000000
         C           -2.090461053668    -0.121280297546    -0.010899488264    12.000000000000
         C           -1.156521053668    -1.160459297546    -0.015177488264    12.000000000000
         C           -1.545264053668     1.164389702454    -0.007613488264    12.000000000000
         C           -3.571325053668    -0.369620297546     0.018921511736    12.000000000000
         H            2.298761946332     1.626719702454     0.016187511736     1.007825032230
         H            3.797972946332     0.058952702454    -1.257262488264     1.007825032230
         H            2.461390946332    -1.200751297546    -1.246849488264     1.007825032230
         H            2.448686946332    -1.218589297546     1.240789511736     1.007825032230
         H            3.784876946332     0.040809702454     1.283004511736     1.007825032230
         H           -1.482291053668    -2.201689297546    -0.028842488264     1.007825032230
         H           -2.192826053668     2.042342702454    -0.015039488264     1.007825032230
         H           -3.868739853668    -1.337885597546    -0.392754788264     1.007825032230
         H           -4.113590053668     0.443030702454    -0.471888488264     1.007825032230
         H           -3.936975053668    -0.442212297546     1.048239511736     1.007825032230

  Basis Set: AUG-CC-PVTZ
    Blend: AUG-CC-PVTZ
  Basis Set: (AUG-CC-PVTZ AUX)
    Blend: AUG-CC-PVTZ-JKFIT
	 Reference Energy          =    -417.7783321256263207 [Eh]
	 Singles Energy            =      -0.0000000000000000 [Eh]
	 Same-Spin Energy          =      -0.4577626767800489 [Eh]
	 Opposite-Spin Energy      =      -1.4475560393581406 [Eh]
	 Correlation Energy        =      -1.9053187161381895 [Eh]
	 Total Energy              =    -419.6836508417645177 [Eh]

	 ================> DF-SCS-MP2 Energies <==================
	-----------------------------------------------------------
	 SCS Same-Spin Scale       =       0.3333333333333333 [-]
	 SCS Opposite-Spin Scale   =       1.2000000000000000 [-]
	 SCS Same-Spin Energy      =      -0.1525875589266830 [Eh]
	 SCS Opposite-Spin Energy  =      -1.7370672472297686 [Eh]
	 SCS Correlation Energy    =      -1.8896548061564515 [Eh]
	 SCS Total Energy          =    -419.6679869317827638 [Eh]
	-----------------------------------------------------------

  Dipole Moment: [D]
     X:    -2.0582      Y:    -0.5955      Z:     0.0790     Total:     2.1441

*** Psi4 exiting successfully. Buy a developer a beer!
