                               Psi4 1.4a3.dev225

  ==> Input File <==

--------------------------------------------------------------------------
#psi4
#
memory 32 gb

molecule  {
0 1
  N        0.1723510    -0.9422650    -0.0110160
  N       -0.2210270     1.4224780    -0.0033780
  C        2.0395230     0.5887340     0.0077330
  C        2.9514110    -0.3582210    -0.7410450
  C        2.9437130    -0.3688660     0.7522200
  C        0.5840210     0.3414150    -0.0010850
  C       -2.0855860    -0.1066610    -0.0107410
  C       -1.1516460    -1.1458400    -0.0150190
  C       -1.5325809     1.1974218    -0.0074079
  C       -3.5664500    -0.3550010     0.0190800
  H        2.3036370     1.6413390     0.0163460
  H        3.8028480     0.0735720    -1.2571040
  H        2.4662660    -1.1861320    -1.2466910
  H        2.4535620    -1.2039700     1.2409480
  H        3.7897520     0.0554290     1.2831630
  H       -1.4774160    -2.1870700    -0.0286840
  H       -2.1879510     2.0569620    -0.0148810
  H       -3.8167460    -1.2890820    -0.4911310
  H       -4.1087150     0.4576500    -0.4717300
  H       -3.9321000    -0.4275930     1.0483980
units angstrom
no_reorient  #important for SAPT in psi4, default
symmetry c1  #important for SAPT in psi4, default
}

set PROPERTIES_ORIGIN ["COM"]
properties('MP2/aug-cc-pvtz', properties = ['dipole'])
--------------------------------------------------------------------------

    Molecular point group: c1
  Charge       = 0
  Multiplicity = 1
  Basis Set: AUG-CC-PVTZ
    Blend: AUG-CC-PVTZ
  Basis Set: (AUG-CC-PVTZ AUX)
    Blend: AUG-CC-PVTZ-JKFIT

    Orbital Energies [Eh]
    ---------------------

    Doubly Occupied:

       1A    -15.563970     2A    -15.563541     3A    -11.313951
       4A    -11.291650     5A    -11.290222     6A    -11.246995
       7A    -11.237878     8A    -11.231430     9A    -11.225886
      10A    -11.225205    11A     -1.302272    12A     -1.184785
      13A     -1.146805    14A     -1.085412    15A     -0.967400
      16A     -0.891472    17A     -0.872667    18A     -0.818658
      19A     -0.797384    20A     -0.715240    21A     -0.696042
      22A     -0.645918    23A     -0.613535    24A     -0.597706
      25A     -0.592505    26A     -0.584640    27A     -0.558558
      28A     -0.554448    29A     -0.523465    30A     -0.511129
      31A     -0.471055    32A     -0.433595    33A     -0.424530
      34A     -0.415987    35A     -0.401425    36A     -0.331922

  @DF-RHF Final Energy:  -417.77917888020875

   => Energetics <=

    Nuclear Repulsion Energy =            493.3677615046086657
    One-Electron Energy =               -1543.6353216827956203
    Two-Electron Energy =                 632.4883812979783215
    Total Energy =                       -417.7791788802087467
  Basis Set: (AUG-CC-PVTZ AUX)
    Blend: AUG-CC-PVTZ-RI
    Molecular point group: c1

    Geometry (in Angstrom), charge = 0, multiplicity = 1:

       Center              X                  Y                   Z               Mass
    ------------   -----------------  -----------------  -----------------  -----------------
         N            0.166422992313    -0.958789108221    -0.010438082400    14.003074004430
         N           -0.226955007687     1.405953891779    -0.002800082400    14.003074004430
         C            2.033594992313     0.572209891779     0.008310917600    12.000000000000
         C            2.945482992313    -0.374745108221    -0.740467082400    12.000000000000
         C            2.937784992313    -0.385390108221     0.752797917600    12.000000000000
         C            0.578092992313     0.324890891779    -0.000507082400    12.000000000000
         C           -2.091514007687    -0.123185108221    -0.010163082400    12.000000000000
         C           -1.157574007687    -1.162364108221    -0.014441082400    12.000000000000
         C           -1.538508907687     1.180897691779    -0.006829982400    12.000000000000
         C           -3.572378007687    -0.371525108221     0.019657917600    12.000000000000
         H            2.297708992313     1.624814891779     0.016923917600     1.007825032230
         H            3.796919992313     0.057047891779    -1.256526082400     1.007825032230
         H            2.460337992313    -1.202656108221    -1.246113082400     1.007825032230
         H            2.447633992313    -1.220494108221     1.241525917600     1.007825032230
         H            3.783823992313     0.038904891779     1.283740917600     1.007825032230
         H           -1.483344007687    -2.203594108221    -0.028106082400     1.007825032230
         H           -2.193879007687     2.040437891779    -0.014303082400     1.007825032230
         H           -3.822674007687    -1.305606108221    -0.490553082400     1.007825032230
         H           -4.114643007687     0.441125891779    -0.471152082400     1.007825032230
         H           -3.938028007687    -0.444117108221     1.048975917600     1.007825032230

  Basis Set: AUG-CC-PVTZ
    Blend: AUG-CC-PVTZ
  Basis Set: (AUG-CC-PVTZ AUX)
    Blend: AUG-CC-PVTZ-JKFIT
	 Reference Energy          =    -417.7791788802087467 [Eh]
	 Singles Energy            =      -0.0000000000000000 [Eh]
	 Same-Spin Energy          =      -0.4576935738045916 [Eh]
	 Opposite-Spin Energy      =      -1.4474360357566720 [Eh]
	 Correlation Energy        =      -1.9051296095612635 [Eh]
	 Total Energy              =    -419.6843084897699896 [Eh]

	 ================> DF-SCS-MP2 Energies <==================
	-----------------------------------------------------------
	 SCS Same-Spin Scale       =       0.3333333333333333 [-]
	 SCS Opposite-Spin Scale   =       1.2000000000000000 [-]
	 SCS Same-Spin Energy      =      -0.1525645246015305 [Eh]
	 SCS Opposite-Spin Energy  =      -1.7369232429080064 [Eh]
	 SCS Correlation Energy    =      -1.8894877675095370 [Eh]
	 SCS Total Energy          =    -419.6686666477182825 [Eh]
	-----------------------------------------------------------

  Dipole Moment: [D]
     X:    -2.0548      Y:    -0.5350      Z:     0.0469     Total:     2.1238

*** Psi4 exiting successfully. Buy a developer a beer!
