                               Psi4 1.4a3.dev225

  ==> Input File <==

--------------------------------------------------------------------------
#psi4
#
memory 32 gb

molecule  {
0 1
  N        0.1723510    -0.9422650    -0.0110160
  N       -0.2210270     1.4224780    -0.0033780
  C        2.0395230     0.5887340     0.0077330
  C        2.9514110    -0.3582210    -0.7410450
  C        2.9437130    -0.3688660     0.7522200
  C        0.5840210     0.3414150    -0.0010850
  C       -2.0855860    -0.1066610    -0.0107410
  C       -1.1516460    -1.1458400    -0.0150190
  C       -1.5403890     1.1790090    -0.0074550
  C       -3.5664500    -0.3550010     0.0190800
  H        2.3036370     1.6413390     0.0163460
  H        3.8028480     0.0735720    -1.2571040
  H        2.4662660    -1.1861320    -1.2466910
  H        2.4625998    -1.1885716     1.2319364
  H        3.7897520     0.0554290     1.2831630
  H       -1.4774160    -2.1870700    -0.0286840
  H       -2.1879510     2.0569620    -0.0148810
  H       -3.8167460    -1.2890820    -0.4911310
  H       -4.1087150     0.4576500    -0.4717300
  H       -3.9321000    -0.4275930     1.0483980
units angstrom
no_reorient  #important for SAPT in psi4, default
symmetry c1  #important for SAPT in psi4, default
}

set PROPERTIES_ORIGIN ["COM"]
properties('MP2/aug-cc-pvtz', properties = ['dipole'])
--------------------------------------------------------------------------

    Molecular point group: c1
  Charge       = 0
  Multiplicity = 1
  Basis Set: AUG-CC-PVTZ
    Blend: AUG-CC-PVTZ
  Basis Set: (AUG-CC-PVTZ AUX)
    Blend: AUG-CC-PVTZ-JKFIT

    Orbital Energies [Eh]
    ---------------------

    Doubly Occupied:

       1A    -15.564036     2A    -15.564010     3A    -11.313526
       4A    -11.291869     5A    -11.290374     6A    -11.245609
       7A    -11.238143     8A    -11.231197     9A    -11.225454
      10A    -11.223264    11A     -1.301726    12A     -1.182575
      13A     -1.147363    14A     -1.088173    15A     -0.967152
      16A     -0.891384    17A     -0.874831    18A     -0.820523
      19A     -0.796724    20A     -0.716038    21A     -0.695386
      22A     -0.645978    23A     -0.614503    24A     -0.598337
      25A     -0.591605    26A     -0.582479    27A     -0.558326
      28A     -0.555045    29A     -0.524126    30A     -0.512693
      31A     -0.471809    32A     -0.434286    33A     -0.424190
      34A     -0.414331    35A     -0.402781    36A     -0.334328

  @DF-RHF Final Energy:  -417.77965599978751

   => Energetics <=

    Nuclear Repulsion Energy =            493.6245851550847306
    One-Electron Energy =               -1544.1401283439529379
    Two-Electron Energy =                 632.7358871890805858
    Total Energy =                       -417.7796559997875647
  Basis Set: (AUG-CC-PVTZ AUX)
    Blend: AUG-CC-PVTZ-RI
    Molecular point group: c1

    Geometry (in Angstrom), charge = 0, multiplicity = 1:

       Center              X                  Y                   Z               Mass
    ------------   -----------------  -----------------  -----------------  -----------------
         N            0.167053853770    -0.957256978386    -0.010366132821    14.003074004430
         N           -0.226324146230     1.407486021614    -0.002728132821    14.003074004430
         C            2.034225853770     0.573742021614     0.008382867179    12.000000000000
         C            2.946113853770    -0.373212978386    -0.740395132821    12.000000000000
         C            2.938415853770    -0.383857978386     0.752869867179    12.000000000000
         C            0.578723853770     0.326423021614    -0.000435132821    12.000000000000
         C           -2.090883146230    -0.121652978386    -0.010091132821    12.000000000000
         C           -1.156943146230    -1.160831978386    -0.014369132821    12.000000000000
         C           -1.545686146230     1.164017021614    -0.006805132821    12.000000000000
         C           -3.571747146230    -0.369992978386     0.019729867179    12.000000000000
         H            2.298339853770     1.626347021614     0.016995867179     1.007825032230
         H            3.797550853770     0.058580021614    -1.256454132821     1.007825032230
         H            2.460968853770    -1.201123978386    -1.246041132821     1.007825032230
         H            2.457302653770    -1.203563578386     1.232586267179     1.007825032230
         H            3.784454853770     0.040437021614     1.283812867179     1.007825032230
         H           -1.482713146230    -2.202061978386    -0.028034132821     1.007825032230
         H           -2.193248146230     2.041970021614    -0.014231132821     1.007825032230
         H           -3.822043146230    -1.304073978386    -0.490481132821     1.007825032230
         H           -4.114012146230     0.442658021614    -0.471080132821     1.007825032230
         H           -3.937397146230    -0.442584978386     1.049047867179     1.007825032230

  Basis Set: AUG-CC-PVTZ
    Blend: AUG-CC-PVTZ
  Basis Set: (AUG-CC-PVTZ AUX)
    Blend: AUG-CC-PVTZ-JKFIT
	 Reference Energy          =    -417.7796559997875079 [Eh]
	 Singles Energy            =      -0.0000000000000000 [Eh]
	 Same-Spin Energy          =      -0.4576777977643366 [Eh]
	 Opposite-Spin Energy      =      -1.4474061355673813 [Eh]
	 Correlation Energy        =      -1.9050839333317180 [Eh]
	 Total Energy              =    -419.6847399331192037 [Eh]

	 ================> DF-SCS-MP2 Energies <==================
	-----------------------------------------------------------
	 SCS Same-Spin Scale       =       0.3333333333333333 [-]
	 SCS Opposite-Spin Scale   =       1.2000000000000000 [-]
	 SCS Same-Spin Energy      =      -0.1525592659214455 [Eh]
	 SCS Opposite-Spin Energy  =      -1.7368873626808574 [Eh]
	 SCS Correlation Energy    =      -1.8894466286023031 [Eh]
	 SCS Total Energy          =    -419.6691026283897941 [Eh]
	-----------------------------------------------------------

  Dipole Moment: [D]
     X:    -2.0461      Y:    -0.5750      Z:     0.0505     Total:     2.1259

*** Psi4 exiting successfully. Buy a developer a beer!
