                               Psi4 1.4a3.dev225

  ==> Input File <==

--------------------------------------------------------------------------
#psi4
#
memory 32 gb

molecule  {
0 1
  N        0.1723510    -0.9422650    -0.0110160
  N       -0.2210270     1.4224780    -0.0033780
  C        2.0395230     0.5887340     0.0077330
  C        2.9514110    -0.3582210    -0.7410450
  C        2.9437130    -0.3688660     0.7522200
  C        0.5840210     0.3414150    -0.0010850
  C       -2.0855860    -0.1066610    -0.0107410
  C       -1.1516460    -1.1458400    -0.0150190
  C       -1.5403890     1.1790090    -0.0074550
  C       -3.5664500    -0.3550010     0.0190800
  H        2.3036370     1.6413390     0.0163460
  H        3.8028480     0.0735720    -1.2571040
  H        2.4662660    -1.1861320    -1.2466910
  H        2.4535620    -1.2039700     1.2409480
  H        3.8053440     0.0632485     1.2929480
  H       -1.4774160    -2.1870700    -0.0286840
  H       -2.1879510     2.0569620    -0.0148810
  H       -3.8167460    -1.2890820    -0.4911310
  H       -4.1087150     0.4576500    -0.4717300
  H       -3.9321000    -0.4275930     1.0483980
units angstrom
no_reorient  #important for SAPT in psi4, default
symmetry c1  #important for SAPT in psi4, default
}

set PROPERTIES_ORIGIN ["COM"]
properties('MP2/aug-cc-pvtz', properties = ['dipole'])
--------------------------------------------------------------------------

    Molecular point group: c1
  Charge       = 0
  Multiplicity = 1
  Basis Set: AUG-CC-PVTZ
    Blend: AUG-CC-PVTZ
  Basis Set: (AUG-CC-PVTZ AUX)
    Blend: AUG-CC-PVTZ-JKFIT

    Orbital Energies [Eh]
    ---------------------

    Doubly Occupied:

       1A    -15.564142     2A    -15.564110     3A    -11.313624
       4A    -11.291935     5A    -11.290440     6A    -11.245698
       7A    -11.238199     8A    -11.231474     9A    -11.227866
      10A    -11.225620    11A     -1.301814    12A     -1.182655
      13A     -1.147050    14A     -1.088140    15A     -0.967095
      16A     -0.891445    17A     -0.874614    18A     -0.816943
      19A     -0.796304    20A     -0.715733    21A     -0.694836
      22A     -0.644274    23A     -0.613647    24A     -0.598368
      25A     -0.591607    26A     -0.582479    27A     -0.558201
      28A     -0.555104    29A     -0.523232    30A     -0.509585
      31A     -0.471855    32A     -0.434137    33A     -0.424352
      34A     -0.414356    35A     -0.402848    36A     -0.334422

  @DF-RHF Final Energy:  -417.77897477038465

   => Energetics <=

    Nuclear Repulsion Energy =            493.4446651681413414
    One-Electron Energy =               -1543.7908734930449555
    Two-Electron Energy =                 632.5672335545190208
    Total Energy =                       -417.7789747703847070
  Basis Set: (AUG-CC-PVTZ AUX)
    Blend: AUG-CC-PVTZ-RI
    Molecular point group: c1

    Geometry (in Angstrom), charge = 0, multiplicity = 1:

       Center              X                  Y                   Z               Mass
    ------------   -----------------  -----------------  -----------------  -----------------
         N            0.167004590121    -0.957200012735    -0.010507414612    14.003074004430
         N           -0.226373409879     1.407542987265    -0.002869414612    14.003074004430
         C            2.034176590121     0.573798987265     0.008241585388    12.000000000000
         C            2.946064590121    -0.373156012735    -0.740536414612    12.000000000000
         C            2.938366590121    -0.383801012735     0.752728585388    12.000000000000
         C            0.578674590121     0.326479987265    -0.000576414612    12.000000000000
         C           -2.090932409879    -0.121596012735    -0.010232414612    12.000000000000
         C           -1.156992409879    -1.160775012735    -0.014510414612    12.000000000000
         C           -1.545735409879     1.164073987265    -0.006946414612    12.000000000000
         C           -3.571796409879    -0.369936012735     0.019588585388    12.000000000000
         H            2.298290590121     1.626403987265     0.016854585388     1.007825032230
         H            3.797501590121     0.058636987265    -1.256595414612     1.007825032230
         H            2.460919590121    -1.201067012735    -1.246182414612     1.007825032230
         H            2.448215590121    -1.218905012735     1.241456585388     1.007825032230
         H            3.799997590121     0.048313487265     1.293456585388     1.007825032230
         H           -1.482762409879    -2.202005012735    -0.028175414612     1.007825032230
         H           -2.193297409879     2.042026987265    -0.014372414612     1.007825032230
         H           -3.822092409879    -1.304017012735    -0.490622414612     1.007825032230
         H           -4.114061409879     0.442714987265    -0.471221414612     1.007825032230
         H           -3.937446409879    -0.442528012735     1.048906585388     1.007825032230

  Basis Set: AUG-CC-PVTZ
    Blend: AUG-CC-PVTZ
  Basis Set: (AUG-CC-PVTZ AUX)
    Blend: AUG-CC-PVTZ-JKFIT
	 Reference Energy          =    -417.7789747703846501 [Eh]
	 Singles Energy            =      -0.0000000000000000 [Eh]
	 Same-Spin Energy          =      -0.4577186568906972 [Eh]
	 Opposite-Spin Energy      =      -1.4476564196550625 [Eh]
	 Correlation Energy        =      -1.9053750765457598 [Eh]
	 Total Energy              =    -419.6843498469303881 [Eh]

	 ================> DF-SCS-MP2 Energies <==================
	-----------------------------------------------------------
	 SCS Same-Spin Scale       =       0.3333333333333333 [-]
	 SCS Opposite-Spin Scale   =       1.2000000000000000 [-]
	 SCS Same-Spin Energy      =      -0.1525728856302324 [Eh]
	 SCS Opposite-Spin Energy  =      -1.7371877035860750 [Eh]
	 SCS Correlation Energy    =      -1.8897605892163074 [Eh]
	 SCS Total Energy          =    -419.6687353596009302 [Eh]
	-----------------------------------------------------------

  Dipole Moment: [D]
     X:    -2.0562      Y:    -0.5732      Z:     0.0398     Total:     2.1349

*** Psi4 exiting successfully. Buy a developer a beer!
