                               Psi4 1.4a3.dev225

  ==> Input File <==

--------------------------------------------------------------------------
#psi4
#
memory 32 gb

molecule  {
0 1
  N        0.1723510    -0.9422650    -0.0110160
  N       -0.2210270     1.4224780    -0.0033780
  C        2.0395230     0.5887340     0.0077330
  C        2.9514110    -0.3582210    -0.7410450
  C        2.9437130    -0.3688660     0.7522200
  C        0.5840210     0.3414150    -0.0010850
  C       -2.0855860    -0.1066610    -0.0107410
  C       -1.1516460    -1.1458400    -0.0150190
  C       -1.5403890     1.1790090    -0.0074550
  C       -3.5664500    -0.3550010     0.0190800
  H        2.3036370     1.6413390     0.0163460
  H        3.8028480     0.0735720    -1.2571040
  H        2.4662660    -1.1861320    -1.2466910
  H        2.4535620    -1.2039700     1.2409480
  H        3.7117921     0.0163315     1.2342382
  H       -1.4774160    -2.1870700    -0.0286840
  H       -2.1879510     2.0569620    -0.0148810
  H       -3.8167460    -1.2890820    -0.4911310
  H       -4.1087150     0.4576500    -0.4717300
  H       -3.9321000    -0.4275930     1.0483980
units angstrom
no_reorient  #important for SAPT in psi4, default
symmetry c1  #important for SAPT in psi4, default
}

set PROPERTIES_ORIGIN ["COM"]
properties('MP2/aug-cc-pvtz', properties = ['dipole'])
--------------------------------------------------------------------------

    Molecular point group: c1
  Charge       = 0
  Multiplicity = 1
  Basis Set: AUG-CC-PVTZ
    Blend: AUG-CC-PVTZ
  Basis Set: (AUG-CC-PVTZ AUX)
    Blend: AUG-CC-PVTZ-JKFIT

    Orbital Energies [Eh]
    ---------------------

    Doubly Occupied:

       1A    -15.563716     2A    -15.563601     3A    -11.313211
       4A    -11.291572     5A    -11.290092     6A    -11.245294
       7A    -11.237938     8A    -11.230821     9A    -11.224950
      10A    -11.213677    11A     -1.301384    12A     -1.182249
      13A     -1.148175    14A     -1.088256    15A     -0.967419
      16A     -0.891082    17A     -0.875902    18A     -0.829599
      19A     -0.797001    20A     -0.716471    21A     -0.694686
      22A     -0.654619    23A     -0.613589    24A     -0.598261
      25A     -0.591313    26A     -0.582597    27A     -0.559168
      28A     -0.554830    29A     -0.526101    30A     -0.516315
      31A     -0.471652    32A     -0.434288    33A     -0.423980
      34A     -0.413990    35A     -0.402420    36A     -0.334164

  @DF-RHF Final Energy:  -417.77339710708009

   => Energetics <=

    Nuclear Repulsion Energy =            494.0680507344740704
    One-Electron Energy =               -1544.9941258541148272
    Two-Electron Energy =                 633.1526780125606138
    Total Energy =                       -417.7733971070800862
  Basis Set: (AUG-CC-PVTZ AUX)
    Blend: AUG-CC-PVTZ-RI
    Molecular point group: c1

    Geometry (in Angstrom), charge = 0, multiplicity = 1:

       Center              X                  Y                   Z               Mass
    ------------   -----------------  -----------------  -----------------  -----------------
         N            0.167707758780    -0.956847368224    -0.010066131310    14.003074004430
         N           -0.225670241220     1.407895631776    -0.002428131310    14.003074004430
         C            2.034879758780     0.574151631776     0.008682868690    12.000000000000
         C            2.946767758780    -0.372803368224    -0.740095131310    12.000000000000
         C            2.939069758780    -0.383448368224     0.753169868690    12.000000000000
         C            0.579377758780     0.326832631776    -0.000135131310    12.000000000000
         C           -2.090229241220    -0.121243368224    -0.009791131310    12.000000000000
         C           -1.156289241220    -1.160422368224    -0.014069131310    12.000000000000
         C           -1.545032241220     1.164426631776    -0.006505131310    12.000000000000
         C           -3.571093241220    -0.369583368224     0.020029868690    12.000000000000
         H            2.298993758780     1.626756631776     0.017295868690     1.007825032230
         H            3.798204758780     0.058989631776    -1.256154131310     1.007825032230
         H            2.461622758780    -1.200714368224    -1.245741131310     1.007825032230
         H            2.448918758780    -1.218552368224     1.241897868690     1.007825032230
         H            3.707148858780     0.001749131776     1.235188068690     1.007825032230
         H           -1.482059241220    -2.201652368224    -0.027734131310     1.007825032230
         H           -2.192594241220     2.042379631776    -0.013931131310     1.007825032230
         H           -3.821389241220    -1.303664368224    -0.490181131310     1.007825032230
         H           -4.113358241220     0.443067631776    -0.470780131310     1.007825032230
         H           -3.936743241220    -0.442175368224     1.049347868690     1.007825032230

  Basis Set: AUG-CC-PVTZ
    Blend: AUG-CC-PVTZ
  Basis Set: (AUG-CC-PVTZ AUX)
    Blend: AUG-CC-PVTZ-JKFIT
	 Reference Energy          =    -417.7733971070800862 [Eh]
	 Singles Energy            =      -0.0000000000000000 [Eh]
	 Same-Spin Energy          =      -0.4576989560405934 [Eh]
	 Opposite-Spin Energy      =      -1.4471422938851566 [Eh]
	 Correlation Energy        =      -1.9048412499257501 [Eh]
	 Total Energy              =    -419.6782383570058528 [Eh]

	 ================> DF-SCS-MP2 Energies <==================
	-----------------------------------------------------------
	 SCS Same-Spin Scale       =       0.3333333333333333 [-]
	 SCS Opposite-Spin Scale   =       1.2000000000000000 [-]
	 SCS Same-Spin Energy      =      -0.1525663186801978 [Eh]
	 SCS Opposite-Spin Energy  =      -1.7365707526621879 [Eh]
	 SCS Correlation Energy    =      -1.8891370713423856 [Eh]
	 SCS Total Energy          =    -419.6625341784224474 [Eh]
	-----------------------------------------------------------

  Dipole Moment: [D]
     X:    -2.0147      Y:    -0.5740      Z:     0.0709     Total:     2.0961

*** Psi4 exiting successfully. Buy a developer a beer!
