                               Psi4 1.4a3.dev225

  ==> Input File <==

--------------------------------------------------------------------------
#psi4
#
memory 32 gb

molecule  {
0 1
  N        0.1723510    -0.9422650    -0.0110160
  N       -0.2210270     1.4224780    -0.0033780
  C        2.0395230     0.5887340     0.0077330
  C        2.9514110    -0.3582210    -0.7410450
  C        2.9437130    -0.3688660     0.7522200
  C        0.5840210     0.3414150    -0.0010850
  C       -2.0855860    -0.1066610    -0.0107410
  C       -1.1516460    -1.1458400    -0.0150190
  C       -1.5403890     1.1790090    -0.0074550
  C       -3.5664500    -0.3550010     0.0190800
  H        2.3036370     1.6413390     0.0163460
  H        3.8028480     0.0735720    -1.2571040
  H        2.4662660    -1.1861320    -1.2466910
  H        2.4535620    -1.2039700     1.2409480
  H        3.7897520     0.0554290     1.2831630
  H       -1.4774160    -2.1870700    -0.0286840
  H       -2.1879510     2.0569620    -0.0148810
  H       -3.8167460    -1.2890820    -0.4911310
  H       -4.1087150     0.4576500    -0.4717300
  H       -3.8652990    -0.4143311     0.8603508
units angstrom
no_reorient  #important for SAPT in psi4, default
symmetry c1  #important for SAPT in psi4, default
}

set PROPERTIES_ORIGIN ["COM"]
properties('MP2/aug-cc-pvtz', properties = ['dipole'])
--------------------------------------------------------------------------

    Molecular point group: c1
  Charge       = 0
  Multiplicity = 1
  Basis Set: AUG-CC-PVTZ
    Blend: AUG-CC-PVTZ
  Basis Set: (AUG-CC-PVTZ AUX)
    Blend: AUG-CC-PVTZ-JKFIT

    Orbital Energies [Eh]
    ---------------------

    Doubly Occupied:

       1A    -15.563587     2A    -15.563537     3A    -11.313072
       4A    -11.291302     5A    -11.289809     6A    -11.244563
       7A    -11.231027     8A    -11.225593     9A    -11.224912
      10A    -11.213668    11A     -1.301258    12A     -1.182102
      13A     -1.147049    14A     -1.093039    15A     -0.983129
      16A     -0.892070    17A     -0.881494    18A     -0.818396
      19A     -0.796644    20A     -0.715570    21A     -0.695281
      22A     -0.647339    23A     -0.631043    24A     -0.610776
      25A     -0.592440    26A     -0.581926    27A     -0.565956
      28A     -0.553530    29A     -0.523145    30A     -0.511067
      31A     -0.471412    32A     -0.434801    33A     -0.423978
      34A     -0.413819    35A     -0.402300    36A     -0.335458

  @DF-RHF Final Energy:  -417.74569399527394

   => Energetics <=

    Nuclear Repulsion Energy =            494.5367694211539629
    One-Electron Energy =               -1545.8327413553731731
    Two-Electron Energy =                 633.5502779389454417
    Total Energy =                       -417.7456939952738821
  Basis Set: (AUG-CC-PVTZ AUX)
    Blend: AUG-CC-PVTZ-RI
    Molecular point group: c1

    Geometry (in Angstrom), charge = 0, multiplicity = 1:

       Center              X                  Y                   Z               Mass
    ------------   -----------------  -----------------  -----------------  -----------------
         N            0.166619685443    -0.957240919708    -0.009020438903    14.003074004430
         N           -0.226758314557     1.407502080292    -0.001382438903    14.003074004430
         C            2.033791685443     0.573758080292     0.009728561097    12.000000000000
         C            2.945679685443    -0.373196919708    -0.739049438903    12.000000000000
         C            2.937981685443    -0.383841919708     0.754215561097    12.000000000000
         C            0.578289685443     0.326439080292     0.000910561097    12.000000000000
         C           -2.091317314557    -0.121636919708    -0.008745438903    12.000000000000
         C           -1.157377314557    -1.160815919708    -0.013023438903    12.000000000000
         C           -1.546120314557     1.164033080292    -0.005459438903    12.000000000000
         C           -3.572181314557    -0.369976919708     0.021075561097    12.000000000000
         H            2.297905685443     1.626363080292     0.018341561097     1.007825032230
         H            3.797116685443     0.058596080292    -1.255108438903     1.007825032230
         H            2.460534685443    -1.201107919708    -1.244695438903     1.007825032230
         H            2.447830685443    -1.218945919708     1.242943561097     1.007825032230
         H            3.784020685443     0.040453080292     1.285158561097     1.007825032230
         H           -1.483147314557    -2.202045919708    -0.026688438903     1.007825032230
         H           -2.193682314557     2.041986080292    -0.012885438903     1.007825032230
         H           -3.822477314557    -1.304057919708    -0.489135438903     1.007825032230
         H           -4.114446314557     0.442674080292    -0.469734438903     1.007825032230
         H           -3.871030314557    -0.429307019708     0.862346361097     1.007825032230

  Basis Set: AUG-CC-PVTZ
    Blend: AUG-CC-PVTZ
  Basis Set: (AUG-CC-PVTZ AUX)
    Blend: AUG-CC-PVTZ-JKFIT
	 Reference Energy          =    -417.7456939952739390 [Eh]
	 Singles Energy            =      -0.0000000000000000 [Eh]
	 Same-Spin Energy          =      -0.4578724403852054 [Eh]
	 Opposite-Spin Energy      =      -1.4470199728580386 [Eh]
	 Correlation Energy        =      -1.9048924132432439 [Eh]
	 Total Energy              =    -419.6505864085171993 [Eh]

	 ================> DF-SCS-MP2 Energies <==================
	-----------------------------------------------------------
	 SCS Same-Spin Scale       =       0.3333333333333333 [-]
	 SCS Opposite-Spin Scale   =       1.2000000000000000 [-]
	 SCS Same-Spin Energy      =      -0.1526241467950684 [Eh]
	 SCS Opposite-Spin Energy  =      -1.7364239674296462 [Eh]
	 SCS Correlation Energy    =      -1.8890481142247146 [Eh]
	 SCS Total Energy          =    -419.6347421094986316 [Eh]
	-----------------------------------------------------------

  Dipole Moment: [D]
     X:    -2.0902      Y:    -0.5801      Z:     0.0756     Total:     2.1706

*** Psi4 exiting successfully. Buy a developer a beer!
