                               Psi4 1.4a3.dev225

  ==> Input File <==

--------------------------------------------------------------------------
#psi4
#
memory 32 gb

molecule  {
0 1
  N        0.1723510    -0.9422650    -0.0110160
  N       -0.2210270     1.4224780    -0.0033780
  C        2.0395230     0.5887340     0.0077330
  C        2.9514110    -0.3582210    -0.7410450
  C        2.9437130    -0.3688660     0.7522200
  C        0.5840210     0.3414150    -0.0010850
  C       -2.0855860    -0.1066610    -0.0107410
  C       -1.1516460    -1.1458400    -0.0150190
  C       -1.5403890     1.1790090    -0.0074550
  C       -3.5664500    -0.3550010     0.0190800
  H        2.3036370     1.6413390     0.0163460
  H        3.8028480     0.0735720    -1.2571040
  H        2.4662660    -1.1861320    -1.2466910
  H        2.4309675    -1.2424659     1.2634769
  H        3.7897520     0.0554290     1.2831630
  H       -1.4774160    -2.1870700    -0.0286840
  H       -2.1879510     2.0569620    -0.0148810
  H       -3.8167460    -1.2890820    -0.4911310
  H       -4.1087150     0.4576500    -0.4717300
  H       -3.9321000    -0.4275930     1.0483980
units angstrom
no_reorient  #important for SAPT in psi4, default
symmetry c1  #important for SAPT in psi4, default
}

set PROPERTIES_ORIGIN ["COM"]
properties('MP2/aug-cc-pvtz', properties = ['dipole'])
--------------------------------------------------------------------------

    Molecular point group: c1
  Charge       = 0
  Multiplicity = 1
  Basis Set: AUG-CC-PVTZ
    Blend: AUG-CC-PVTZ
  Basis Set: (AUG-CC-PVTZ AUX)
    Blend: AUG-CC-PVTZ-JKFIT

    Orbital Energies [Eh]
    ---------------------

    Doubly Occupied:

       1A    -15.564119     2A    -15.564004     3A    -11.313588
       4A    -11.291845     5A    -11.290365     6A    -11.245645
       7A    -11.238158     8A    -11.231810     9A    -11.230809
      10A    -11.225848    11A     -1.301737    12A     -1.182572
      13A     -1.146767    14A     -1.088054    15A     -0.967042
      16A     -0.891349    17A     -0.874536    18A     -0.814771
      19A     -0.795657    20A     -0.715352    21A     -0.693340
      22A     -0.645802    23A     -0.611535    24A     -0.598357
      25A     -0.591391    26A     -0.582512    27A     -0.558364
      28A     -0.555060    29A     -0.522536    30A     -0.506231
      31A     -0.471836    32A     -0.433802    33A     -0.424510
      34A     -0.414145    35A     -0.402703    36A     -0.334472

  @DF-RHF Final Energy:  -417.77715729260382

   => Energetics <=

    Nuclear Repulsion Energy =            493.3451388605168404
    One-Electron Energy =               -1543.6033469155861440
    Two-Electron Energy =                 632.4810507624654292
    Total Energy =                       -417.7771572926037607
  Basis Set: (AUG-CC-PVTZ AUX)
    Blend: AUG-CC-PVTZ-RI
    Molecular point group: c1

    Geometry (in Angstrom), charge = 0, multiplicity = 1:

       Center              X                  Y                   Z               Mass
    ------------   -----------------  -----------------  -----------------  -----------------
         N            0.167291613153    -0.956851890059    -0.010603202203    14.003074004430
         N           -0.226086386847     1.407891109941    -0.002965202203    14.003074004430
         C            2.034463613153     0.574147109941     0.008145797797    12.000000000000
         C            2.946351613153    -0.372807890059    -0.740632202203    12.000000000000
         C            2.938653613153    -0.383452890059     0.752632797797    12.000000000000
         C            0.578961613153     0.326828109941    -0.000672202203    12.000000000000
         C           -2.090645386847    -0.121247890059    -0.010328202203    12.000000000000
         C           -1.156705386847    -1.160426890059    -0.014606202203    12.000000000000
         C           -1.545448386847     1.164422109941    -0.007042202203    12.000000000000
         C           -3.571509386847    -0.369587890059     0.019492797797    12.000000000000
         H            2.298577613153     1.626752109941     0.016758797797     1.007825032230
         H            3.797788613153     0.058985109941    -1.256691202203     1.007825032230
         H            2.461206613153    -1.200718890059    -1.246278202203     1.007825032230
         H            2.425908113153    -1.257052790059     1.263889697797     1.007825032230
         H            3.784692613153     0.040842109941     1.283575797797     1.007825032230
         H           -1.482475386847    -2.201656890059    -0.028271202203     1.007825032230
         H           -2.193010386847     2.042375109941    -0.014468202203     1.007825032230
         H           -3.821805386847    -1.303668890059    -0.490718202203     1.007825032230
         H           -4.113774386847     0.443063109941    -0.471317202203     1.007825032230
         H           -3.937159386847    -0.442179890059     1.048810797797     1.007825032230

  Basis Set: AUG-CC-PVTZ
    Blend: AUG-CC-PVTZ
  Basis Set: (AUG-CC-PVTZ AUX)
    Blend: AUG-CC-PVTZ-JKFIT
	 Reference Energy          =    -417.7771572926038175 [Eh]
	 Singles Energy            =      -0.0000000000000000 [Eh]
	 Same-Spin Energy          =      -0.4578015143702112 [Eh]
	 Opposite-Spin Energy      =      -1.4479164108968099 [Eh]
	 Correlation Energy        =      -1.9057179252670211 [Eh]
	 Total Energy              =    -419.6828752178708442 [Eh]

	 ================> DF-SCS-MP2 Energies <==================
	-----------------------------------------------------------
	 SCS Same-Spin Scale       =       0.3333333333333333 [-]
	 SCS Opposite-Spin Scale   =       1.2000000000000000 [-]
	 SCS Same-Spin Energy      =      -0.1526005047900704 [Eh]
	 SCS Opposite-Spin Energy  =      -1.7374996930761719 [Eh]
	 SCS Correlation Energy    =      -1.8901001978662424 [Eh]
	 SCS Total Energy          =    -419.6672574904700355 [Eh]
	-----------------------------------------------------------

  Dipole Moment: [D]
     X:    -2.0507      Y:    -0.5669      Z:     0.0338     Total:     2.1279

*** Psi4 exiting successfully. Buy a developer a beer!
