                               Psi4 1.4a3.dev225

  ==> Input File <==

--------------------------------------------------------------------------
#psi4
#
memory 32 gb

molecule  {
0 1
  N        0.1723510    -0.9422650    -0.0110160
  N       -0.2210270     1.4224780    -0.0033780
  C        2.0395230     0.5887340     0.0077330
  C        2.9514110    -0.3582210    -0.7410450
  C        2.9437130    -0.3688660     0.7522200
  C        0.5840210     0.3414150    -0.0010850
  C       -2.0855860    -0.1066610    -0.0107410
  C       -1.3493221    -1.1762343    -0.0156167
  C       -1.5403890     1.1790090    -0.0074550
  C       -3.5664500    -0.3550010     0.0190800
  H        2.3036370     1.6413390     0.0163460
  H        3.8028480     0.0735720    -1.2571040
  H        2.4662660    -1.1861320    -1.2466910
  H        2.4535620    -1.2039700     1.2409480
  H        3.7897520     0.0554290     1.2831630
  H       -1.4774160    -2.1870700    -0.0286840
  H       -2.1879510     2.0569620    -0.0148810
  H       -3.8167460    -1.2890820    -0.4911310
  H       -4.1087150     0.4576500    -0.4717300
  H       -3.9321000    -0.4275930     1.0483980
units angstrom
no_reorient  #important for SAPT in psi4, default
symmetry c1  #important for SAPT in psi4, default
}

set PROPERTIES_ORIGIN ["COM"]
properties('MP2/aug-cc-pvtz', properties = ['dipole'])
--------------------------------------------------------------------------

    Molecular point group: c1
  Charge       = 0
  Multiplicity = 1
  Basis Set: AUG-CC-PVTZ
    Blend: AUG-CC-PVTZ
  Basis Set: (AUG-CC-PVTZ AUX)
    Blend: AUG-CC-PVTZ-JKFIT

    Orbital Energies [Eh]
    ---------------------

    Doubly Occupied:

       1A    -15.570193     2A    -15.563876     3A    -11.306836
       4A    -11.302870     5A    -11.286014     6A    -11.243602
       7A    -11.237425     8A    -11.228164     9A    -11.222324
      10A    -11.221640    11A     -1.285988    12A     -1.156598
      13A     -1.141201    14A     -1.100356    15A     -0.962496
      16A     -0.912355    17A     -0.868345    18A     -0.815042
      19A     -0.794634    20A     -0.706369    21A     -0.702902
      22A     -0.644435    23A     -0.616586    24A     -0.600446
      25A     -0.598460    26A     -0.585296    27A     -0.556159
      28A     -0.549476    29A     -0.520935    30A     -0.507682
      31A     -0.450036    32A     -0.435405    33A     -0.419701
      34A     -0.404746    35A     -0.391679    36A     -0.348682

  @DF-RHF Final Energy:  -417.73259184192710

   => Energetics <=

    Nuclear Repulsion Energy =            491.6931244551237796
    One-Electron Energy =               -1540.3335243742008061
    Two-Electron Energy =                 630.9078080771498662
    Total Energy =                       -417.7325918419271602
  Basis Set: (AUG-CC-PVTZ AUX)
    Blend: AUG-CC-PVTZ-RI
    Molecular point group: c1

    Geometry (in Angstrom), charge = 0, multiplicity = 1:

       Center              X                  Y                   Z               Mass
    ------------   -----------------  -----------------  -----------------  -----------------
         N            0.184812979744    -0.954421074301    -0.010380375463    14.003074004430
         N           -0.208565020256     1.410321925699    -0.002742375463    14.003074004430
         C            2.051984979744     0.576577925699     0.008368624537    12.000000000000
         C            2.963872979744    -0.370377074301    -0.740409375463    12.000000000000
         C            2.956174979744    -0.381022074301     0.752855624537    12.000000000000
         C            0.596482979744     0.329258925699    -0.000449375463    12.000000000000
         C           -2.073124020256    -0.118817074301    -0.010105375463    12.000000000000
         C           -1.336860120256    -1.188390374301    -0.014981075463    12.000000000000
         C           -1.527927020256     1.166852925699    -0.006819375463    12.000000000000
         C           -3.553988020256    -0.367157074301     0.019715624537    12.000000000000
         H            2.316098979744     1.629182925699     0.016981624537     1.007825032230
         H            3.815309979744     0.061415925699    -1.256468375463     1.007825032230
         H            2.478727979744    -1.198288074301    -1.246055375463     1.007825032230
         H            2.466023979744    -1.216126074301     1.241583624537     1.007825032230
         H            3.802213979744     0.043272925699     1.283798624537     1.007825032230
         H           -1.464954020256    -2.199226074301    -0.028048375463     1.007825032230
         H           -2.175489020256     2.044805925699    -0.014245375463     1.007825032230
         H           -3.804284020256    -1.301238074301    -0.490495375463     1.007825032230
         H           -4.096253020256     0.445493925699    -0.471094375463     1.007825032230
         H           -3.919638020256    -0.439749074301     1.049033624537     1.007825032230

  Basis Set: AUG-CC-PVTZ
    Blend: AUG-CC-PVTZ
  Basis Set: (AUG-CC-PVTZ AUX)
    Blend: AUG-CC-PVTZ-JKFIT
	 Reference Energy          =    -417.7325918419271034 [Eh]
	 Singles Energy            =      -0.0000000000000000 [Eh]
	 Same-Spin Energy          =      -0.4590901693423195 [Eh]
	 Opposite-Spin Energy      =      -1.4540242180423462 [Eh]
	 Correlation Energy        =      -1.9131143873846657 [Eh]
	 Total Energy              =    -419.6457062293117701 [Eh]

	 ================> DF-SCS-MP2 Energies <==================
	-----------------------------------------------------------
	 SCS Same-Spin Scale       =       0.3333333333333333 [-]
	 SCS Opposite-Spin Scale   =       1.2000000000000000 [-]
	 SCS Same-Spin Energy      =      -0.1530300564474398 [Eh]
	 SCS Opposite-Spin Energy  =      -1.7448290616508153 [Eh]
	 SCS Correlation Energy    =      -1.8978591180982551 [Eh]
	 SCS Total Energy          =    -419.6304509600253709 [Eh]
	-----------------------------------------------------------

  Dipole Moment: [D]
     X:    -2.2165      Y:    -0.5128      Z:     0.0405     Total:     2.2754

*** Psi4 exiting successfully. Buy a developer a beer!
