                               Psi4 1.4a3.dev225

  ==> Input File <==

--------------------------------------------------------------------------
#psi4
#
memory 32 gb

molecule  {
0 1
  N        0.1723510    -0.9422650    -0.0110160
  N       -0.2210270     1.4224780    -0.0033780
  C        2.0395230     0.5887340     0.0077330
  C        2.9514110    -0.3582210    -0.7410450
  C        2.9437130    -0.3688660     0.7522200
  C        0.5840210     0.3414150    -0.0010850
  C       -2.0945541    -0.0617870    -0.0363124
  C       -1.1516460    -1.1458400    -0.0150190
  C       -1.5403890     1.1790090    -0.0074550
  C       -3.5664500    -0.3550010     0.0190800
  H        2.3036370     1.6413390     0.0163460
  H        3.8028480     0.0735720    -1.2571040
  H        2.4662660    -1.1861320    -1.2466910
  H        2.4535620    -1.2039700     1.2409480
  H        3.7897520     0.0554290     1.2831630
  H       -1.4774160    -2.1870700    -0.0286840
  H       -2.1879510     2.0569620    -0.0148810
  H       -3.8167460    -1.2890820    -0.4911310
  H       -4.1087150     0.4576500    -0.4717300
  H       -3.9321000    -0.4275930     1.0483980
units angstrom
no_reorient  #important for SAPT in psi4, default
symmetry c1  #important for SAPT in psi4, default
}

set PROPERTIES_ORIGIN ["COM"]
properties('MP2/aug-cc-pvtz', properties = ['dipole'])
--------------------------------------------------------------------------

    Molecular point group: c1
  Charge       = 0
  Multiplicity = 1
  Basis Set: AUG-CC-PVTZ
    Blend: AUG-CC-PVTZ
  Basis Set: (AUG-CC-PVTZ AUX)
    Blend: AUG-CC-PVTZ-JKFIT

    Orbital Energies [Eh]
    ---------------------

    Doubly Occupied:

       1A    -15.566380     2A    -15.561798     3A    -11.313748
       4A    -11.299122     5A    -11.282771     6A    -11.245487
       7A    -11.238236     8A    -11.231512     9A    -11.226106
      10A    -11.225425    11A     -1.301759    12A     -1.182783
      13A     -1.147149    14A     -1.088500    15A     -0.967317
      16A     -0.890684    17A     -0.876064    18A     -0.818943
      19A     -0.795527    20A     -0.715262    21A     -0.695569
      22A     -0.645889    23A     -0.613791    24A     -0.597799
      25A     -0.594944    26A     -0.579943    27A     -0.558390
      28A     -0.554296    29A     -0.523652    30A     -0.511415
      31A     -0.471446    32A     -0.434255    33A     -0.424159
      34A     -0.414891    35A     -0.402497    36A     -0.334671

  @DF-RHF Final Energy:  -417.77686977857252

   => Energetics <=

    Nuclear Repulsion Energy =            493.5000227242128972
    One-Electron Energy =               -1543.8894265963147063
    Two-Electron Energy =                 632.6125340935293480
    Total Energy =                       -417.7768697785725180
  Basis Set: (AUG-CC-PVTZ AUX)
    Blend: AUG-CC-PVTZ-RI
    Molecular point group: c1

    Geometry (in Angstrom), charge = 0, multiplicity = 1:

       Center              X                  Y                   Z               Mass
    ------------   -----------------  -----------------  -----------------  -----------------
         N            0.167924392942    -0.961157276359    -0.008145332432    14.003074004430
         N           -0.225453607058     1.403585723641    -0.000507332432    14.003074004430
         C            2.035096392942     0.569841723641     0.010603667568    12.000000000000
         C            2.946984392942    -0.377113276359    -0.738174332432    12.000000000000
         C            2.939286392942    -0.387758276359     0.755090667568    12.000000000000
         C            0.579594392942     0.322522723641     0.001785667568    12.000000000000
         C           -2.098980707058    -0.080679276359    -0.033441732432    12.000000000000
         C           -1.156072607058    -1.164732276359    -0.012148332432    12.000000000000
         C           -1.544815607058     1.160116723641    -0.004584332432    12.000000000000
         C           -3.570876607058    -0.373893276359     0.021950667568    12.000000000000
         H            2.299210392942     1.622446723641     0.019216667568     1.007825032230
         H            3.798421392942     0.054679723641    -1.254233332432     1.007825032230
         H            2.461839392942    -1.205024276359    -1.243820332432     1.007825032230
         H            2.449135392942    -1.222862276359     1.243818667568     1.007825032230
         H            3.785325392942     0.036536723641     1.286033667568     1.007825032230
         H           -1.481842607058    -2.205962276359    -0.025813332432     1.007825032230
         H           -2.192377607058     2.038069723641    -0.012010332432     1.007825032230
         H           -3.821172607058    -1.307974276359    -0.488260332432     1.007825032230
         H           -4.113141607058     0.438757723641    -0.468859332432     1.007825032230
         H           -3.936526607058    -0.446485276359     1.051268667568     1.007825032230

  Basis Set: AUG-CC-PVTZ
    Blend: AUG-CC-PVTZ
  Basis Set: (AUG-CC-PVTZ AUX)
    Blend: AUG-CC-PVTZ-JKFIT
	 Reference Energy          =    -417.7768697785725180 [Eh]
	 Singles Energy            =      -0.0000000000000000 [Eh]
	 Same-Spin Energy          =      -0.4575932356325291 [Eh]
	 Opposite-Spin Energy      =      -1.4475942409114058 [Eh]
	 Correlation Energy        =      -1.9051874765439347 [Eh]
	 Total Energy              =    -419.6820572551164332 [Eh]

	 ================> DF-SCS-MP2 Energies <==================
	-----------------------------------------------------------
	 SCS Same-Spin Scale       =       0.3333333333333333 [-]
	 SCS Opposite-Spin Scale   =       1.2000000000000000 [-]
	 SCS Same-Spin Energy      =      -0.1525310785441764 [Eh]
	 SCS Opposite-Spin Energy  =      -1.7371130890936868 [Eh]
	 SCS Correlation Energy    =      -1.8896441676378630 [Eh]
	 SCS Total Energy          =    -419.6665139462103866 [Eh]
	-----------------------------------------------------------

  Dipole Moment: [D]
     X:    -2.0197      Y:    -0.6552      Z:     0.0452     Total:     2.1238

*** Psi4 exiting successfully. Buy a developer a beer!
