                               Psi4 1.4a3.dev225

  ==> Input File <==

--------------------------------------------------------------------------
#psi4
#
memory 32 gb

molecule  {
0 1
  N        0.1723510    -0.9422650    -0.0110160
  N       -0.2210270     1.4224780    -0.0033780
  C        2.0395230     0.5887340     0.0077330
  C        2.9514110    -0.3582210    -0.7410450
  C        2.9437130    -0.3688660     0.7522200
  C        0.6333136     0.3497908    -0.0007864
  C       -2.0855860    -0.1066610    -0.0107410
  C       -1.1516460    -1.1458400    -0.0150190
  C       -1.5403890     1.1790090    -0.0074550
  C       -3.5664500    -0.3550010     0.0190800
  H        2.3036370     1.6413390     0.0163460
  H        3.8028480     0.0735720    -1.2571040
  H        2.4662660    -1.1861320    -1.2466910
  H        2.4535620    -1.2039700     1.2409480
  H        3.7897520     0.0554290     1.2831630
  H       -1.4774160    -2.1870700    -0.0286840
  H       -2.1879510     2.0569620    -0.0148810
  H       -3.8167460    -1.2890820    -0.4911310
  H       -4.1087150     0.4576500    -0.4717300
  H       -3.9321000    -0.4275930     1.0483980
units angstrom
no_reorient  #important for SAPT in psi4, default
symmetry c1  #important for SAPT in psi4, default
}

set PROPERTIES_ORIGIN ["COM"]
properties('MP2/aug-cc-pvtz', properties = ['dipole'])
--------------------------------------------------------------------------

    Molecular point group: c1
  Charge       = 0
  Multiplicity = 1
  Basis Set: AUG-CC-PVTZ
    Blend: AUG-CC-PVTZ
  Basis Set: (AUG-CC-PVTZ AUX)
    Blend: AUG-CC-PVTZ-JKFIT

    Orbital Energies [Eh]
    ---------------------

    Doubly Occupied:

       1A    -15.562973     2A    -15.562802     3A    -11.316887
       4A    -11.289414     5A    -11.287864     6A    -11.243122
       7A    -11.236411     8A    -11.232744     9A    -11.230414
      10A    -11.229788    11A     -1.291765    12A     -1.173352
      13A     -1.153919    14A     -1.085392    15A     -0.969354
      16A     -0.888283    17A     -0.878179    18A     -0.822907
      19A     -0.797123    20A     -0.716553    21A     -0.692841
      22A     -0.646837    23A     -0.618467    24A     -0.595362
      25A     -0.589082    26A     -0.580433    27A     -0.554922
      28A     -0.552772    29A     -0.530871    30A     -0.514232
      31A     -0.471316    32A     -0.440147    33A     -0.429264
      34A     -0.410173    35A     -0.393729    36A     -0.328478

  @DF-RHF Final Energy:  -417.77350282166896

   => Energetics <=

    Nuclear Repulsion Energy =            493.2250873155113595
    One-Electron Energy =               -1543.3608386673865880
    Two-Electron Energy =                 632.3622485302061023
    Total Energy =                       -417.7735028216690125
  Basis Set: (AUG-CC-PVTZ AUX)
    Blend: AUG-CC-PVTZ-RI
    Molecular point group: c1

    Geometry (in Angstrom), charge = 0, multiplicity = 1:

       Center              X                  Y                   Z               Mass
    ------------   -----------------  -----------------  -----------------  -----------------
         N            0.162710300858    -0.957890838165    -0.010460590612    14.003074004430
         N           -0.230667699142     1.406852161835    -0.002822590612    14.003074004430
         C            2.029882300858     0.573108161835     0.008288409388    12.000000000000
         C            2.941770300858    -0.373846838165    -0.740489590612    12.000000000000
         C            2.934072300858    -0.384491838165     0.752775409388    12.000000000000
         C            0.623672900858     0.334164961835    -0.000230990612    12.000000000000
         C           -2.095226699142    -0.122286838165    -0.010185590612    12.000000000000
         C           -1.161286699142    -1.161465838165    -0.014463590612    12.000000000000
         C           -1.550029699142     1.163383161835    -0.006899590612    12.000000000000
         C           -3.576090699142    -0.370626838165     0.019635409388    12.000000000000
         H            2.293996300858     1.625713161835     0.016901409388     1.007825032230
         H            3.793207300858     0.057946161835    -1.256548590612     1.007825032230
         H            2.456625300858    -1.201757838165    -1.246135590612     1.007825032230
         H            2.443921300858    -1.219595838165     1.241503409388     1.007825032230
         H            3.780111300858     0.039803161835     1.283718409388     1.007825032230
         H           -1.487056699142    -2.202695838165    -0.028128590612     1.007825032230
         H           -2.197591699142     2.041336161835    -0.014325590612     1.007825032230
         H           -3.826386699142    -1.304707838165    -0.490575590612     1.007825032230
         H           -4.118355699142     0.442024161835    -0.471174590612     1.007825032230
         H           -3.941740699142    -0.443218838165     1.048953409388     1.007825032230

  Basis Set: AUG-CC-PVTZ
    Blend: AUG-CC-PVTZ
  Basis Set: (AUG-CC-PVTZ AUX)
    Blend: AUG-CC-PVTZ-JKFIT
	 Reference Energy          =    -417.7735028216689557 [Eh]
	 Singles Energy            =      -0.0000000000000000 [Eh]
	 Same-Spin Energy          =      -0.4587516975445496 [Eh]
	 Opposite-Spin Energy      =      -1.4491903069477983 [Eh]
	 Correlation Energy        =      -1.9079420044923479 [Eh]
	 Total Energy              =    -419.6814448261612824 [Eh]

	 ================> DF-SCS-MP2 Energies <==================
	-----------------------------------------------------------
	 SCS Same-Spin Scale       =       0.3333333333333333 [-]
	 SCS Opposite-Spin Scale   =       1.2000000000000000 [-]
	 SCS Same-Spin Energy      =      -0.1529172325148498 [Eh]
	 SCS Opposite-Spin Energy  =      -1.7390283683373580 [Eh]
	 SCS Correlation Energy    =      -1.8919456008522078 [Eh]
	 SCS Total Energy          =    -419.6654484225211377 [Eh]
	-----------------------------------------------------------

  Dipole Moment: [D]
     X:    -1.7009      Y:    -0.5757      Z:     0.0483     Total:     1.7963

*** Psi4 exiting successfully. Buy a developer a beer!
