                               Psi4 1.4a3.dev225

  ==> Input File <==

--------------------------------------------------------------------------
#psi4
#
memory 32 gb

molecule  {
0 1
  N        0.1723510    -0.9422650    -0.0110160
  N       -0.2072593     1.3298518    -0.0028179
  C        2.0395230     0.5887340     0.0077330
  C        2.9514110    -0.3582210    -0.7410450
  C        2.9437130    -0.3688660     0.7522200
  C        0.5840210     0.3414150    -0.0010850
  C       -2.0855860    -0.1066610    -0.0107410
  C       -1.1516460    -1.1458400    -0.0150190
  C       -1.5403890     1.1790090    -0.0074550
  C       -3.5664500    -0.3550010     0.0190800
  H        2.3036370     1.6413390     0.0163460
  H        3.8028480     0.0735720    -1.2571040
  H        2.4662660    -1.1861320    -1.2466910
  H        2.4535620    -1.2039700     1.2409480
  H        3.7897520     0.0554290     1.2831630
  H       -1.4774160    -2.1870700    -0.0286840
  H       -2.1879510     2.0569620    -0.0148810
  H       -3.8167460    -1.2890820    -0.4911310
  H       -4.1087150     0.4576500    -0.4717300
  H       -3.9321000    -0.4275930     1.0483980
units angstrom
no_reorient  #important for SAPT in psi4, default
symmetry c1  #important for SAPT in psi4, default
}

set PROPERTIES_ORIGIN ["COM"]
properties('MP2/aug-cc-pvtz', properties = ['dipole'])
--------------------------------------------------------------------------

    Molecular point group: c1
  Charge       = 0
  Multiplicity = 1
  Basis Set: AUG-CC-PVTZ
    Blend: AUG-CC-PVTZ
  Basis Set: (AUG-CC-PVTZ AUX)
    Blend: AUG-CC-PVTZ-JKFIT

    Orbital Energies [Eh]
    ---------------------

    Doubly Occupied:

       1A    -15.560297     2A    -15.550692     3A    -11.300434
       4A    -11.291853     5A    -11.290250     6A    -11.246741
       7A    -11.238340     8A    -11.228283     9A    -11.223497
      10A    -11.222822    11A     -1.316457    12A     -1.182787
      13A     -1.145699    14A     -1.092052    15A     -0.971185
      16A     -0.897141    17A     -0.870754    18A     -0.816667
      19A     -0.799768    20A     -0.717805    21A     -0.702069
      22A     -0.644355    23A     -0.617057    24A     -0.601185
      25A     -0.592217    26A     -0.585769    27A     -0.564324
      28A     -0.554964    29A     -0.525967    30A     -0.509588
      31A     -0.465403    32A     -0.432989    33A     -0.423435
      34A     -0.411643    35A     -0.391201    36A     -0.338941

  @DF-RHF Final Energy:  -417.77631399587108

   => Energetics <=

    Nuclear Repulsion Energy =            495.9307260622447870
    One-Electron Energy =               -1548.7648258244310000
    Two-Electron Energy =                 635.0577857663151917
    Total Energy =                       -417.7763139958710781
  Basis Set: (AUG-CC-PVTZ AUX)
    Blend: AUG-CC-PVTZ-RI
    Molecular point group: c1

    Geometry (in Angstrom), charge = 0, multiplicity = 1:

       Center              X                  Y                   Z               Mass
    ------------   -----------------  -----------------  -----------------  -----------------
         N            0.165683958367    -0.947467842270    -0.010492361062    14.003074004430
         N           -0.213926341633     1.324648957730    -0.002294261062    14.003074004430
         C            2.032855958367     0.583531157730     0.008256638938    12.000000000000
         C            2.944743958367    -0.363423842270    -0.740521361062    12.000000000000
         C            2.937045958367    -0.374068842270     0.752743638938    12.000000000000
         C            0.577353958367     0.336212157730    -0.000561361062    12.000000000000
         C           -2.092253041633    -0.111863842270    -0.010217361062    12.000000000000
         C           -1.158313041633    -1.151042842270    -0.014495361062    12.000000000000
         C           -1.547056041633     1.173806157730    -0.006931361062    12.000000000000
         C           -3.573117041633    -0.360203842270     0.019603638938    12.000000000000
         H            2.296969958367     1.636136157730     0.016869638938     1.007825032230
         H            3.796180958367     0.068369157730    -1.256580361062     1.007825032230
         H            2.459598958367    -1.191334842270    -1.246167361062     1.007825032230
         H            2.446894958367    -1.209172842270     1.241471638938     1.007825032230
         H            3.783084958367     0.050226157730     1.283686638938     1.007825032230
         H           -1.484083041633    -2.192272842270    -0.028160361062     1.007825032230
         H           -2.194618041633     2.051759157730    -0.014357361062     1.007825032230
         H           -3.823413041633    -1.294284842270    -0.490607361062     1.007825032230
         H           -4.115382041633     0.452447157730    -0.471206361062     1.007825032230
         H           -3.938767041633    -0.432795842270     1.048921638938     1.007825032230

  Basis Set: AUG-CC-PVTZ
    Blend: AUG-CC-PVTZ
  Basis Set: (AUG-CC-PVTZ AUX)
    Blend: AUG-CC-PVTZ-JKFIT
	 Reference Energy          =    -417.7763139958710781 [Eh]
	 Singles Energy            =      -0.0000000000000000 [Eh]
	 Same-Spin Energy          =      -0.4571729443688091 [Eh]
	 Opposite-Spin Energy      =      -1.4456020906861207 [Eh]
	 Correlation Energy        =      -1.9027750350549297 [Eh]
	 Total Energy              =    -419.6790890309259794 [Eh]

	 ================> DF-SCS-MP2 Energies <==================
	-----------------------------------------------------------
	 SCS Same-Spin Scale       =       0.3333333333333333 [-]
	 SCS Opposite-Spin Scale   =       1.2000000000000000 [-]
	 SCS Same-Spin Energy      =      -0.1523909814562697 [Eh]
	 SCS Opposite-Spin Energy  =      -1.7347225088233447 [Eh]
	 SCS Correlation Energy    =      -1.8871134902796143 [Eh]
	 SCS Total Energy          =    -419.6634274861506810 [Eh]
	-----------------------------------------------------------

  Dipole Moment: [D]
     X:    -2.1657      Y:    -0.3927      Z:     0.0468     Total:     2.2015

*** Psi4 exiting successfully. Buy a developer a beer!
