                               Psi4 1.4a3.dev225

  ==> Input File <==

--------------------------------------------------------------------------
#psi4
#
memory 32 gb

molecule  {
0 1
  N        0.1723510    -0.9422650    -0.0110160
  N       -0.2210270     1.4224780    -0.0033780
  C        2.0395230     0.5887340     0.0077330
  C        2.9514110    -0.3582210    -0.7410450
  C        2.9437130    -0.3688660     0.7522200
  C        0.5840210     0.3414150    -0.0010850
  C       -1.9482169    -0.1566072    -0.0093654
  C       -1.1516460    -1.1458400    -0.0150190
  C       -1.5403890     1.1790090    -0.0074550
  C       -3.5664500    -0.3550010     0.0190800
  H        2.3036370     1.6413390     0.0163460
  H        3.8028480     0.0735720    -1.2571040
  H        2.4662660    -1.1861320    -1.2466910
  H        2.4535620    -1.2039700     1.2409480
  H        3.7897520     0.0554290     1.2831630
  H       -1.4774160    -2.1870700    -0.0286840
  H       -2.1879510     2.0569620    -0.0148810
  H       -3.8167460    -1.2890820    -0.4911310
  H       -4.1087150     0.4576500    -0.4717300
  H       -3.9321000    -0.4275930     1.0483980
units angstrom
no_reorient  #important for SAPT in psi4, default
symmetry c1  #important for SAPT in psi4, default
}

set PROPERTIES_ORIGIN ["COM"]
properties('MP2/aug-cc-pvtz', properties = ['dipole'])
--------------------------------------------------------------------------

    Molecular point group: c1
  Charge       = 0
  Multiplicity = 1
  Basis Set: AUG-CC-PVTZ
    Blend: AUG-CC-PVTZ
  Basis Set: (AUG-CC-PVTZ AUX)
    Blend: AUG-CC-PVTZ-JKFIT

    Orbital Energies [Eh]
    ---------------------

    Doubly Occupied:

       1A    -15.567109     2A    -15.559064     3A    -11.311546
       4A    -11.297551     5A    -11.271240     6A    -11.240714
       7A    -11.237612     8A    -11.230405     9A    -11.224812
      10A    -11.224130    11A     -1.308428    12A     -1.185971
      13A     -1.148795    14A     -1.085303    15A     -0.954840
      16A     -0.908821    17A     -0.871162    18A     -0.817631
      19A     -0.799729    20A     -0.721161    21A     -0.697674
      22A     -0.648449    23A     -0.615006    24A     -0.602060
      25A     -0.595440    26A     -0.563819    27A     -0.556832
      28A     -0.553853    29A     -0.522753    30A     -0.510595
      31A     -0.451308    32A     -0.440336    33A     -0.422442
      34A     -0.415505    35A     -0.406069    36A     -0.343963

  @DF-RHF Final Energy:  -417.75351984064423

   => Energetics <=

    Nuclear Repulsion Energy =            495.3517131617412588
    One-Electron Energy =               -1547.5862092104678140
    Two-Electron Energy =                 634.4809762080824385
    Total Energy =                       -417.7535198406442305
  Basis Set: (AUG-CC-PVTZ AUX)
    Blend: AUG-CC-PVTZ-RI
    Molecular point group: c1

    Geometry (in Angstrom), charge = 0, multiplicity = 1:

       Center              X                  Y                   Z               Mass
    ------------   -----------------  -----------------  -----------------  -----------------
         N            0.154827817786    -0.952671259984    -0.010556977665    14.003074004430
         N           -0.238550182214     1.412071740016    -0.002918977665    14.003074004430
         C            2.021999817786     0.578327740016     0.008192022335    12.000000000000
         C            2.933887817786    -0.368627259984    -0.740585977665    12.000000000000
         C            2.926189817786    -0.379272259984     0.752679022335    12.000000000000
         C            0.566497817786     0.331008740016    -0.000625977665    12.000000000000
         C           -1.965740082214    -0.167013459984    -0.008906377665    12.000000000000
         C           -1.169169182214    -1.156246259984    -0.014559977665    12.000000000000
         C           -1.557912182214     1.168602740016    -0.006995977665    12.000000000000
         C           -3.583973182214    -0.365407259984     0.019539022335    12.000000000000
         H            2.286113817786     1.630932740016     0.016805022335     1.007825032230
         H            3.785324817786     0.063165740016    -1.256644977665     1.007825032230
         H            2.448742817786    -1.196538259984    -1.246231977665     1.007825032230
         H            2.436038817786    -1.214376259984     1.241407022335     1.007825032230
         H            3.772228817786     0.045022740016     1.283622022335     1.007825032230
         H           -1.494939182214    -2.197476259984    -0.028224977665     1.007825032230
         H           -2.205474182214     2.046555740016    -0.014421977665     1.007825032230
         H           -3.834269182214    -1.299488259984    -0.490671977665     1.007825032230
         H           -4.126238182214     0.447243740016    -0.471270977665     1.007825032230
         H           -3.949623182214    -0.437999259984     1.048857022335     1.007825032230

  Basis Set: AUG-CC-PVTZ
    Blend: AUG-CC-PVTZ
  Basis Set: (AUG-CC-PVTZ AUX)
    Blend: AUG-CC-PVTZ-JKFIT
	 Reference Energy          =    -417.7535198406442305 [Eh]
	 Singles Energy            =      -0.0000000000000000 [Eh]
	 Same-Spin Energy          =      -0.4574190759590887 [Eh]
	 Opposite-Spin Energy      =      -1.4477102098662593 [Eh]
	 Correlation Energy        =      -1.9051292858253479 [Eh]
	 Total Energy              =    -419.6586491264695837 [Eh]

	 ================> DF-SCS-MP2 Energies <==================
	-----------------------------------------------------------
	 SCS Same-Spin Scale       =       0.3333333333333333 [-]
	 SCS Opposite-Spin Scale   =       1.2000000000000000 [-]
	 SCS Same-Spin Energy      =      -0.1524730253196962 [Eh]
	 SCS Opposite-Spin Energy  =      -1.7372522518395110 [Eh]
	 SCS Correlation Energy    =      -1.8897252771592072 [Eh]
	 SCS Total Energy          =    -419.6432451178034171 [Eh]
	-----------------------------------------------------------

  Dipole Moment: [D]
     X:    -1.9104      Y:    -0.4139      Z:     0.0320     Total:     1.9550

*** Psi4 exiting successfully. Buy a developer a beer!
