                               Psi4 1.4a3.dev225

  ==> Input File <==

--------------------------------------------------------------------------
#psi4
#
memory 32 gb

molecule  {
0 1
  N        0.1723510    -0.9422650    -0.0110160
  N       -0.2210270     1.4224780    -0.0033780
  C        2.0395230     0.5887340     0.0077330
  C        2.9514110    -0.3582210    -0.7410450
  C        2.9437130    -0.3688660     0.7522200
  C        0.5840210     0.3414150    -0.0010850
  C       -2.0855860    -0.1066610    -0.0107410
  C       -1.1516460    -1.1458400    -0.0150190
  C       -1.5403890     1.1790090    -0.0074550
  C       -3.5664500    -0.3550010     0.0190800
  H        2.3036370     1.6413390     0.0163460
  H        3.8028480     0.0735720    -1.2571040
  H        2.4662660    -1.1861320    -1.2466910
  H        2.5439402    -1.0499865     1.1508322
  H        3.7897520     0.0554290     1.2831630
  H       -1.4774160    -2.1870700    -0.0286840
  H       -2.1879510     2.0569620    -0.0148810
  H       -3.8167460    -1.2890820    -0.4911310
  H       -4.1087150     0.4576500    -0.4717300
  H       -3.9321000    -0.4275930     1.0483980
units angstrom
no_reorient  #important for SAPT in psi4, default
symmetry c1  #important for SAPT in psi4, default
}

set PROPERTIES_ORIGIN ["COM"]
properties('MP2/aug-cc-pvtz', properties = ['dipole'])
--------------------------------------------------------------------------

    Molecular point group: c1
  Charge       = 0
  Multiplicity = 1
  Basis Set: AUG-CC-PVTZ
    Blend: AUG-CC-PVTZ
  Basis Set: (AUG-CC-PVTZ AUX)
    Blend: AUG-CC-PVTZ-JKFIT

    Orbital Energies [Eh]
    ---------------------

    Doubly Occupied:

       1A    -15.564097     2A    -15.563932     3A    -11.313527
       4A    -11.291936     5A    -11.290436     6A    -11.245593
       7A    -11.238142     8A    -11.230545     9A    -11.224782
      10A    -11.203051    11A     -1.301784    12A     -1.182688
      13A     -1.150843    14A     -1.088897    15A     -0.967965
      16A     -0.891820    17A     -0.877788    18A     -0.844977
      19A     -0.798179    20A     -0.718869    21A     -0.700835
      22A     -0.647403    23A     -0.622552    24A     -0.598330
      25A     -0.592043    26A     -0.582462    27A     -0.558312
      28A     -0.555047    29A     -0.535713    30A     -0.518100
      31A     -0.471760    32A     -0.435313    33A     -0.423977
      34A     -0.414637    35A     -0.402905    36A     -0.334143

  @DF-RHF Final Energy:  -417.74416670701703

   => Energetics <=

    Nuclear Repulsion Energy =            494.4812296025582441
    One-Electron Energy =               -1545.6840285770260834
    Two-Electron Energy =                 633.4586322674508665
    Total Energy =                       -417.7441667070170297
  Basis Set: (AUG-CC-PVTZ AUX)
    Blend: AUG-CC-PVTZ-RI
    Molecular point group: c1

    Geometry (in Angstrom), charge = 0, multiplicity = 1:

       Center              X                  Y                   Z               Mass
    ------------   -----------------  -----------------  -----------------  -----------------
         N            0.166442470997    -0.958298632260    -0.009756525410    14.003074004430
         N           -0.226935529003     1.406444367740    -0.002118525410    14.003074004430
         C            2.033614470997     0.572700367740     0.008992474590    12.000000000000
         C            2.945502470997    -0.374254632260    -0.739785525410    12.000000000000
         C            2.937804470997    -0.384899632260     0.753479474590    12.000000000000
         C            0.578112470997     0.325381367740     0.000174474590    12.000000000000
         C           -2.091494529003    -0.122694632260    -0.009481525410    12.000000000000
         C           -1.157554529003    -1.161873632260    -0.013759525410    12.000000000000
         C           -1.546297529003     1.162975367740    -0.006195525410    12.000000000000
         C           -3.572358529003    -0.371034632260     0.020339474590    12.000000000000
         H            2.297728470997     1.625305367740     0.017605474590     1.007825032230
         H            3.796939470997     0.057538367740    -1.255844525410     1.007825032230
         H            2.460357470997    -1.202165632260    -1.245431525410     1.007825032230
         H            2.538031670997    -1.066020132260     1.152091674590     1.007825032230
         H            3.783843470997     0.039395367740     1.284422474590     1.007825032230
         H           -1.483324529003    -2.203103632260    -0.027424525410     1.007825032230
         H           -2.193859529003     2.040928367740    -0.013621525410     1.007825032230
         H           -3.822654529003    -1.305115632260    -0.489871525410     1.007825032230
         H           -4.114623529003     0.441616367740    -0.470470525410     1.007825032230
         H           -3.938008529003    -0.443626632260     1.049657474590     1.007825032230

  Basis Set: AUG-CC-PVTZ
    Blend: AUG-CC-PVTZ
  Basis Set: (AUG-CC-PVTZ AUX)
    Blend: AUG-CC-PVTZ-JKFIT
	 Reference Energy          =    -417.7441667070170297 [Eh]
	 Singles Energy            =      -0.0000000000000000 [Eh]
	 Same-Spin Energy          =      -0.4575278076754071 [Eh]
	 Opposite-Spin Energy      =      -1.4469993579521963 [Eh]
	 Correlation Energy        =      -1.9045271656276033 [Eh]
	 Total Energy              =    -419.6486938726446283 [Eh]

	 ================> DF-SCS-MP2 Energies <==================
	-----------------------------------------------------------
	 SCS Same-Spin Scale       =       0.3333333333333333 [-]
	 SCS Opposite-Spin Scale   =       1.2000000000000000 [-]
	 SCS Same-Spin Energy      =      -0.1525092692251357 [Eh]
	 SCS Opposite-Spin Energy  =      -1.7363992295426354 [Eh]
	 SCS Correlation Energy    =      -1.8889084987677711 [Eh]
	 SCS Total Energy          =    -419.6330752057847917 [Eh]
	-----------------------------------------------------------

  Dipole Moment: [D]
     X:    -2.0363      Y:    -0.5762      Z:     0.0708     Total:     2.1174

*** Psi4 exiting successfully. Buy a developer a beer!
