                               Psi4 1.4a3.dev225

  ==> Input File <==

--------------------------------------------------------------------------
#psi4
#
memory 32 gb

molecule  {
0 1
  N        0.1723510    -0.9422650    -0.0110160
  N       -0.2210270     1.4224780    -0.0033780
  C        2.0395230     0.5887340     0.0077330
  C        2.9514110    -0.3582210    -0.7410450
  C        2.9437130    -0.3688660     0.7522200
  C        0.5840210     0.3414150    -0.0010850
  C       -2.0817779    -0.1292149     0.0020603
  C       -1.1516460    -1.1458400    -0.0150190
  C       -1.5403890     1.1790090    -0.0074550
  C       -3.5664500    -0.3550010     0.0190800
  H        2.3036370     1.6413390     0.0163460
  H        3.8028480     0.0735720    -1.2571040
  H        2.4662660    -1.1861320    -1.2466910
  H        2.4535620    -1.2039700     1.2409480
  H        3.7897520     0.0554290     1.2831630
  H       -1.4774160    -2.1870700    -0.0286840
  H       -2.1879510     2.0569620    -0.0148810
  H       -3.8167460    -1.2890820    -0.4911310
  H       -4.1087150     0.4576500    -0.4717300
  H       -3.9321000    -0.4275930     1.0483980
units angstrom
no_reorient  #important for SAPT in psi4, default
symmetry c1  #important for SAPT in psi4, default
}

set PROPERTIES_ORIGIN ["COM"]
properties('MP2/aug-cc-pvtz', properties = ['dipole'])
--------------------------------------------------------------------------

    Molecular point group: c1
  Charge       = 0
  Multiplicity = 1
  Basis Set: AUG-CC-PVTZ
    Blend: AUG-CC-PVTZ
  Basis Set: (AUG-CC-PVTZ AUX)
    Blend: AUG-CC-PVTZ-JKFIT

    Orbital Energies [Eh]
    ---------------------

    Doubly Occupied:

       1A    -15.565133     2A    -15.562755     3A    -11.313505
       4A    -11.294042     5A    -11.288021     6A    -11.245597
       7A    -11.238178     8A    -11.231259     9A    -11.225765
      10A    -11.225083    11A     -1.301664    12A     -1.182509
      13A     -1.147184    14A     -1.088068    15A     -0.967112
      16A     -0.893343    17A     -0.872490    18A     -0.818524
      19A     -0.796736    20A     -0.715977    21A     -0.694315
      22A     -0.645896    23A     -0.613637    24A     -0.598849
      25A     -0.591282    26A     -0.582461    27A     -0.558271
      28A     -0.555007    29A     -0.523351    30A     -0.510955
      31A     -0.471546    32A     -0.434227    33A     -0.424316
      34A     -0.414215    35A     -0.402567    36A     -0.334312

  @DF-RHF Final Energy:  -417.77887086041636

   => Energetics <=

    Nuclear Repulsion Energy =            493.5548618021415450
    One-Electron Energy =               -1544.0111595137650511
    Two-Electron Energy =                 632.6774268512070876
    Total Energy =                       -417.7788708604163048
  Basis Set: (AUG-CC-PVTZ AUX)
    Blend: AUG-CC-PVTZ-RI
    Molecular point group: c1

    Geometry (in Angstrom), charge = 0, multiplicity = 1:

       Center              X                  Y                   Z               Mass
    ------------   -----------------  -----------------  -----------------  -----------------
         N            0.166780975797    -0.955122757727    -0.011579530637    14.003074004430
         N           -0.226597024203     1.409620242273    -0.003941530637    14.003074004430
         C            2.033952975797     0.575876242273     0.007169469363    12.000000000000
         C            2.945840975797    -0.371078757727    -0.741608530637    12.000000000000
         C            2.938142975797    -0.381723757727     0.751656469363    12.000000000000
         C            0.578450975797     0.328557242273    -0.001648530637    12.000000000000
         C           -2.087347924203    -0.142072657727     0.001496769363    12.000000000000
         C           -1.157216024203    -1.158697757727    -0.015582530637    12.000000000000
         C           -1.545959024203     1.166151242273    -0.008018530637    12.000000000000
         C           -3.572020024203    -0.367858757727     0.018516469363    12.000000000000
         H            2.298066975797     1.628481242273     0.015782469363     1.007825032230
         H            3.797277975797     0.060714242273    -1.257667530637     1.007825032230
         H            2.460695975797    -1.198989757727    -1.247254530637     1.007825032230
         H            2.447991975797    -1.216827757727     1.240384469363     1.007825032230
         H            3.784181975797     0.042571242273     1.282599469363     1.007825032230
         H           -1.482986024203    -2.199927757727    -0.029247530637     1.007825032230
         H           -2.193521024203     2.044104242273    -0.015444530637     1.007825032230
         H           -3.822316024203    -1.301939757727    -0.491694530637     1.007825032230
         H           -4.114285024203     0.444792242273    -0.472293530637     1.007825032230
         H           -3.937670024203    -0.440450757727     1.047834469363     1.007825032230

  Basis Set: AUG-CC-PVTZ
    Blend: AUG-CC-PVTZ
  Basis Set: (AUG-CC-PVTZ AUX)
    Blend: AUG-CC-PVTZ-JKFIT
	 Reference Energy          =    -417.7788708604163617 [Eh]
	 Singles Energy            =      -0.0000000000000000 [Eh]
	 Same-Spin Energy          =      -0.4577182527988966 [Eh]
	 Opposite-Spin Energy      =      -1.4475636125507023 [Eh]
	 Correlation Energy        =      -1.9052818653495989 [Eh]
	 Total Energy              =    -419.6841527257659550 [Eh]

	 ================> DF-SCS-MP2 Energies <==================
	-----------------------------------------------------------
	 SCS Same-Spin Scale       =       0.3333333333333333 [-]
	 SCS Opposite-Spin Scale   =       1.2000000000000000 [-]
	 SCS Same-Spin Energy      =      -0.1525727509329655 [Eh]
	 SCS Opposite-Spin Energy  =      -1.7370763350608427 [Eh]
	 SCS Correlation Energy    =      -1.8896490859938082 [Eh]
	 SCS Total Energy          =    -419.6685199464101856 [Eh]
	-----------------------------------------------------------

  Dipole Moment: [D]
     X:    -2.0574      Y:    -0.5318      Z:     0.0469     Total:     2.1255

*** Psi4 exiting successfully. Buy a developer a beer!
