                               Psi4 1.4a3.dev225

  ==> Input File <==

--------------------------------------------------------------------------
#psi4
#
memory 32 gb

molecule  {
0 1
  N        0.1723510    -0.9422650    -0.0110160
  N       -0.2210270     1.4224780    -0.0033780
  C        2.0395230     0.5887340     0.0077330
  C        2.9514110    -0.3582210    -0.7410450
  C        2.9437130    -0.3688660     0.7522200
  C        0.5840210     0.3414150    -0.0010850
  C       -2.0855860    -0.1066610    -0.0107410
  C       -1.1516460    -1.1458400    -0.0150190
  C       -1.5403890     1.1790090    -0.0074550
  C       -3.5664500    -0.3550010     0.0190800
  H        2.3036370     1.6413390     0.0163460
  H        3.8028480     0.0735720    -1.2571040
  H        2.4662660    -1.1861320    -1.2466910
  H        2.4083729    -1.2809618     1.2860059
  H        3.7897520     0.0554290     1.2831630
  H       -1.4774160    -2.1870700    -0.0286840
  H       -2.1879510     2.0569620    -0.0148810
  H       -3.8167460    -1.2890820    -0.4911310
  H       -4.1087150     0.4576500    -0.4717300
  H       -3.9321000    -0.4275930     1.0483980
units angstrom
no_reorient  #important for SAPT in psi4, default
symmetry c1  #important for SAPT in psi4, default
}

set PROPERTIES_ORIGIN ["COM"]
properties('MP2/aug-cc-pvtz', properties = ['dipole'])
--------------------------------------------------------------------------

    Molecular point group: c1
  Charge       = 0
  Multiplicity = 1
  Basis Set: AUG-CC-PVTZ
    Blend: AUG-CC-PVTZ
  Basis Set: (AUG-CC-PVTZ AUX)
    Blend: AUG-CC-PVTZ-JKFIT

    Orbital Energies [Eh]
    ---------------------

    Doubly Occupied:

       1A    -15.564201     2A    -15.564003     3A    -11.313655
       4A    -11.291829     5A    -11.290364     6A    -11.245682
       7A    -11.238174     8A    -11.236145     9A    -11.232070
      10A    -11.226277    11A     -1.301758    12A     -1.182583
      13A     -1.146545    14A     -1.088016    15A     -0.967012
      16A     -0.891345    17A     -0.874440    18A     -0.811951
      19A     -0.794691    20A     -0.714980    21A     -0.692023
      22A     -0.645805    23A     -0.609636    24A     -0.598378
      25A     -0.591222    26A     -0.582544    27A     -0.558403
      28A     -0.555077    29A     -0.522152    30A     -0.500574
      31A     -0.471840    32A     -0.433389    33A     -0.424798
      34A     -0.413974    35A     -0.402625    36A     -0.334599

  @DF-RHF Final Energy:  -417.77229383518358

   => Energetics <=

    Nuclear Repulsion Energy =            493.1594069206801123
    One-Electron Energy =               -1543.2378854443161345
    Two-Electron Energy =                 632.3061846884523902
    Total Energy =                       -417.7722938351836319
  Basis Set: (AUG-CC-PVTZ AUX)
    Blend: AUG-CC-PVTZ-RI
    Molecular point group: c1

    Geometry (in Angstrom), charge = 0, multiplicity = 1:

       Center              X                  Y                   Z               Mass
    ------------   -----------------  -----------------  -----------------  -----------------
         N            0.167461442035    -0.956562541469    -0.010772538012    14.003074004430
         N           -0.225916557965     1.408180458531    -0.003134538012    14.003074004430
         C            2.034633442035     0.574436458531     0.007976461988    12.000000000000
         C            2.946521442035    -0.372518541469    -0.740801538012    12.000000000000
         C            2.938823442035    -0.383163541469     0.752463461988    12.000000000000
         C            0.579131442035     0.327117458531    -0.000841538012    12.000000000000
         C           -2.090475557965    -0.120958541469    -0.010497538012    12.000000000000
         C           -1.156535557965    -1.160137541469    -0.014775538012    12.000000000000
         C           -1.545278557965     1.164711458531    -0.007211538012    12.000000000000
         C           -3.571339557965    -0.369298541469     0.019323461988    12.000000000000
         H            2.298747442035     1.627041458531     0.016589461988     1.007825032230
         H            3.797958442035     0.059274458531    -1.256860538012     1.007825032230
         H            2.461376442035    -1.200429541469    -1.246447538012     1.007825032230
         H            2.403483342035    -1.295259341469     1.286249361988     1.007825032230
         H            3.784862442035     0.041131458531     1.283406461988     1.007825032230
         H           -1.482305557965    -2.201367541469    -0.028440538012     1.007825032230
         H           -2.192840557965     2.042664458531    -0.014637538012     1.007825032230
         H           -3.821635557965    -1.303379541469    -0.490887538012     1.007825032230
         H           -4.113604557965     0.443352458531    -0.471486538012     1.007825032230
         H           -3.936989557965    -0.441890541469     1.048641461988     1.007825032230

  Basis Set: AUG-CC-PVTZ
    Blend: AUG-CC-PVTZ
  Basis Set: (AUG-CC-PVTZ AUX)
    Blend: AUG-CC-PVTZ-JKFIT
	 Reference Energy          =    -417.7722938351835751 [Eh]
	 Singles Energy            =      -0.0000000000000000 [Eh]
	 Same-Spin Energy          =      -0.4579021524095848 [Eh]
	 Opposite-Spin Energy      =      -1.4483797538654857 [Eh]
	 Correlation Energy        =      -1.9062819062750704 [Eh]
	 Total Energy              =    -419.6785757414586442 [Eh]

	 ================> DF-SCS-MP2 Energies <==================
	-----------------------------------------------------------
	 SCS Same-Spin Scale       =       0.3333333333333333 [-]
	 SCS Opposite-Spin Scale   =       1.2000000000000000 [-]
	 SCS Same-Spin Energy      =      -0.1526340508031949 [Eh]
	 SCS Opposite-Spin Energy  =      -1.7380557046385827 [Eh]
	 SCS Correlation Energy    =      -1.8906897554417776 [Eh]
	 SCS Total Energy          =    -419.6629835906253447 [Eh]
	-----------------------------------------------------------

  Dipole Moment: [D]
     X:    -2.0541      Y:    -0.5586      Z:     0.0188     Total:     2.1288

*** Psi4 exiting successfully. Buy a developer a beer!
