                               Psi4 1.4a3.dev225

  ==> Input File <==

--------------------------------------------------------------------------
#psi4
#
memory 32 gb

molecule  {
0 1
  N        0.0404274    -0.8921944    -0.0119978
  N       -0.2210270     1.4224780    -0.0033780
  C        2.0395230     0.5887340     0.0077330
  C        2.9514110    -0.3582210    -0.7410450
  C        2.9437130    -0.3688660     0.7522200
  C        0.5840210     0.3414150    -0.0010850
  C       -2.0855860    -0.1066610    -0.0107410
  C       -1.1516460    -1.1458400    -0.0150190
  C       -1.5403890     1.1790090    -0.0074550
  C       -3.5664500    -0.3550010     0.0190800
  H        2.3036370     1.6413390     0.0163460
  H        3.8028480     0.0735720    -1.2571040
  H        2.4662660    -1.1861320    -1.2466910
  H        2.4535620    -1.2039700     1.2409480
  H        3.7897520     0.0554290     1.2831630
  H       -1.4774160    -2.1870700    -0.0286840
  H       -2.1879510     2.0569620    -0.0148810
  H       -3.8167460    -1.2890820    -0.4911310
  H       -4.1087150     0.4576500    -0.4717300
  H       -3.9321000    -0.4275930     1.0483980
units angstrom
no_reorient  #important for SAPT in psi4, default
symmetry c1  #important for SAPT in psi4, default
}

set PROPERTIES_ORIGIN ["COM"]
properties('MP2/aug-cc-pvtz', properties = ['dipole'])
--------------------------------------------------------------------------

    Molecular point group: c1
  Charge       = 0
  Multiplicity = 1
  Basis Set: AUG-CC-PVTZ
    Blend: AUG-CC-PVTZ
  Basis Set: (AUG-CC-PVTZ AUX)
    Blend: AUG-CC-PVTZ-JKFIT

    Orbital Energies [Eh]
    ---------------------

    Doubly Occupied:

       1A    -15.561141     2A    -15.547605     3A    -11.316773
       4A    -11.279960     5A    -11.274962     6A    -11.238645
       7A    -11.238304     8A    -11.233253     9A    -11.230262
      10A    -11.229568    11A     -1.321844    12A     -1.197772
      13A     -1.152294    14A     -1.082915    15A     -0.970717
      16A     -0.884411    17A     -0.876708    18A     -0.822831
      19A     -0.808837    20A     -0.723385    21A     -0.698801
      22A     -0.654244    23A     -0.619906    24A     -0.600951
      25A     -0.589005    26A     -0.583162    27A     -0.562124
      28A     -0.551038    29A     -0.532527    30A     -0.515533
      31A     -0.467113    32A     -0.444428    33A     -0.426866
      34A     -0.422290    35A     -0.382181    36A     -0.327124

  @DF-RHF Final Energy:  -417.76593346121371

   => Energetics <=

    Nuclear Repulsion Energy =            495.8165923060897171
    One-Electron Energy =               -1548.4260920127903773
    Two-Electron Energy =                 634.8435662454870680
    Total Energy =                       -417.7659334612136490
  Basis Set: (AUG-CC-PVTZ AUX)
    Blend: AUG-CC-PVTZ-RI
    Molecular point group: c1

    Geometry (in Angstrom), charge = 0, multiplicity = 1:

       Center              X                  Y                   Z               Mass
    ------------   -----------------  -----------------  -----------------  -----------------
         N            0.048975596539    -0.912299750507    -0.011313133082    14.003074004430
         N           -0.212478803461     1.402372649493    -0.002693333082    14.003074004430
         C            2.048071196539     0.568628649493     0.008417666918    12.000000000000
         C            2.959959196539    -0.378326350507    -0.740360333082    12.000000000000
         C            2.952261196539    -0.388971350507     0.752904666918    12.000000000000
         C            0.592569196539     0.321309649493    -0.000400333082    12.000000000000
         C           -2.077037803461    -0.126766350507    -0.010056333082    12.000000000000
         C           -1.143097803461    -1.165945350507    -0.014334333082    12.000000000000
         C           -1.531840803461     1.158903649493    -0.006770333082    12.000000000000
         C           -3.557901803461    -0.375106350507     0.019764666918    12.000000000000
         H            2.312185196539     1.621233649493     0.017030666918     1.007825032230
         H            3.811396196539     0.053466649493    -1.256419333082     1.007825032230
         H            2.474814196539    -1.206237350507    -1.246006333082     1.007825032230
         H            2.462110196539    -1.224075350507     1.241632666918     1.007825032230
         H            3.798300196539     0.035323649493     1.283847666918     1.007825032230
         H           -1.468867803461    -2.207175350507    -0.027999333082     1.007825032230
         H           -2.179402803461     2.036856649493    -0.014196333082     1.007825032230
         H           -3.808197803461    -1.309187350507    -0.490446333082     1.007825032230
         H           -4.100166803461     0.437544649493    -0.471045333082     1.007825032230
         H           -3.923551803461    -0.447698350507     1.049082666918     1.007825032230

  Basis Set: AUG-CC-PVTZ
    Blend: AUG-CC-PVTZ
  Basis Set: (AUG-CC-PVTZ AUX)
    Blend: AUG-CC-PVTZ-JKFIT
	 Reference Energy          =    -417.7659334612137059 [Eh]
	 Singles Energy            =      -0.0000000000000000 [Eh]
	 Same-Spin Energy          =      -0.4568513843078162 [Eh]
	 Opposite-Spin Energy      =      -1.4444968757148351 [Eh]
	 Correlation Energy        =      -1.9013482600226514 [Eh]
	 Total Energy              =    -419.6672817212363498 [Eh]

	 ================> DF-SCS-MP2 Energies <==================
	-----------------------------------------------------------
	 SCS Same-Spin Scale       =       0.3333333333333333 [-]
	 SCS Opposite-Spin Scale   =       1.2000000000000000 [-]
	 SCS Same-Spin Energy      =      -0.1522837947692721 [Eh]
	 SCS Opposite-Spin Energy  =      -1.7333962508578020 [Eh]
	 SCS Correlation Energy    =      -1.8856800456270741 [Eh]
	 SCS Total Energy          =    -419.6516135068407607 [Eh]
	-----------------------------------------------------------

  Dipole Moment: [D]
     X:    -1.5513      Y:    -0.6984      Z:     0.0506     Total:     1.7020

*** Psi4 exiting successfully. Buy a developer a beer!
