                               Psi4 1.3.2 release

  ==> Input File <==

--------------------------------------------------------------------------
#psi4
#
memory 32 gb

molecule  {
0 1
  O        1.7630510    -0.6850120     0.0000440
  C        0.4546130    -0.2713300     0.0000100
  C        0.0381650     1.0640730    -0.0000210
  C       -0.4939029    -1.3032451     0.1000130
  C       -1.3314850     1.3526110    -0.0000590
  C       -1.8510560    -1.0002410    -0.0000260
  C       -2.2793230     0.3319890    -0.0000570
  C        2.7576030     0.3338520     0.0000720
  H        0.7532890     1.8795730    -0.0000260
  H       -0.1386390    -2.3300740     0.0000380
  H       -1.6510200     2.3922280    -0.0000820
  H       -2.5787280    -1.8083390    -0.0000230
  H       -3.3399740     0.5682180    -0.0000880
  H        2.6856690     0.9623970     0.8945570
  H        2.6857380     0.9623800    -0.8944310
  H        3.7115620    -0.1925360     0.0001130
units angstrom
no_reorient  #important for SAPT in psi4, default
symmetry c1  #important for SAPT in psi4, default
}

set PROPERTIES_ORIGIN ["COM"]
properties('MP2/aug-cc-pvtz', properties = ['dipole'])
--------------------------------------------------------------------------

    Molecular point group: c1
  Charge       = 0
  Multiplicity = 1
  Basis Set: AUG-CC-PVTZ
    Blend: AUG-CC-PVTZ
  Basis Set: (AUG-CC-PVTZ AUX)
    Blend: AUG-CC-PVTZ-JKFIT

    Orbital Energies [Eh]
    ---------------------

    Doubly Occupied:

       1A    -20.585782     2A    -11.302078     3A    -11.284849
       4A    -11.241633     5A    -11.240357     6A    -11.232825
       7A    -11.228494     8A    -11.227202     9A     -1.405502
      10A     -1.144578    11A     -1.019963    12A     -1.012455
      13A     -0.939781    14A     -0.831181    15A     -0.806023
      16A     -0.718648    17A     -0.662612    18A     -0.658777
      19A     -0.653156    20A     -0.618791    21A     -0.587395
      22A     -0.573848    23A     -0.526174    24A     -0.523791
      25A     -0.511558    26A     -0.482312    27A     -0.467253
      28A     -0.339835    29A     -0.312311

  @DF-RHF Final Energy:  -344.70055782421747

   => Energetics <=

    Nuclear Repulsion Energy =            345.1522054001863467
    One-Electron Energy =               -1151.4271971426223899
    Two-Electron Energy =                 461.5744339182185172
    Total Energy =                       -344.7005578242174693
  Basis Set: (AUG-CC-PVTZ AUX)
    Blend: AUG-CC-PVTZ-RI
    Molecular point group: c1

    Geometry (in Angstrom), charge = 0, multiplicity = 1:

       Center              X                  Y                   Z               Mass
    ------------   -----------------  -----------------  -----------------  -----------------
         O            1.782672335220    -0.662696941904    -0.011060699488    15.994914619570
         C            0.474234335220    -0.249014941904    -0.011094699488    12.000000000000
         C            0.057786335220     1.086388058096    -0.011125699488    12.000000000000
         C           -0.474281564780    -1.280930041904     0.088908300512    12.000000000000
         C           -1.311863664780     1.374926058096    -0.011163699488    12.000000000000
         C           -1.831434664780    -0.977925941904    -0.011130699488    12.000000000000
         C           -2.259701664780     0.354304058096    -0.011161699488    12.000000000000
         C            2.777224335220     0.356167058096    -0.011032699488    12.000000000000
         H            0.772910335220     1.901888058096    -0.011130699488     1.007825032230
         H           -0.119017664780    -2.307758941904    -0.011066699488     1.007825032230
         H           -1.631398664780     2.414543058096    -0.011186699488     1.007825032230
         H           -2.559106664780    -1.786023941904    -0.011127699488     1.007825032230
         H           -3.320352664780     0.590533058096    -0.011192699488     1.007825032230
         H            2.705290335220     0.984712058096     0.883452300512     1.007825032230
         H            2.705359335220     0.984695058096    -0.905535699488     1.007825032230
         H            3.731183335220    -0.170220941904    -0.010991699488     1.007825032230

  Basis Set: AUG-CC-PVTZ
    Blend: AUG-CC-PVTZ
  Basis Set: (AUG-CC-PVTZ AUX)
    Blend: AUG-CC-PVTZ-JKFIT
	 Reference Energy          =    -344.7005578242174693 [Eh]
	 Singles Energy            =      -0.0000000000000000 [Eh]
	 Same-Spin Energy          =      -0.3661183796258133 [Eh]
	 Opposite-Spin Energy      =      -1.1608025704389171 [Eh]
	 Correlation Energy        =      -1.5269209500647305 [Eh]
	 Total Energy              =    -346.2274787742821900 [Eh]

	 ================> DF-SCS-MP2 Energies <==================
	-----------------------------------------------------------
	 SCS Same-Spin Scale       =       0.3333333333333333 [-]
	 SCS Opposite-Spin Scale   =       1.2000000000000000 [-]
	 SCS Same-Spin Energy      =      -0.1220394598752711 [Eh]
	 SCS Opposite-Spin Energy  =      -1.3929630845267005 [Eh]
	 SCS Correlation Energy    =      -1.5150025444019715 [Eh]
	 SCS Total Energy          =    -346.2155603686194354 [Eh]
	-----------------------------------------------------------

  Dipole Moment: [D]
     X:     0.7410      Y:     1.0979      Z:    -0.0659     Total:     1.3262

*** Psi4 exiting successfully. Buy a developer a beer!
