                               Psi4 1.3.2 release

  ==> Input File <==

--------------------------------------------------------------------------
#psi4
#
memory 32 gb

molecule  {
0 1
  O        1.7630510    -0.6850120     0.0000440
  C        0.4546130    -0.2713300     0.0000100
  C        0.0381650     1.0640730    -0.0000210
  C       -0.4939057    -1.3032424     0.2500130
  C       -1.3314850     1.3526110    -0.0000590
  C       -1.8510560    -1.0002410    -0.0000260
  C       -2.2793230     0.3319890    -0.0000570
  C        2.7576030     0.3338520     0.0000720
  H        0.7532890     1.8795730    -0.0000260
  H       -0.1386390    -2.3300740     0.0000380
  H       -1.6510200     2.3922280    -0.0000820
  H       -2.5787280    -1.8083390    -0.0000230
  H       -3.3399740     0.5682180    -0.0000880
  H        2.6856690     0.9623970     0.8945570
  H        2.6857380     0.9623800    -0.8944310
  H        3.7115620    -0.1925360     0.0001130
units angstrom
no_reorient  #important for SAPT in psi4, default
symmetry c1  #important for SAPT in psi4, default
}

set PROPERTIES_ORIGIN ["COM"]
properties('MP2/aug-cc-pvtz', properties = ['dipole'])
--------------------------------------------------------------------------

    Molecular point group: c1
  Charge       = 0
  Multiplicity = 1
  Basis Set: AUG-CC-PVTZ
    Blend: AUG-CC-PVTZ
  Basis Set: (AUG-CC-PVTZ AUX)
    Blend: AUG-CC-PVTZ-JKFIT

    Orbital Energies [Eh]
    ---------------------

    Doubly Occupied:

       1A    -20.587088     2A    -11.306354     3A    -11.285246
       4A    -11.244618     5A    -11.244520     6A    -11.232759
       7A    -11.232346     8A    -11.227067     9A     -1.406418
      10A     -1.143147    11A     -1.017745    12A     -1.012253
      13A     -0.939746    14A     -0.830339    15A     -0.803814
      16A     -0.717719    17A     -0.660998    18A     -0.657686
      19A     -0.652880    20A     -0.619159    21A     -0.583550
      22A     -0.571309    23A     -0.526577    24A     -0.520725
      25A     -0.510748    26A     -0.479482    27A     -0.465830
      28A     -0.339471    29A     -0.312402

  @DF-RHF Final Energy:  -344.68482271471686

   => Energetics <=

    Nuclear Repulsion Energy =            344.5608820482822239
    One-Electron Energy =               -1150.2274210909449721
    Two-Electron Energy =                 460.9817163279458896
    Total Energy =                       -344.6848227147168586
  Basis Set: (AUG-CC-PVTZ AUX)
    Blend: AUG-CC-PVTZ-RI
    Molecular point group: c1

    Geometry (in Angstrom), charge = 0, multiplicity = 1:

       Center              X                  Y                   Z               Mass
    ------------   -----------------  -----------------  -----------------  -----------------
         O            1.782672646165    -0.662697241745    -0.027718495126    15.994914619570
         C            0.474234646165    -0.249015241745    -0.027752495126    12.000000000000
         C            0.057786646165     1.086387758255    -0.027783495126    12.000000000000
         C           -0.474284053835    -1.280927641745     0.222250504874    12.000000000000
         C           -1.311863353835     1.374925758255    -0.027821495126    12.000000000000
         C           -1.831434353835    -0.977926241745    -0.027788495126    12.000000000000
         C           -2.259701353835     0.354303758255    -0.027819495126    12.000000000000
         C            2.777224646165     0.356166758255    -0.027690495126    12.000000000000
         H            0.772910646165     1.901887758255    -0.027788495126     1.007825032230
         H           -0.119017353835    -2.307759241745    -0.027724495126     1.007825032230
         H           -1.631398353835     2.414542758255    -0.027844495126     1.007825032230
         H           -2.559106353835    -1.786024241745    -0.027785495126     1.007825032230
         H           -3.320352353835     0.590532758255    -0.027850495126     1.007825032230
         H            2.705290646165     0.984711758255     0.866794504874     1.007825032230
         H            2.705359646165     0.984694758255    -0.922193495126     1.007825032230
         H            3.731183646165    -0.170221241745    -0.027649495126     1.007825032230

  Basis Set: AUG-CC-PVTZ
    Blend: AUG-CC-PVTZ
  Basis Set: (AUG-CC-PVTZ AUX)
    Blend: AUG-CC-PVTZ-JKFIT
	 Reference Energy          =    -344.6848227147168586 [Eh]
	 Singles Energy            =      -0.0000000000000000 [Eh]
	 Same-Spin Energy          =      -0.3668017719341151 [Eh]
	 Opposite-Spin Energy      =      -1.1631390533016424 [Eh]
	 Correlation Energy        =      -1.5299408252357574 [Eh]
	 Total Energy              =    -346.2147635399526280 [Eh]

	 ================> DF-SCS-MP2 Energies <==================
	-----------------------------------------------------------
	 SCS Same-Spin Scale       =       0.3333333333333333 [-]
	 SCS Opposite-Spin Scale   =       1.2000000000000000 [-]
	 SCS Same-Spin Energy      =      -0.1222672573113717 [Eh]
	 SCS Opposite-Spin Energy  =      -1.3957668639619707 [Eh]
	 SCS Correlation Energy    =      -1.5180341212733424 [Eh]
	 SCS Total Energy          =    -346.2028568359901897 [Eh]
	-----------------------------------------------------------

  Dipole Moment: [D]
     X:     0.7324      Y:     1.2124      Z:    -0.1716     Total:     1.4268

*** Psi4 exiting successfully. Buy a developer a beer!
