                               Psi4 1.3.2 release

  ==> Input File <==

--------------------------------------------------------------------------
#psi4
#
memory 32 gb

molecule  {
0 1
  O        1.7630510    -0.6850120     0.0000440
  C        0.4546130    -0.2713300     0.0000100
  C        0.0381650     1.0640730    -0.0000210
  C       -0.4939038    -1.3032442     0.1500130
  C       -1.3314850     1.3526110    -0.0000590
  C       -1.8510560    -1.0002410    -0.0000260
  C       -2.2793230     0.3319890    -0.0000570
  C        2.7576030     0.3338520     0.0000720
  H        0.7532890     1.8795730    -0.0000260
  H       -0.1386390    -2.3300740     0.0000380
  H       -1.6510200     2.3922280    -0.0000820
  H       -2.5787280    -1.8083390    -0.0000230
  H       -3.3399740     0.5682180    -0.0000880
  H        2.6856690     0.9623970     0.8945570
  H        2.6857380     0.9623800    -0.8944310
  H        3.7115620    -0.1925360     0.0001130
units angstrom
no_reorient  #important for SAPT in psi4, default
symmetry c1  #important for SAPT in psi4, default
}

set PROPERTIES_ORIGIN ["COM"]
properties('MP2/aug-cc-pvtz', properties = ['dipole'])
--------------------------------------------------------------------------

    Molecular point group: c1
  Charge       = 0
  Multiplicity = 1
  Basis Set: AUG-CC-PVTZ
    Blend: AUG-CC-PVTZ
  Basis Set: (AUG-CC-PVTZ AUX)
    Blend: AUG-CC-PVTZ-JKFIT

    Orbital Energies [Eh]
    ---------------------

    Doubly Occupied:

       1A    -20.586089     2A    -11.303117     3A    -11.284942
       4A    -11.242312     5A    -11.241391     6A    -11.232797
       7A    -11.229435     8A    -11.227157     9A     -1.405718
      10A     -1.144216    11A     -1.019435    12A     -1.012395
      13A     -0.939774    14A     -0.830968    15A     -0.805464
      16A     -0.718373    17A     -0.662153    18A     -0.658496
      19A     -0.653110    20A     -0.618868    21A     -0.586419
      22A     -0.573247    23A     -0.526435    24A     -0.522878
      25A     -0.511389    26A     -0.481691    27A     -0.466919
      28A     -0.339726    29A     -0.312319

  @DF-RHF Final Energy:  -344.69685035265610

   => Energetics <=

    Nuclear Repulsion Energy =            345.0095556652053119
    One-Electron Energy =               -1151.1383467232626572
    Two-Electron Energy =                 461.4319407054012459
    Total Energy =                       -344.6968503526560994
  Basis Set: (AUG-CC-PVTZ AUX)
    Blend: AUG-CC-PVTZ-RI
    Molecular point group: c1

    Geometry (in Angstrom), charge = 0, multiplicity = 1:

       Center              X                  Y                   Z               Mass
    ------------   -----------------  -----------------  -----------------  -----------------
         O            1.782672435167    -0.662697041851    -0.016613298034    15.994914619570
         C            0.474234435167    -0.249015041851    -0.016647298034    12.000000000000
         C            0.057786435167     1.086387958149    -0.016678298034    12.000000000000
         C           -0.474282364833    -1.280929241851     0.133355701966    12.000000000000
         C           -1.311863564833     1.374925958149    -0.016716298034    12.000000000000
         C           -1.831434564833    -0.977926041851    -0.016683298034    12.000000000000
         C           -2.259701564833     0.354303958149    -0.016714298034    12.000000000000
         C            2.777224435167     0.356166958149    -0.016585298034    12.000000000000
         H            0.772910435167     1.901887958149    -0.016683298034     1.007825032230
         H           -0.119017564833    -2.307759041851    -0.016619298034     1.007825032230
         H           -1.631398564833     2.414542958149    -0.016739298034     1.007825032230
         H           -2.559106564833    -1.786024041851    -0.016680298034     1.007825032230
         H           -3.320352564833     0.590532958149    -0.016745298034     1.007825032230
         H            2.705290435167     0.984711958149     0.877899701966     1.007825032230
         H            2.705359435167     0.984694958149    -0.911088298034     1.007825032230
         H            3.731183435167    -0.170221041851    -0.016544298034     1.007825032230

  Basis Set: AUG-CC-PVTZ
    Blend: AUG-CC-PVTZ
  Basis Set: (AUG-CC-PVTZ AUX)
    Blend: AUG-CC-PVTZ-JKFIT
	 Reference Energy          =    -344.6968503526560994 [Eh]
	 Singles Energy            =      -0.0000000000000000 [Eh]
	 Same-Spin Energy          =      -0.3662867084660888 [Eh]
	 Opposite-Spin Energy      =      -1.1613629642744303 [Eh]
	 Correlation Energy        =      -1.5276496727405191 [Eh]
	 Total Energy              =    -346.2245000253965941 [Eh]

	 ================> DF-SCS-MP2 Energies <==================
	-----------------------------------------------------------
	 SCS Same-Spin Scale       =       0.3333333333333333 [-]
	 SCS Opposite-Spin Scale   =       1.2000000000000000 [-]
	 SCS Same-Spin Energy      =      -0.1220955694886963 [Eh]
	 SCS Opposite-Spin Energy  =      -1.3936355571293164 [Eh]
	 SCS Correlation Energy    =      -1.5157311266180127 [Eh]
	 SCS Total Energy          =    -346.2125814792740925 [Eh]
	-----------------------------------------------------------

  Dipole Moment: [D]
     X:     0.7388      Y:     1.1255      Z:    -0.1000     Total:     1.3500

*** Psi4 exiting successfully. Buy a developer a beer!
