                               Psi4 1.3.2 release

  ==> Input File <==

--------------------------------------------------------------------------
#psi4
#
memory 32 gb

molecule  {
0 1
  O        1.7630510    -0.6850120     0.0000440
  C        0.4546130    -0.2713300     0.0000100
  C        0.0381650     1.0640730    -0.0000210
  C       -0.4939010    -1.3032470     0.0000130
  C       -1.3314850     1.3526110    -0.0000590
  C       -1.8510560    -1.0002410    -0.0000260
  C       -2.2793230     0.3319890    -0.0000570
  C        2.7576030     0.3338520     0.0000720
  H        0.7532890     1.8795730    -0.0000260
  H       -0.1386390    -2.3300740     0.0000380
  H       -1.6510200     2.3922280    -0.0000820
  H       -2.5787280    -1.8083390    -0.0000230
  H       -3.3399740     0.5682180    -0.0000880
  H        2.6856690     0.9623970     0.8945570
  H        2.6857380     0.9623800    -0.8944310
  H        3.7115620    -0.1925360     0.0001130
units angstrom
no_reorient  #important for SAPT in psi4, default
symmetry c1  #important for SAPT in psi4, default
}

set PROPERTIES_ORIGIN ["COM"]
properties('MP2/aug-cc-pvtz', properties = ['dipole'])
--------------------------------------------------------------------------

    Molecular point group: c1
  Charge       = 0
  Multiplicity = 1
  Basis Set: AUG-CC-PVTZ
    Blend: AUG-CC-PVTZ
  Basis Set: (AUG-CC-PVTZ AUX)
    Blend: AUG-CC-PVTZ-JKFIT

    Orbital Energies [Eh]
    ---------------------

    Doubly Occupied:

       1A    -20.585549     2A    -11.301253     3A    -11.284783
       4A    -11.241112     5A    -11.239537     6A    -11.232872
       7A    -11.227750     8A    -11.227261     9A     -1.405341
      10A     -1.144893    11A     -1.020401    12A     -1.012525
      13A     -0.939797    14A     -0.831372    15A     -0.806501
      16A     -0.718909    17A     -0.663026    18A     -0.659025
      19A     -0.653193    20A     -0.618749    21A     -0.588215
      22A     -0.574338    23A     -0.525386    24A     -0.525126
      25A     -0.511699    26A     -0.482798    27A     -0.467523
      28A     -0.339944    29A     -0.312325

  @DF-RHF Final Energy:  -344.70349379490131

   => Energetics <=

    Nuclear Repulsion Energy =            345.2671877338677859
    One-Electron Energy =               -1151.6589571959279965
    Two-Electron Energy =                 461.6882756671589050
    Total Energy =                       -344.7034937949013056
  Basis Set: (AUG-CC-PVTZ AUX)
    Blend: AUG-CC-PVTZ-RI
    Molecular point group: c1

    Geometry (in Angstrom), charge = 0, multiplicity = 1:

       Center              X                  Y                   Z               Mass
    ------------   -----------------  -----------------  -----------------  -----------------
         O            1.782672124221    -0.662696730906     0.000044497604    15.994914619570
         C            0.474234124221    -0.249014730906     0.000010497604    12.000000000000
         C            0.057786124221     1.086388269094    -0.000020502396    12.000000000000
         C           -0.474279875779    -1.280931730906     0.000013497604    12.000000000000
         C           -1.311863875779     1.374926269094    -0.000058502396    12.000000000000
         C           -1.831434875779    -0.977925730906    -0.000025502396    12.000000000000
         C           -2.259701875779     0.354304269094    -0.000056502396    12.000000000000
         C            2.777224124221     0.356167269094     0.000072497604    12.000000000000
         H            0.772910124221     1.901888269094    -0.000025502396     1.007825032230
         H           -0.119017875779    -2.307758730906     0.000038497604     1.007825032230
         H           -1.631398875779     2.414543269094    -0.000081502396     1.007825032230
         H           -2.559106875779    -1.786023730906    -0.000022502396     1.007825032230
         H           -3.320352875779     0.590533269094    -0.000087502396     1.007825032230
         H            2.705290124221     0.984712269094     0.894557497604     1.007825032230
         H            2.705359124221     0.984695269094    -0.894430502396     1.007825032230
         H            3.731183124221    -0.170220730906     0.000113497604     1.007825032230

  Basis Set: AUG-CC-PVTZ
    Blend: AUG-CC-PVTZ
  Basis Set: (AUG-CC-PVTZ AUX)
    Blend: AUG-CC-PVTZ-JKFIT
	 Reference Energy          =    -344.7034937949013056 [Eh]
	 Singles Energy            =      -0.0000000000000000 [Eh]
	 Same-Spin Energy          =      -0.3659720597241152 [Eh]
	 Opposite-Spin Energy      =      -1.1603645071110713 [Eh]
	 Correlation Energy        =      -1.5263365668351865 [Eh]
	 Total Energy              =    -346.2298303617365036 [Eh]

	 ================> DF-SCS-MP2 Energies <==================
	-----------------------------------------------------------
	 SCS Same-Spin Scale       =       0.3333333333333333 [-]
	 SCS Opposite-Spin Scale   =       1.2000000000000000 [-]
	 SCS Same-Spin Energy      =      -0.1219906865747050 [Eh]
	 SCS Opposite-Spin Energy  =      -1.3924374085332856 [Eh]
	 SCS Correlation Energy    =      -1.5144280951079907 [Eh]
	 SCS Total Energy          =    -346.2179218900092792 [Eh]
	-----------------------------------------------------------

  Dipole Moment: [D]
     X:     0.7428      Y:     1.0758      Z:     0.0000     Total:     1.3073

*** Psi4 exiting successfully. Buy a developer a beer!
