                               Psi4 1.3.2 release

  ==> Input File <==

--------------------------------------------------------------------------
#psi4
#
memory 32 gb

molecule  {
0 1
  O        1.7630510    -0.6850120     0.0000440
  C        0.4546130    -0.2713300     0.0000100
  C        0.0381650     1.0640730    -0.0000210
  C       -0.4939066    -1.3032414     0.3000130
  C       -1.3314850     1.3526110    -0.0000590
  C       -1.8510560    -1.0002410    -0.0000260
  C       -2.2793230     0.3319890    -0.0000570
  C        2.7576030     0.3338520     0.0000720
  H        0.7532890     1.8795730    -0.0000260
  H       -0.1386390    -2.3300740     0.0000380
  H       -1.6510200     2.3922280    -0.0000820
  H       -2.5787280    -1.8083390    -0.0000230
  H       -3.3399740     0.5682180    -0.0000880
  H        2.6856690     0.9623970     0.8945570
  H        2.6857380     0.9623800    -0.8944310
  H        3.7115620    -0.1925360     0.0001130
units angstrom
no_reorient  #important for SAPT in psi4, default
symmetry c1  #important for SAPT in psi4, default
}

set PROPERTIES_ORIGIN ["COM"]
properties('MP2/aug-cc-pvtz', properties = ['dipole'])
--------------------------------------------------------------------------

    Molecular point group: c1
  Charge       = 0
  Multiplicity = 1
  Basis Set: AUG-CC-PVTZ
    Blend: AUG-CC-PVTZ
  Basis Set: (AUG-CC-PVTZ AUX)
    Blend: AUG-CC-PVTZ-JKFIT

    Orbital Energies [Eh]
    ---------------------

    Doubly Occupied:

       1A    -20.587781     2A    -11.308495     3A    -11.285458
       4A    -11.246745     5A    -11.246062     6A    -11.234257
       7A    -11.232765     8A    -11.227042     9A     -1.406899
      10A     -1.142479    11A     -1.016589    12A     -1.012179
      13A     -0.939715    14A     -0.829934    15A     -0.802791
      16A     -0.717429    17A     -0.660459    18A     -0.657205
      19A     -0.652642    20A     -0.619384    21A     -0.581806
      22A     -0.569990    23A     -0.526459    24A     -0.519542
      25A     -0.510182    26A     -0.477764    27A     -0.465045
      28A     -0.339369    29A     -0.312497

  @DF-RHF Final Energy:  -344.67644305436960

   => Energetics <=

    Nuclear Repulsion Energy =            344.2590796400380100
    One-Electron Energy =               -1149.6131145626541183
    Two-Electron Energy =                 460.6775918682465658
    Total Energy =                       -344.6764430543695994
  Basis Set: (AUG-CC-PVTZ AUX)
    Blend: AUG-CC-PVTZ-RI
    Molecular point group: c1

    Geometry (in Angstrom), charge = 0, multiplicity = 1:

       Center              X                  Y                   Z               Mass
    ------------   -----------------  -----------------  -----------------  -----------------
         O            1.782672746112    -0.662697352797    -0.033271093672    15.994914619570
         C            0.474234746112    -0.249015352797    -0.033305093672    12.000000000000
         C            0.057786746112     1.086387647203    -0.033336093672    12.000000000000
         C           -0.474284853888    -1.280926752797     0.266697906328    12.000000000000
         C           -1.311863253888     1.374925647203    -0.033374093672    12.000000000000
         C           -1.831434253888    -0.977926352797    -0.033341093672    12.000000000000
         C           -2.259701253888     0.354303647203    -0.033372093672    12.000000000000
         C            2.777224746112     0.356166647203    -0.033243093672    12.000000000000
         H            0.772910746112     1.901887647203    -0.033341093672     1.007825032230
         H           -0.119017253888    -2.307759352797    -0.033277093672     1.007825032230
         H           -1.631398253888     2.414542647203    -0.033397093672     1.007825032230
         H           -2.559106253888    -1.786024352797    -0.033338093672     1.007825032230
         H           -3.320352253888     0.590532647203    -0.033403093672     1.007825032230
         H            2.705290746112     0.984711647203     0.861241906328     1.007825032230
         H            2.705359746112     0.984694647203    -0.927746093672     1.007825032230
         H            3.731183746112    -0.170221352797    -0.033202093672     1.007825032230

  Basis Set: AUG-CC-PVTZ
    Blend: AUG-CC-PVTZ
  Basis Set: (AUG-CC-PVTZ AUX)
    Blend: AUG-CC-PVTZ-JKFIT
	 Reference Energy          =    -344.6764430543695994 [Eh]
	 Singles Energy            =      -0.0000000000000000 [Eh]
	 Same-Spin Energy          =      -0.3671383200382737 [Eh]
	 Opposite-Spin Energy      =      -1.1643230367436805 [Eh]
	 Correlation Energy        =      -1.5314613567819544 [Eh]
	 Total Energy              =    -346.2079044111515600 [Eh]

	 ================> DF-SCS-MP2 Energies <==================
	-----------------------------------------------------------
	 SCS Same-Spin Scale       =       0.3333333333333333 [-]
	 SCS Opposite-Spin Scale   =       1.2000000000000000 [-]
	 SCS Same-Spin Energy      =      -0.1223794400127579 [Eh]
	 SCS Opposite-Spin Energy  =      -1.3971876440924167 [Eh]
	 SCS Correlation Energy    =      -1.5195670841051747 [Eh]
	 SCS Total Energy          =    -346.1960101384747759 [Eh]
	-----------------------------------------------------------

  Dipole Moment: [D]
     X:     0.7287      Y:     1.2709      Z:    -0.2092     Total:     1.4798

*** Psi4 exiting successfully. Buy a developer a beer!
