                               Psi4 1.3.2 release

  ==> Input File <==

--------------------------------------------------------------------------
#psi4
#
memory 32 gb

molecule  {
0 1
  O        1.7630510    -0.6850120     0.0000440
  C        0.4546130    -0.2713300     0.0000100
  C        0.0381650     1.0640730    -0.0000210
  C       -0.4939048    -1.3032433     0.2000130
  C       -1.3314850     1.3526110    -0.0000590
  C       -1.8510560    -1.0002410    -0.0000260
  C       -2.2793230     0.3319890    -0.0000570
  C        2.7576030     0.3338520     0.0000720
  H        0.7532890     1.8795730    -0.0000260
  H       -0.1386390    -2.3300740     0.0000380
  H       -1.6510200     2.3922280    -0.0000820
  H       -2.5787280    -1.8083390    -0.0000230
  H       -3.3399740     0.5682180    -0.0000880
  H        2.6856690     0.9623970     0.8945570
  H        2.6857380     0.9623800    -0.8944310
  H        3.7115620    -0.1925360     0.0001130
units angstrom
no_reorient  #important for SAPT in psi4, default
symmetry c1  #important for SAPT in psi4, default
}

set PROPERTIES_ORIGIN ["COM"]
properties('MP2/aug-cc-pvtz', properties = ['dipole'])
--------------------------------------------------------------------------

    Molecular point group: c1
  Charge       = 0
  Multiplicity = 1
  Basis Set: AUG-CC-PVTZ
    Blend: AUG-CC-PVTZ
  Basis Set: (AUG-CC-PVTZ AUX)
    Blend: AUG-CC-PVTZ-JKFIT

    Orbital Energies [Eh]
    ---------------------

    Doubly Occupied:

       1A    -20.586524     2A    -11.304551     3A    -11.285074
       4A    -11.243274     5A    -11.242820     6A    -11.232773
       7A    -11.230729     8A    -11.227109     9A     -1.406023
      10A     -1.143734    11A     -1.018696    12A     -1.012326
      13A     -0.939764    14A     -0.830685    15A     -0.804717
      16A     -0.718049    17A     -0.661591    18A     -0.658126
      19A     -0.653026    20A     -0.618988    21A     -0.585116
      22A     -0.572400    23A     -0.526570    24A     -0.521849
      25A     -0.511131    26A     -0.480767    27A     -0.466448
      28A     -0.339599    29A     -0.312346

  @DF-RHF Final Energy:  -344.69161571418852

   => Energetics <=

    Nuclear Repulsion Energy =            344.8118171685719631
    One-Electron Energy =               -1150.7372579322016009
    Two-Electron Energy =                 461.2338250494411795
    Total Energy =                       -344.6916157141885151
  Basis Set: (AUG-CC-PVTZ AUX)
    Blend: AUG-CC-PVTZ-RI
    Molecular point group: c1

    Geometry (in Angstrom), charge = 0, multiplicity = 1:

       Center              X                  Y                   Z               Mass
    ------------   -----------------  -----------------  -----------------  -----------------
         O            1.782672546219    -0.662697141798    -0.022165896580    15.994914619570
         C            0.474234546219    -0.249015141798    -0.022199896580    12.000000000000
         C            0.057786546219     1.086387858202    -0.022230896580    12.000000000000
         C           -0.474283253781    -1.280928441798     0.177803103420    12.000000000000
         C           -1.311863453781     1.374925858202    -0.022268896580    12.000000000000
         C           -1.831434453781    -0.977926141798    -0.022235896580    12.000000000000
         C           -2.259701453781     0.354303858202    -0.022266896580    12.000000000000
         C            2.777224546219     0.356166858202    -0.022137896580    12.000000000000
         H            0.772910546219     1.901887858202    -0.022235896580     1.007825032230
         H           -0.119017453781    -2.307759141798    -0.022171896580     1.007825032230
         H           -1.631398453781     2.414542858202    -0.022291896580     1.007825032230
         H           -2.559106453781    -1.786024141798    -0.022232896580     1.007825032230
         H           -3.320352453781     0.590532858202    -0.022297896580     1.007825032230
         H            2.705290546219     0.984711858202     0.872347103420     1.007825032230
         H            2.705359546219     0.984694858202    -0.916640896580     1.007825032230
         H            3.731183546219    -0.170221141798    -0.022096896580     1.007825032230

  Basis Set: AUG-CC-PVTZ
    Blend: AUG-CC-PVTZ
  Basis Set: (AUG-CC-PVTZ AUX)
    Blend: AUG-CC-PVTZ-JKFIT
	 Reference Energy          =    -344.6916157141885151 [Eh]
	 Singles Energy            =      -0.0000000000000000 [Eh]
	 Same-Spin Energy          =      -0.3665159101904771 [Eh]
	 Opposite-Spin Energy      =      -1.1621472230838523 [Eh]
	 Correlation Energy        =      -1.5286631332743295 [Eh]
	 Total Energy              =    -346.2202788474628505 [Eh]

	 ================> DF-SCS-MP2 Energies <==================
	-----------------------------------------------------------
	 SCS Same-Spin Scale       =       0.3333333333333333 [-]
	 SCS Opposite-Spin Scale   =       1.2000000000000000 [-]
	 SCS Same-Spin Energy      =      -0.1221719700634924 [Eh]
	 SCS Opposite-Spin Energy  =      -1.3945766677006228 [Eh]
	 SCS Correlation Energy    =      -1.5167486377641153 [Eh]
	 SCS Total Energy          =    -346.2083643519526390 [Eh]
	-----------------------------------------------------------

  Dipole Moment: [D]
     X:     0.7359      Y:     1.1637      Z:    -0.1352     Total:     1.3835

*** Psi4 exiting successfully. Buy a developer a beer!
