                               Psi4 1.3.2 release

  ==> Input File <==

--------------------------------------------------------------------------
#psi4
#
memory 32 gb

molecule  {
0 1
  O        1.7630510    -0.6850120     0.0000440
  C        0.4546130    -0.2713300     0.0000100
  C        0.0381650     1.0640730    -0.0000210
  C       -0.4939019    -1.3032461     0.0500130
  C       -1.3314850     1.3526110    -0.0000590
  C       -1.8510560    -1.0002410    -0.0000260
  C       -2.2793230     0.3319890    -0.0000570
  C        2.7576030     0.3338520     0.0000720
  H        0.7532890     1.8795730    -0.0000260
  H       -0.1386390    -2.3300740     0.0000380
  H       -1.6510200     2.3922280    -0.0000820
  H       -2.5787280    -1.8083390    -0.0000230
  H       -3.3399740     0.5682180    -0.0000880
  H        2.6856690     0.9623970     0.8945570
  H        2.6857380     0.9623800    -0.8944310
  H        3.7115620    -0.1925360     0.0001130
units angstrom
no_reorient  #important for SAPT in psi4, default
symmetry c1  #important for SAPT in psi4, default
}

set PROPERTIES_ORIGIN ["COM"]
properties('MP2/aug-cc-pvtz', properties = ['dipole'])
--------------------------------------------------------------------------

    Molecular point group: c1
  Charge       = 0
  Multiplicity = 1
  Basis Set: AUG-CC-PVTZ
    Blend: AUG-CC-PVTZ
  Basis Set: (AUG-CC-PVTZ AUX)
    Blend: AUG-CC-PVTZ-JKFIT

    Orbital Energies [Eh]
    ---------------------

    Doubly Occupied:

       1A    -20.585603     2A    -11.301455     3A    -11.284798
       4A    -11.241237     5A    -11.239737     6A    -11.232854
       7A    -11.227931     8A    -11.227240     9A     -1.405378
      10A     -1.144808    11A     -1.020287    12A     -1.012502
      13A     -0.939790    14A     -0.831319    15A     -0.806375
      16A     -0.718837    17A     -0.662915    18A     -0.658958
      19A     -0.653182    20A     -0.618754    21A     -0.588003
      22A     -0.574212    23A     -0.525791    24A     -0.524578
      25A     -0.511660    26A     -0.482675    27A     -0.467454
      28A     -0.339911    29A     -0.312316

  @DF-RHF Final Energy:  -344.70276471746234

   => Energetics <=

    Nuclear Repulsion Energy =            345.2383674958190909
    One-Electron Energy =               -1151.6011512876248162
    Two-Electron Energy =                 461.6600190743433245
    Total Energy =                       -344.7027647174623439
  Basis Set: (AUG-CC-PVTZ AUX)
    Blend: AUG-CC-PVTZ-RI
    Molecular point group: c1

    Geometry (in Angstrom), charge = 0, multiplicity = 1:

       Center              X                  Y                   Z               Mass
    ------------   -----------------  -----------------  -----------------  -----------------
         O            1.782672224168    -0.662696830852    -0.005508100942    15.994914619570
         C            0.474234224168    -0.249014830852    -0.005542100942    12.000000000000
         C            0.057786224168     1.086388169148    -0.005573100942    12.000000000000
         C           -0.474280675832    -1.280930930852     0.044460899058    12.000000000000
         C           -1.311863775832     1.374926169148    -0.005611100942    12.000000000000
         C           -1.831434775832    -0.977925830852    -0.005578100942    12.000000000000
         C           -2.259701775832     0.354304169148    -0.005609100942    12.000000000000
         C            2.777224224168     0.356167169148    -0.005480100942    12.000000000000
         H            0.772910224168     1.901888169148    -0.005578100942     1.007825032230
         H           -0.119017775832    -2.307758830852    -0.005514100942     1.007825032230
         H           -1.631398775832     2.414543169148    -0.005634100942     1.007825032230
         H           -2.559106775832    -1.786023830852    -0.005575100942     1.007825032230
         H           -3.320352775832     0.590533169148    -0.005640100942     1.007825032230
         H            2.705290224168     0.984712169148     0.889004899058     1.007825032230
         H            2.705359224168     0.984695169148    -0.899983100942     1.007825032230
         H            3.731183224168    -0.170220830852    -0.005439100942     1.007825032230

  Basis Set: AUG-CC-PVTZ
    Blend: AUG-CC-PVTZ
  Basis Set: (AUG-CC-PVTZ AUX)
    Blend: AUG-CC-PVTZ-JKFIT
	 Reference Energy          =    -344.7027647174623439 [Eh]
	 Singles Energy            =      -0.0000000000000000 [Eh]
	 Same-Spin Energy          =      -0.3660123032903730 [Eh]
	 Opposite-Spin Energy      =      -1.1604736820525074 [Eh]
	 Correlation Energy        =      -1.5264859853428805 [Eh]
	 Total Energy              =    -346.2292507028052455 [Eh]

	 ================> DF-SCS-MP2 Energies <==================
	-----------------------------------------------------------
	 SCS Same-Spin Scale       =       0.3333333333333333 [-]
	 SCS Opposite-Spin Scale   =       1.2000000000000000 [-]
	 SCS Same-Spin Energy      =      -0.1220041010967910 [Eh]
	 SCS Opposite-Spin Energy  =      -1.3925684184630089 [Eh]
	 SCS Correlation Energy    =      -1.5145725195597999 [Eh]
	 SCS Total Energy          =    -346.2173372370221500 [Eh]
	-----------------------------------------------------------

  Dipole Moment: [D]
     X:     0.7424      Y:     1.0814      Z:    -0.0327     Total:     1.3121

*** Psi4 exiting successfully. Buy a developer a beer!
