                               Psi4 1.3.2 release

  ==> Input File <==

--------------------------------------------------------------------------
#psi4
#
memory 32 gb

molecule  {
0 1
  O       -0.4503844    -0.7104871    -0.0967263
  O        0.7644980     1.3096330    -0.3008230
  C       -1.5732990     0.0884110    -0.4535820
  C       -2.3348950     0.5731210     0.7352070
  C       -2.8287970    -0.6125310    -0.0653010
  C        0.7497060     0.1014470    -0.1470330
  C        1.9486320    -0.7720410     0.1304860
  C        3.2415180     0.0282310     0.1994850
  H       -1.5381270     0.6983470    -1.3501410
  H       -2.8570690     1.5207960     0.6581610
  H       -1.9008860     0.3656440     1.7072090
  H       -2.7164270    -1.5934380     0.3831630
  H       -3.7013020    -0.4946440    -0.6989290
  H        1.9898960    -1.5384530    -0.6513980
  H        1.7579480    -1.3107300     1.0655760
  H        3.4252360     0.5490440    -0.7422050
  H        3.1899860     0.7802560     0.9891470
  H        4.0874550    -0.6333920     0.4026520
units angstrom
no_reorient  #important for SAPT in psi4, default
symmetry c1  #important for SAPT in psi4, default
}

set PROPERTIES_ORIGIN ["COM"]
properties('MP2/aug-cc-pvtz', properties = ['dipole'])
--------------------------------------------------------------------------

    Molecular point group: c1
  Charge       = 0
  Multiplicity = 1
  Basis Set: AUG-CC-PVTZ
    Blend: AUG-CC-PVTZ
  Basis Set: (AUG-CC-PVTZ AUX)
    Blend: AUG-CC-PVTZ-JKFIT

    Orbital Energies [Eh]
    ---------------------

    Doubly Occupied:

       1A    -20.602567     2A    -20.561624     3A    -11.391479
       4A    -11.287674     5A    -11.250519     6A    -11.227079
       7A    -11.225664     8A    -11.224204     9A     -1.436245
      10A     -1.359988    11A     -1.136066    12A     -1.062968
      13A     -0.910958    14A     -0.832351    15A     -0.815107
      16A     -0.764733    17A     -0.706433    18A     -0.671260
      19A     -0.662541    20A     -0.637361    21A     -0.611682
      22A     -0.582920    23A     -0.558312    24A     -0.530447
      25A     -0.525981    26A     -0.517484    27A     -0.505652
      28A     -0.493534    29A     -0.457884    30A     -0.420202
      31A     -0.406643

  @DF-RHF Final Energy:  -382.86262749548609

   => Energetics <=

    Nuclear Repulsion Energy =            375.6953855493329684
    One-Electron Energy =               -1266.3609020365788638
    Two-Electron Energy =                 507.8028889917598008
    Total Energy =                       -382.8626274954860946
  Basis Set: (AUG-CC-PVTZ AUX)
    Blend: AUG-CC-PVTZ-RI
    Molecular point group: c1

    Geometry (in Angstrom), charge = 0, multiplicity = 1:

       Center              X                  Y                   Z               Mass
    ------------   -----------------  -----------------  -----------------  -----------------
         O           -0.425915679336    -0.717442690070    -0.098562126999    15.994914619570
         O            0.788966720664     1.302677409930    -0.302658826999    15.994914619570
         C           -1.548830279336     0.081455409930    -0.455417826999    12.000000000000
         C           -2.310426279336     0.566165409930     0.733371173001    12.000000000000
         C           -2.804328279336    -0.619486590070    -0.067136826999    12.000000000000
         C            0.774174720664     0.094491409930    -0.148868826999    12.000000000000
         C            1.973100720664    -0.778996590070     0.128650173001    12.000000000000
         C            3.265986720664     0.021275409930     0.197649173001    12.000000000000
         H           -1.513658279336     0.691391409930    -1.351976826999     1.007825032230
         H           -2.832600279336     1.513840409930     0.656325173001     1.007825032230
         H           -1.876417279336     0.358688409930     1.705373173001     1.007825032230
         H           -2.691958279336    -1.600393590070     0.381327173001     1.007825032230
         H           -3.676833279336    -0.501599590070    -0.700764826999     1.007825032230
         H            2.014364720664    -1.545408590070    -0.653233826999     1.007825032230
         H            1.782416720664    -1.317685590070     1.063740173001     1.007825032230
         H            3.449704720664     0.542088409930    -0.744040826999     1.007825032230
         H            3.214454720664     0.773300409930     0.987311173001     1.007825032230
         H            4.111923720664    -0.640347590070     0.400816173001     1.007825032230

  Basis Set: AUG-CC-PVTZ
    Blend: AUG-CC-PVTZ
  Basis Set: (AUG-CC-PVTZ AUX)
    Blend: AUG-CC-PVTZ-JKFIT
	 Reference Energy          =    -382.8626274954860946 [Eh]
	 Singles Energy            =      -0.0000000000000000 [Eh]
	 Same-Spin Energy          =      -0.3861861681097009 [Eh]
	 Opposite-Spin Energy      =      -1.2587060042881322 [Eh]
	 Correlation Energy        =      -1.6448921723978331 [Eh]
	 Total Energy              =    -384.5075196678839120 [Eh]

	 ================> DF-SCS-MP2 Energies <==================
	-----------------------------------------------------------
	 SCS Same-Spin Scale       =       0.3333333333333333 [-]
	 SCS Opposite-Spin Scale   =       1.2000000000000000 [-]
	 SCS Same-Spin Energy      =      -0.1287287227032336 [Eh]
	 SCS Opposite-Spin Energy  =      -1.5104472051457585 [Eh]
	 SCS Correlation Energy    =      -1.6391759278489921 [Eh]
	 SCS Total Energy          =    -384.5018034233351045 [Eh]
	-----------------------------------------------------------

  Dipole Moment: [D]
     X:     0.0983      Y:    -1.2511      Z:     0.1214     Total:     1.2608

*** Psi4 exiting successfully. Buy a developer a beer!
