                               Psi4 1.4a3.dev225

  ==> Input File <==

--------------------------------------------------------------------------
#psi4
#
memory 32 gb

molecule  {
0 1
  O       -0.3837350    -0.6575400    -0.2190270
  O        0.7644980     1.3096330    -0.3008230
  C       -1.6150803     0.1146112    -0.4618203
  C       -2.3348950     0.5731210     0.7352070
  C       -2.8287970    -0.6125310    -0.0653010
  C        0.7497060     0.1014470    -0.1470330
  C        1.9486320    -0.7720410     0.1304860
  C        3.2415180     0.0282310     0.1994850
  H       -1.5381270     0.6983470    -1.3501410
  H       -2.8570690     1.5207960     0.6581610
  H       -1.9008860     0.3656440     1.7072090
  H       -2.7164270    -1.5934380     0.3831630
  H       -3.7013020    -0.4946440    -0.6989290
  H        1.9898960    -1.5384530    -0.6513980
  H        1.7579480    -1.3107300     1.0655760
  H        3.4252360     0.5490440    -0.7422050
  H        3.1899860     0.7802560     0.9891470
  H        4.0874550    -0.6333920     0.4026520
units angstrom
no_reorient  #important for SAPT in psi4, default
symmetry c1  #important for SAPT in psi4, default
}

set PROPERTIES_ORIGIN ["COM"]
properties('MP2/aug-cc-pvtz', properties = ['dipole'])
--------------------------------------------------------------------------

    Molecular point group: c1
  Charge       = 0
  Multiplicity = 1
  Basis Set: AUG-CC-PVTZ
    Blend: AUG-CC-PVTZ
  Basis Set: (AUG-CC-PVTZ AUX)
    Blend: AUG-CC-PVTZ-JKFIT

    Orbital Energies [Eh]
    ---------------------

    Doubly Occupied:

       1A    -20.600181     2A    -20.542234     3A    -11.377067
       4A    -11.294269     5A    -11.244143     6A    -11.234709
       7A    -11.233512     8A    -11.219411     9A     -1.443223
      10A     -1.348200    11A     -1.155925    12A     -1.057867
      13A     -0.910226    14A     -0.840923    15A     -0.825146
      16A     -0.763307    17A     -0.701211    18A     -0.672793
      19A     -0.671059    20A     -0.641635    21A     -0.610916
      22A     -0.584335    23A     -0.557520    24A     -0.526409
      25A     -0.521178    26A     -0.514594    27A     -0.500039
      28A     -0.479613    29A     -0.451886    30A     -0.431542
      31A     -0.424119

  @DF-RHF Final Energy:  -382.87431601042971

   => Energetics <=

    Nuclear Repulsion Energy =            376.5234978944521345
    One-Electron Energy =               -1268.0372392547847085
    Two-Electron Energy =                 508.6394253499028650
    Total Energy =                       -382.8743160104297090
  Basis Set: (AUG-CC-PVTZ AUX)
    Blend: AUG-CC-PVTZ-RI
    Molecular point group: c1

    Geometry (in Angstrom), charge = 0, multiplicity = 1:

       Center              X                  Y                   Z               Mass
    ------------   -----------------  -----------------  -----------------  -----------------
         O           -0.364216620086    -0.674676236122    -0.202846841612    15.994914619570
         O            0.784016379914     1.292496763878    -0.284642841612    15.994914619570
         C           -1.595561920086     0.097474963878    -0.445640141612    12.000000000000
         C           -2.315376620086     0.555984763878     0.751387158388    12.000000000000
         C           -2.809278620086    -0.629667236122    -0.049120841612    12.000000000000
         C            0.769224379914     0.084310763878    -0.130852841612    12.000000000000
         C            1.968150379914    -0.789177236122     0.146666158388    12.000000000000
         C            3.261036379914     0.011094763878     0.215665158388    12.000000000000
         H           -1.518608620086     0.681210763878    -1.333960841612     1.007825032230
         H           -2.837550620086     1.503659763878     0.674341158388     1.007825032230
         H           -1.881367620086     0.348507763878     1.723389158388     1.007825032230
         H           -2.696908620086    -1.610574236122     0.399343158388     1.007825032230
         H           -3.681783620086    -0.511780236122    -0.682748841612     1.007825032230
         H            2.009414379914    -1.555589236122    -0.635217841612     1.007825032230
         H            1.777466379914    -1.327866236122     1.081756158388     1.007825032230
         H            3.444754379914     0.531907763878    -0.726024841612     1.007825032230
         H            3.209504379914     0.763119763878     1.005327158388     1.007825032230
         H            4.106973379914    -0.650528236122     0.418832158388     1.007825032230

  Basis Set: AUG-CC-PVTZ
    Blend: AUG-CC-PVTZ
  Basis Set: (AUG-CC-PVTZ AUX)
    Blend: AUG-CC-PVTZ-JKFIT
	 Reference Energy          =    -382.8743160104297090 [Eh]
	 Singles Energy            =      -0.0000000000000000 [Eh]
	 Same-Spin Energy          =      -0.3845228296878984 [Eh]
	 Opposite-Spin Energy      =      -1.2546289092717999 [Eh]
	 Correlation Energy        =      -1.6391517389596983 [Eh]
	 Total Energy              =    -384.5134677493894060 [Eh]

	 ================> DF-SCS-MP2 Energies <==================
	-----------------------------------------------------------
	 SCS Same-Spin Scale       =       0.3333333333333333 [-]
	 SCS Opposite-Spin Scale   =       1.2000000000000000 [-]
	 SCS Same-Spin Energy      =      -0.1281742765626328 [Eh]
	 SCS Opposite-Spin Energy  =      -1.5055546911261599 [Eh]
	 SCS Correlation Energy    =      -1.6337289676887927 [Eh]
	 SCS Total Energy          =    -384.5080449781185052 [Eh]
	-----------------------------------------------------------

  Dipole Moment: [D]
     X:    -0.6761      Y:    -1.4659      Z:     0.3021     Total:     1.6423

*** Psi4 exiting successfully. Buy a developer a beer!
