                               Psi4 1.3.2 release

  ==> Input File <==

--------------------------------------------------------------------------
#psi4
#
memory 32 gb

molecule  {
0 1
  O       -0.3837350    -0.6575400    -0.2190270
  O        0.7644980     1.3096330    -0.3008230
  C       -1.5460683     0.1299687    -0.4542564
  C       -2.3348950     0.5731210     0.7352070
  C       -2.8287970    -0.6125310    -0.0653010
  C        0.7497060     0.1014470    -0.1470330
  C        1.9486320    -0.7720410     0.1304860
  C        3.2415180     0.0282310     0.1994850
  H       -1.5381270     0.6983470    -1.3501410
  H       -2.8570690     1.5207960     0.6581610
  H       -1.9008860     0.3656440     1.7072090
  H       -2.7164270    -1.5934380     0.3831630
  H       -3.7013020    -0.4946440    -0.6989290
  H        1.9898960    -1.5384530    -0.6513980
  H        1.7579480    -1.3107300     1.0655760
  H        3.4252360     0.5490440    -0.7422050
  H        3.1899860     0.7802560     0.9891470
  H        4.0874550    -0.6333920     0.4026520
units angstrom
no_reorient  #important for SAPT in psi4, default
symmetry c1  #important for SAPT in psi4, default
}

set PROPERTIES_ORIGIN ["COM"]
properties('MP2/aug-cc-pvtz', properties = ['dipole'])
--------------------------------------------------------------------------

    Molecular point group: c1
  Charge       = 0
  Multiplicity = 1
  Basis Set: AUG-CC-PVTZ
    Blend: AUG-CC-PVTZ
  Basis Set: (AUG-CC-PVTZ AUX)
    Blend: AUG-CC-PVTZ-JKFIT

    Orbital Energies [Eh]
    ---------------------

    Doubly Occupied:

       1A    -20.607367     2A    -20.546232     3A    -11.380335
       4A    -11.292904     5A    -11.246277     6A    -11.234562
       7A    -11.232796     8A    -11.221020     9A     -1.456531
      10A     -1.356757    11A     -1.137429    12A     -1.060133
      13A     -0.916061    14A     -0.835919    15A     -0.827720
      16A     -0.767612    17A     -0.703443    18A     -0.678802
      19A     -0.670375    20A     -0.639863    21A     -0.610478
      22A     -0.589330    23A     -0.561986    24A     -0.525272
      25A     -0.523623    26A     -0.519831    27A     -0.503026
      28A     -0.483827    29A     -0.450959    30A     -0.427729
      31A     -0.411081

  @DF-RHF Final Energy:  -382.87460543786642

   => Energetics <=

    Nuclear Repulsion Energy =            376.9885379812426436
    One-Electron Energy =               -1268.8877245514336209
    Two-Electron Energy =                 509.0245811323245562
    Total Energy =                       -382.8746054378664212
  Basis Set: (AUG-CC-PVTZ AUX)
    Blend: AUG-CC-PVTZ-RI
    Molecular point group: c1

    Geometry (in Angstrom), charge = 0, multiplicity = 1:

       Center              X                  Y                   Z               Mass
    ------------   -----------------  -----------------  -----------------  -----------------
         O           -0.371476705494    -0.676291850242    -0.203642566414    15.994914619570
         O            0.776756294506     1.290881149758    -0.285438566414    15.994914619570
         C           -1.533810005494     0.111216849758    -0.438871966414    12.000000000000
         C           -2.322636705494     0.554369149758     0.750591433586    12.000000000000
         C           -2.816538705494    -0.631282850242    -0.049916566414    12.000000000000
         C            0.761964294506     0.082695149758    -0.131648566414    12.000000000000
         C            1.960890294506    -0.790792850242     0.145870433586    12.000000000000
         C            3.253776294506     0.009479149758     0.214869433586    12.000000000000
         H           -1.525868705494     0.679595149758    -1.334756566414     1.007825032230
         H           -2.844810705494     1.502044149758     0.673545433586     1.007825032230
         H           -1.888627705494     0.346892149758     1.722593433586     1.007825032230
         H           -2.704168705494    -1.612189850242     0.398547433586     1.007825032230
         H           -3.689043705494    -0.513395850242    -0.683544566414     1.007825032230
         H            2.002154294506    -1.557204850242    -0.636013566414     1.007825032230
         H            1.770206294506    -1.329481850242     1.080960433586     1.007825032230
         H            3.437494294506     0.530292149758    -0.726820566414     1.007825032230
         H            3.202244294506     0.761504149758     1.004531433586     1.007825032230
         H            4.099713294506    -0.652143850242     0.418036433586     1.007825032230

  Basis Set: AUG-CC-PVTZ
    Blend: AUG-CC-PVTZ
  Basis Set: (AUG-CC-PVTZ AUX)
    Blend: AUG-CC-PVTZ-JKFIT
	 Reference Energy          =    -382.8746054378664212 [Eh]
	 Singles Energy            =      -0.0000000000000000 [Eh]
	 Same-Spin Energy          =      -0.3844975338075654 [Eh]
	 Opposite-Spin Energy      =      -1.2548738817213514 [Eh]
	 Correlation Energy        =      -1.6393714155289167 [Eh]
	 Total Energy              =    -384.5139768533953202 [Eh]

	 ================> DF-SCS-MP2 Energies <==================
	-----------------------------------------------------------
	 SCS Same-Spin Scale       =       0.3333333333333333 [-]
	 SCS Opposite-Spin Scale   =       1.2000000000000000 [-]
	 SCS Same-Spin Energy      =      -0.1281658446025218 [Eh]
	 SCS Opposite-Spin Energy  =      -1.5058486580656216 [Eh]
	 SCS Correlation Energy    =      -1.6340145026681434 [Eh]
	 SCS Total Energy          =    -384.5086199405345724 [Eh]
	-----------------------------------------------------------

  Dipole Moment: [D]
     X:    -0.4075      Y:    -1.4528      Z:     0.3182     Total:     1.5421

*** Psi4 exiting successfully. Buy a developer a beer!
