                               Psi4 1.3.2 release

  ==> Input File <==

--------------------------------------------------------------------------
#psi4
#
memory 32 gb

molecule  {
0 1
  O       -0.4002532    -0.6466460    -0.1216541
  O        0.7644980     1.3096330    -0.3008230
  C       -1.5732990     0.0884110    -0.4535820
  C       -2.3348950     0.5731210     0.7352070
  C       -2.8287970    -0.6125310    -0.0653010
  C        0.7497060     0.1014470    -0.1470330
  C        1.9486320    -0.7720410     0.1304860
  C        3.2415180     0.0282310     0.1994850
  H       -1.5381270     0.6983470    -1.3501410
  H       -2.8570690     1.5207960     0.6581610
  H       -1.9008860     0.3656440     1.7072090
  H       -2.7164270    -1.5934380     0.3831630
  H       -3.7013020    -0.4946440    -0.6989290
  H        1.9898960    -1.5384530    -0.6513980
  H        1.7579480    -1.3107300     1.0655760
  H        3.4252360     0.5490440    -0.7422050
  H        3.1899860     0.7802560     0.9891470
  H        4.0874550    -0.6333920     0.4026520
units angstrom
no_reorient  #important for SAPT in psi4, default
symmetry c1  #important for SAPT in psi4, default
}

set PROPERTIES_ORIGIN ["COM"]
properties('MP2/aug-cc-pvtz', properties = ['dipole'])
--------------------------------------------------------------------------

    Molecular point group: c1
  Charge       = 0
  Multiplicity = 1
  Basis Set: AUG-CC-PVTZ
    Blend: AUG-CC-PVTZ
  Basis Set: (AUG-CC-PVTZ AUX)
    Blend: AUG-CC-PVTZ-JKFIT

    Orbital Energies [Eh]
    ---------------------

    Doubly Occupied:

       1A    -20.605173     2A    -20.546925     3A    -11.381523
       4A    -11.292874     5A    -11.246799     6A    -11.232735
       7A    -11.229028     8A    -11.221306     9A     -1.453401
      10A     -1.356854    11A     -1.144311    12A     -1.060363
      13A     -0.914852    14A     -0.836585    15A     -0.824713
      16A     -0.768583    17A     -0.703695    18A     -0.675656
      19A     -0.670288    20A     -0.639331    21A     -0.608903
      22A     -0.589138    23A     -0.560327    24A     -0.525495
      25A     -0.523743    26A     -0.519315    27A     -0.502998
      28A     -0.485218    29A     -0.452934    30A     -0.427922
      31A     -0.410985

  @DF-RHF Final Energy:  -382.87506186739932

   => Energetics <=

    Nuclear Repulsion Energy =            377.2508446210275110
    One-Electron Energy =               -1269.4278638169250826
    Two-Electron Energy =                 509.3019573284983039
    Total Energy =                       -382.8750618673993245
  Basis Set: (AUG-CC-PVTZ AUX)
    Blend: AUG-CC-PVTZ-RI
    Molecular point group: c1

    Geometry (in Angstrom), charge = 0, multiplicity = 1:

       Center              X                  Y                   Z               Mass
    ------------   -----------------  -----------------  -----------------  -----------------
         O           -0.382814002993    -0.662553550580    -0.119994487835    15.994914619570
         O            0.781937197007     1.293725449420    -0.299163387835    15.994914619570
         C           -1.555859802993     0.072503449420    -0.451922387835    12.000000000000
         C           -2.317455802993     0.557213449420     0.736866612165    12.000000000000
         C           -2.811357802993    -0.628438550580    -0.063641387835    12.000000000000
         C            0.767145197007     0.085539449420    -0.145373387835    12.000000000000
         C            1.966071197007    -0.787948550580     0.132145612165    12.000000000000
         C            3.258957197007     0.012323449420     0.201144612165    12.000000000000
         H           -1.520687802993     0.682439449420    -1.348481387835     1.007825032230
         H           -2.839629802993     1.504888449420     0.659820612165     1.007825032230
         H           -1.883446802993     0.349736449420     1.708868612165     1.007825032230
         H           -2.698987802993    -1.609345550580     0.384822612165     1.007825032230
         H           -3.683862802993    -0.510551550580    -0.697269387835     1.007825032230
         H            2.007335197007    -1.554360550580    -0.649738387835     1.007825032230
         H            1.775387197007    -1.326637550580     1.067235612165     1.007825032230
         H            3.442675197007     0.533136449420    -0.740545387835     1.007825032230
         H            3.207425197007     0.764348449420     0.990806612165     1.007825032230
         H            4.104894197007    -0.649299550580     0.404311612165     1.007825032230

  Basis Set: AUG-CC-PVTZ
    Blend: AUG-CC-PVTZ
  Basis Set: (AUG-CC-PVTZ AUX)
    Blend: AUG-CC-PVTZ-JKFIT
	 Reference Energy          =    -382.8750618673993245 [Eh]
	 Singles Energy            =      -0.0000000000000000 [Eh]
	 Same-Spin Energy          =      -0.3846617067664254 [Eh]
	 Opposite-Spin Energy      =      -1.2546767111937132 [Eh]
	 Correlation Energy        =      -1.6393384179601385 [Eh]
	 Total Energy              =    -384.5144002853594429 [Eh]

	 ================> DF-SCS-MP2 Energies <==================
	-----------------------------------------------------------
	 SCS Same-Spin Scale       =       0.3333333333333333 [-]
	 SCS Opposite-Spin Scale   =       1.2000000000000000 [-]
	 SCS Same-Spin Energy      =      -0.1282205689221418 [Eh]
	 SCS Opposite-Spin Energy  =      -1.5056120534324557 [Eh]
	 SCS Correlation Energy    =      -1.6338326223545976 [Eh]
	 SCS Total Energy          =    -384.5088944897539136 [Eh]
	-----------------------------------------------------------

  Dipole Moment: [D]
     X:    -0.3817      Y:    -1.5020      Z:     0.1737     Total:     1.5595

*** Psi4 exiting successfully. Buy a developer a beer!
