                               Psi4 1.3.2 release

  ==> Input File <==

--------------------------------------------------------------------------
#psi4
#
memory 32 gb

molecule  {
0 1
  O       -0.4267620    -0.6937839    -0.1371242
  O        0.7644980     1.3096330    -0.3008230
  C       -1.5732990     0.0884110    -0.4535820
  C       -2.3348950     0.5731210     0.7352070
  C       -2.8287970    -0.6125310    -0.0653010
  C        0.7497060     0.1014470    -0.1470330
  C        1.9486320    -0.7720410     0.1304860
  C        3.2415180     0.0282310     0.1994850
  H       -1.5381270     0.6983470    -1.3501410
  H       -2.8570690     1.5207960     0.6581610
  H       -1.9008860     0.3656440     1.7072090
  H       -2.7164270    -1.5934380     0.3831630
  H       -3.7013020    -0.4946440    -0.6989290
  H        1.9898960    -1.5384530    -0.6513980
  H        1.7579480    -1.3107300     1.0655760
  H        3.4252360     0.5490440    -0.7422050
  H        3.1899860     0.7802560     0.9891470
  H        4.0874550    -0.6333920     0.4026520
units angstrom
no_reorient  #important for SAPT in psi4, default
symmetry c1  #important for SAPT in psi4, default
}

set PROPERTIES_ORIGIN ["COM"]
properties('MP2/aug-cc-pvtz', properties = ['dipole'])
--------------------------------------------------------------------------

    Molecular point group: c1
  Charge       = 0
  Multiplicity = 1
  Basis Set: AUG-CC-PVTZ
    Blend: AUG-CC-PVTZ
  Basis Set: (AUG-CC-PVTZ AUX)
    Blend: AUG-CC-PVTZ-JKFIT

    Orbital Energies [Eh]
    ---------------------

    Doubly Occupied:

       1A    -20.603937     2A    -20.556258     3A    -11.387771
       4A    -11.289545     5A    -11.248932     6A    -11.229254
       7A    -11.227819     8A    -11.223019     9A     -1.441578
      10A     -1.359437    11A     -1.139476    12A     -1.061937
      13A     -0.912346    14A     -0.834292    15A     -0.818659
      16A     -0.765114    17A     -0.705485    18A     -0.672923
      19A     -0.666031    20A     -0.638720    21A     -0.611048
      22A     -0.585112    23A     -0.558468    24A     -0.527927
      25A     -0.525076    26A     -0.518774    27A     -0.504490
      28A     -0.490123    29A     -0.456314    30A     -0.423303
      31A     -0.409747

  @DF-RHF Final Energy:  -382.86923723672606

   => Energetics <=

    Nuclear Repulsion Energy =            376.1520403269539088
    One-Electron Energy =               -1267.2567224683505174
    Two-Electron Energy =                 508.2354449046704872
    Total Energy =                       -382.8692372367260646
  Basis Set: (AUG-CC-PVTZ AUX)
    Blend: AUG-CC-PVTZ-RI
    Molecular point group: c1

    Geometry (in Angstrom), charge = 0, multiplicity = 1:

       Center              X                  Y                   Z               Mass
    ------------   -----------------  -----------------  -----------------  -----------------
         O           -0.405605672011    -0.703081655020    -0.133295331285    15.994914619570
         O            0.785654327989     1.300335244980    -0.296994131285    15.994914619570
         C           -1.552142672011     0.079113244980    -0.449753131285    12.000000000000
         C           -2.313738672011     0.563823244980     0.739035868715    12.000000000000
         C           -2.807640672011    -0.621828755020    -0.061472131285    12.000000000000
         C            0.770862327989     0.092149244980    -0.143204131285    12.000000000000
         C            1.969788327989    -0.781338755020     0.134314868715    12.000000000000
         C            3.262674327989     0.018933244980     0.203313868715    12.000000000000
         H           -1.516970672011     0.689049244980    -1.346312131285     1.007825032230
         H           -2.835912672011     1.511498244980     0.661989868715     1.007825032230
         H           -1.879729672011     0.356346244980     1.711037868715     1.007825032230
         H           -2.695270672011    -1.602735755020     0.386991868715     1.007825032230
         H           -3.680145672011    -0.503941755020    -0.695100131285     1.007825032230
         H            2.011052327989    -1.547750755020    -0.647569131285     1.007825032230
         H            1.779104327989    -1.320027755020     1.069404868715     1.007825032230
         H            3.446392327989     0.539746244980    -0.738376131285     1.007825032230
         H            3.211142327989     0.770958244980     0.992975868715     1.007825032230
         H            4.108611327989    -0.642689755020     0.406480868715     1.007825032230

  Basis Set: AUG-CC-PVTZ
    Blend: AUG-CC-PVTZ
  Basis Set: (AUG-CC-PVTZ AUX)
    Blend: AUG-CC-PVTZ-JKFIT
	 Reference Energy          =    -382.8692372367260646 [Eh]
	 Singles Energy            =      -0.0000000000000000 [Eh]
	 Same-Spin Energy          =      -0.3855175277479230 [Eh]
	 Opposite-Spin Energy      =      -1.2570310339212596 [Eh]
	 Correlation Energy        =      -1.6425485616691826 [Eh]
	 Total Energy              =    -384.5117857983952376 [Eh]

	 ================> DF-SCS-MP2 Energies <==================
	-----------------------------------------------------------
	 SCS Same-Spin Scale       =       0.3333333333333333 [-]
	 SCS Opposite-Spin Scale   =       1.2000000000000000 [-]
	 SCS Same-Spin Energy      =      -0.1285058425826410 [Eh]
	 SCS Opposite-Spin Energy  =      -1.5084372407055116 [Eh]
	 SCS Correlation Energy    =      -1.6369430832881526 [Eh]
	 SCS Total Energy          =    -384.5061803200142094 [Eh]
	-----------------------------------------------------------

  Dipole Moment: [D]
     X:    -0.1009      Y:    -1.3355      Z:     0.1828     Total:     1.3517

*** Psi4 exiting successfully. Buy a developer a beer!
