                               Psi4 1.3.2 release

  ==> Input File <==

--------------------------------------------------------------------------
#psi4
#
memory 32 gb

molecule  {
0 1
  O       -0.3939561    -0.6669489    -0.1984285
  O        0.7644980     1.3096330    -0.3008230
  C       -1.5732990     0.0884110    -0.4535820
  C       -2.3348950     0.5731210     0.7352070
  C       -2.8287970    -0.6125310    -0.0653010
  C        0.7497060     0.1014470    -0.1470330
  C        1.9486320    -0.7720410     0.1304860
  C        3.2415180     0.0282310     0.1994850
  H       -1.5381270     0.6983470    -1.3501410
  H       -2.8570690     1.5207960     0.6581610
  H       -1.9008860     0.3656440     1.7072090
  H       -2.7164270    -1.5934380     0.3831630
  H       -3.7013020    -0.4946440    -0.6989290
  H        1.9898960    -1.5384530    -0.6513980
  H        1.7579480    -1.3107300     1.0655760
  H        3.4252360     0.5490440    -0.7422050
  H        3.1899860     0.7802560     0.9891470
  H        4.0874550    -0.6333920     0.4026520
units angstrom
no_reorient  #important for SAPT in psi4, default
symmetry c1  #important for SAPT in psi4, default
}

set PROPERTIES_ORIGIN ["COM"]
properties('MP2/aug-cc-pvtz', properties = ['dipole'])
--------------------------------------------------------------------------

    Molecular point group: c1
  Charge       = 0
  Multiplicity = 1
  Basis Set: AUG-CC-PVTZ
    Blend: AUG-CC-PVTZ
  Basis Set: (AUG-CC-PVTZ AUX)
    Blend: AUG-CC-PVTZ-JKFIT

    Orbital Energies [Eh]
    ---------------------

    Doubly Occupied:

       1A    -20.605370     2A    -20.548251     3A    -11.382273
       4A    -11.292288     5A    -11.246874     6A    -11.232424
       7A    -11.230989     8A    -11.221411     9A     -1.451195
      10A     -1.357190    11A     -1.144144    12A     -1.060629
      13A     -0.915203    14A     -0.837304    15A     -0.824018
      16A     -0.765198    17A     -0.703878    18A     -0.675967
      19A     -0.671193    20A     -0.640611    21A     -0.609827
      22A     -0.588260    23A     -0.558635    24A     -0.524914
      25A     -0.523683    26A     -0.519884    27A     -0.502856
      28A     -0.484634    29A     -0.453449    30A     -0.427468
      31A     -0.414132

  @DF-RHF Final Energy:  -382.87586679602543

   => Energetics <=

    Nuclear Repulsion Energy =            376.8179737156499414
    One-Electron Energy =               -1268.5593814849466980
    Two-Electron Energy =                 508.8655409732713224
    Total Energy =                       -382.8758667960254343
  Basis Set: (AUG-CC-PVTZ AUX)
    Blend: AUG-CC-PVTZ-RI
    Molecular point group: c1

    Geometry (in Angstrom), charge = 0, multiplicity = 1:

       Center              X                  Y                   Z               Mass
    ------------   -----------------  -----------------  -----------------  -----------------
         O           -0.377399898282    -0.680009526592    -0.186003387287    15.994914619570
         O            0.781054201718     1.296572373408    -0.288397887287    15.994914619570
         C           -1.556742798282     0.075350373408    -0.441156887287    12.000000000000
         C           -2.318338798282     0.560060373408     0.747632112713    12.000000000000
         C           -2.812240798282    -0.625591626592    -0.052875887287    12.000000000000
         C            0.766262201718     0.088386373408    -0.134607887287    12.000000000000
         C            1.965188201718    -0.785101626592     0.142911112713    12.000000000000
         C            3.258074201718     0.015170373408     0.211910112713    12.000000000000
         H           -1.521570798282     0.685286373408    -1.337715887287     1.007825032230
         H           -2.840512798282     1.507735373408     0.670586112713     1.007825032230
         H           -1.884329798282     0.352583373408     1.719634112713     1.007825032230
         H           -2.699870798282    -1.606498626592     0.395588112713     1.007825032230
         H           -3.684745798282    -0.507704626592    -0.686503887287     1.007825032230
         H            2.006452201718    -1.551513626592    -0.638972887287     1.007825032230
         H            1.774504201718    -1.323790626592     1.078001112713     1.007825032230
         H            3.441792201718     0.535983373408    -0.729779887287     1.007825032230
         H            3.206542201718     0.767195373408     1.001572112713     1.007825032230
         H            4.104011201718    -0.646452626592     0.415077112713     1.007825032230

  Basis Set: AUG-CC-PVTZ
    Blend: AUG-CC-PVTZ
  Basis Set: (AUG-CC-PVTZ AUX)
    Blend: AUG-CC-PVTZ-JKFIT
	 Reference Energy          =    -382.8758667960254343 [Eh]
	 Singles Energy            =      -0.0000000000000000 [Eh]
	 Same-Spin Energy          =      -0.3846536045853082 [Eh]
	 Opposite-Spin Energy      =      -1.2548512158528475 [Eh]
	 Correlation Energy        =      -1.6395048204381557 [Eh]
	 Total Energy              =    -384.5153716164635966 [Eh]

	 ================> DF-SCS-MP2 Energies <==================
	-----------------------------------------------------------
	 SCS Same-Spin Scale       =       0.3333333333333333 [-]
	 SCS Opposite-Spin Scale   =       1.2000000000000000 [-]
	 SCS Same-Spin Energy      =      -0.1282178681951027 [Eh]
	 SCS Opposite-Spin Energy  =      -1.5058214590234169 [Eh]
	 SCS Correlation Energy    =      -1.6340393272185196 [Eh]
	 SCS Total Energy          =    -384.5099061232439794 [Eh]
	-----------------------------------------------------------

  Dipole Moment: [D]
     X:    -0.3762      Y:    -1.4623      Z:     0.2730     Total:     1.5344

*** Psi4 exiting successfully. Buy a developer a beer!
