                               Psi4 1.3.2 release

  ==> Input File <==

--------------------------------------------------------------------------
#psi4
#
memory 32 gb

molecule  {
0 1
  O       -0.3698416    -0.6670551    -0.3670791
  O        0.7644980     1.3096330    -0.3008230
  C       -1.5732990     0.0884110    -0.4535820
  C       -2.3348950     0.5731210     0.7352070
  C       -2.8287970    -0.6125310    -0.0653010
  C        0.7497060     0.1014470    -0.1470330
  C        1.9486320    -0.7720410     0.1304860
  C        3.2415180     0.0282310     0.1994850
  H       -1.5381270     0.6983470    -1.3501410
  H       -2.8570690     1.5207960     0.6581610
  H       -1.9008860     0.3656440     1.7072090
  H       -2.7164270    -1.5934380     0.3831630
  H       -3.7013020    -0.4946440    -0.6989290
  H        1.9898960    -1.5384530    -0.6513980
  H        1.7579480    -1.3107300     1.0655760
  H        3.4252360     0.5490440    -0.7422050
  H        3.1899860     0.7802560     0.9891470
  H        4.0874550    -0.6333920     0.4026520
units angstrom
no_reorient  #important for SAPT in psi4, default
symmetry c1  #important for SAPT in psi4, default
}

set PROPERTIES_ORIGIN ["COM"]
properties('MP2/aug-cc-pvtz', properties = ['dipole'])
--------------------------------------------------------------------------

    Molecular point group: c1
  Charge       = 0
  Multiplicity = 1
  Basis Set: AUG-CC-PVTZ
    Blend: AUG-CC-PVTZ
  Basis Set: (AUG-CC-PVTZ AUX)
    Blend: AUG-CC-PVTZ-JKFIT

    Orbital Energies [Eh]
    ---------------------

    Doubly Occupied:

       1A    -20.603906     2A    -20.546869     3A    -11.381333
       4A    -11.291919     5A    -11.247220     6A    -11.235669
       7A    -11.233070     8A    -11.221506     9A     -1.451263
      10A     -1.355111    11A     -1.145222    12A     -1.061159
      13A     -0.916912    14A     -0.839487    15A     -0.825549
      16A     -0.758315    17A     -0.703292    18A     -0.678003
      19A     -0.674189    20A     -0.642842    21A     -0.610092
      22A     -0.588830    23A     -0.556139    24A     -0.525294
      25A     -0.522970    26A     -0.517600    27A     -0.502731
      28A     -0.480943    29A     -0.452404    30A     -0.427769
      31A     -0.419471

  @DF-RHF Final Energy:  -382.87328672288726

   => Energetics <=

    Nuclear Repulsion Energy =            376.3340807258437053
    One-Electron Energy =               -1267.5805721622075453
    Two-Electron Energy =                 508.3732047134765821
    Total Energy =                       -382.8732867228872578
  Basis Set: (AUG-CC-PVTZ AUX)
    Blend: AUG-CC-PVTZ-RI
    Molecular point group: c1

    Geometry (in Angstrom), charge = 0, multiplicity = 1:

       Center              X                  Y                   Z               Mass
    ------------   -----------------  -----------------  -----------------  -----------------
         O           -0.356666794463    -0.680100834959    -0.331005373600    15.994914619570
         O            0.777672805537     1.296587265041    -0.264749273600    15.994914619570
         C           -1.560124194463     0.075365265041    -0.417508273600    12.000000000000
         C           -2.321720194463     0.560075265041     0.771280726400    12.000000000000
         C           -2.815622194463    -0.625576734959    -0.029227273600    12.000000000000
         C            0.762880805537     0.088401265041    -0.110959273600    12.000000000000
         C            1.961806805537    -0.785086734959     0.166559726400    12.000000000000
         C            3.254692805537     0.015185265041     0.235558726400    12.000000000000
         H           -1.524952194463     0.685301265041    -1.314067273600     1.007825032230
         H           -2.843894194463     1.507750265041     0.694234726400     1.007825032230
         H           -1.887711194463     0.352598265041     1.743282726400     1.007825032230
         H           -2.703252194463    -1.606483734959     0.419236726400     1.007825032230
         H           -3.688127194463    -0.507689734959    -0.662855273600     1.007825032230
         H            2.003070805537    -1.551498734959    -0.615324273600     1.007825032230
         H            1.771122805537    -1.323775734959     1.101649726400     1.007825032230
         H            3.438410805537     0.535998265041    -0.706131273600     1.007825032230
         H            3.203160805537     0.767210265041     1.025220726400     1.007825032230
         H            4.100629805537    -0.646437734959     0.438725726400     1.007825032230

  Basis Set: AUG-CC-PVTZ
    Blend: AUG-CC-PVTZ
  Basis Set: (AUG-CC-PVTZ AUX)
    Blend: AUG-CC-PVTZ-JKFIT
	 Reference Energy          =    -382.8732867228872578 [Eh]
	 Singles Energy            =      -0.0000000000000000 [Eh]
	 Same-Spin Energy          =      -0.3844065518901394 [Eh]
	 Opposite-Spin Energy      =      -1.2546933229553932 [Eh]
	 Correlation Energy        =      -1.6390998748455325 [Eh]
	 Total Energy              =    -384.5123865977328137 [Eh]

	 ================> DF-SCS-MP2 Energies <==================
	-----------------------------------------------------------
	 SCS Same-Spin Scale       =       0.3333333333333333 [-]
	 SCS Opposite-Spin Scale   =       1.2000000000000000 [-]
	 SCS Same-Spin Energy      =      -0.1281355172967131 [Eh]
	 SCS Opposite-Spin Energy  =      -1.5056319875464717 [Eh]
	 SCS Correlation Energy    =      -1.6337675048431848 [Eh]
	 SCS Total Energy          =    -384.5070542277304639 [Eh]
	-----------------------------------------------------------

  Dipole Moment: [D]
     X:    -0.4322      Y:    -1.4723      Z:     0.5032     Total:     1.6148

*** Psi4 exiting successfully. Buy a developer a beer!
