                               Psi4 1.3.2 release

  ==> Input File <==

--------------------------------------------------------------------------
#psi4
#
memory 32 gb

molecule  {
0 1
  O       -0.3301187    -0.5964201    -0.3438975
  O        0.7644980     1.3096330    -0.3008230
  C       -1.5732990     0.0884110    -0.4535820
  C       -2.3348950     0.5731210     0.7352070
  C       -2.8287970    -0.6125310    -0.0653010
  C        0.7497060     0.1014470    -0.1470330
  C        1.9486320    -0.7720410     0.1304860
  C        3.2415180     0.0282310     0.1994850
  H       -1.5381270     0.6983470    -1.3501410
  H       -2.8570690     1.5207960     0.6581610
  H       -1.9008860     0.3656440     1.7072090
  H       -2.7164270    -1.5934380     0.3831630
  H       -3.7013020    -0.4946440    -0.6989290
  H        1.9898960    -1.5384530    -0.6513980
  H        1.7579480    -1.3107300     1.0655760
  H        3.4252360     0.5490440    -0.7422050
  H        3.1899860     0.7802560     0.9891470
  H        4.0874550    -0.6333920     0.4026520
units angstrom
no_reorient  #important for SAPT in psi4, default
symmetry c1  #important for SAPT in psi4, default
}

set PROPERTIES_ORIGIN ["COM"]
properties('MP2/aug-cc-pvtz', properties = ['dipole'])
--------------------------------------------------------------------------

    Molecular point group: c1
  Charge       = 0
  Multiplicity = 1
  Basis Set: AUG-CC-PVTZ
    Blend: AUG-CC-PVTZ
  Basis Set: (AUG-CC-PVTZ AUX)
    Blend: AUG-CC-PVTZ-JKFIT

    Orbital Energies [Eh]
    ---------------------

    Doubly Occupied:

       1A    -20.605395     2A    -20.530831     3A    -11.370602
       4A    -11.297990     5A    -11.243707     6A    -11.239017
       7A    -11.237745     8A    -11.218611     9A     -1.475939
      10A     -1.348116    11A     -1.152615    12A     -1.058750
      13A     -0.924374    14A     -0.844716    15A     -0.834361
      16A     -0.762560    17A     -0.702128    18A     -0.684690
      19A     -0.679064    20A     -0.645269    21A     -0.606094
      22A     -0.594442    23A     -0.558068    24A     -0.528066
      25A     -0.520932    26A     -0.511045    27A     -0.500181
      28A     -0.472465    29A     -0.445927    30A     -0.433552
      31A     -0.422653

  @DF-RHF Final Energy:  -382.87557133854386

   => Energetics <=

    Nuclear Repulsion Energy =            378.1785503923098304
    One-Electron Energy =               -1271.2084319847440383
    Two-Electron Energy =                 510.1543102538903440
    Total Energy =                       -382.8755713385438639
  Basis Set: (AUG-CC-PVTZ AUX)
    Blend: AUG-CC-PVTZ-RI
    Molecular point group: c1

    Geometry (in Angstrom), charge = 0, multiplicity = 1:

       Center              X                  Y                   Z               Mass
    ------------   -----------------  -----------------  -----------------  -----------------
         O           -0.322513939969    -0.619370453311    -0.311074356184    15.994914619570
         O            0.772102760031     1.286682646689    -0.267999856184    15.994914619570
         C           -1.565694239969     0.065460646689    -0.420758856184    12.000000000000
         C           -2.327290239969     0.550170646689     0.768030143816    12.000000000000
         C           -2.821192239969    -0.635481353311    -0.032477856184    12.000000000000
         C            0.757310760031     0.078496646689    -0.114209856184    12.000000000000
         C            1.956236760031    -0.794991353311     0.163309143816    12.000000000000
         C            3.249122760031     0.005280646689     0.232308143816    12.000000000000
         H           -1.530522239969     0.675396646689    -1.317317856184     1.007825032230
         H           -2.849464239969     1.497845646689     0.690984143816     1.007825032230
         H           -1.893281239969     0.342693646689     1.740032143816     1.007825032230
         H           -2.708822239969    -1.616388353311     0.415986143816     1.007825032230
         H           -3.693697239969    -0.517594353311    -0.666105856184     1.007825032230
         H            1.997500760031    -1.561403353311    -0.618574856184     1.007825032230
         H            1.765552760031    -1.333680353311     1.098399143816     1.007825032230
         H            3.432840760031     0.526093646689    -0.709381856184     1.007825032230
         H            3.197590760031     0.757305646689     1.021970143816     1.007825032230
         H            4.095059760031    -0.656342353311     0.435475143816     1.007825032230

  Basis Set: AUG-CC-PVTZ
    Blend: AUG-CC-PVTZ
  Basis Set: (AUG-CC-PVTZ AUX)
    Blend: AUG-CC-PVTZ-JKFIT
	 Reference Energy          =    -382.8755713385438639 [Eh]
	 Singles Energy            =      -0.0000000000000000 [Eh]
	 Same-Spin Energy          =      -0.3832571976277366 [Eh]
	 Opposite-Spin Energy      =      -1.2513401140023488 [Eh]
	 Correlation Energy        =      -1.6345973116300854 [Eh]
	 Total Energy              =    -384.5101686501739664 [Eh]

	 ================> DF-SCS-MP2 Energies <==================
	-----------------------------------------------------------
	 SCS Same-Spin Scale       =       0.3333333333333333 [-]
	 SCS Opposite-Spin Scale   =       1.2000000000000000 [-]
	 SCS Same-Spin Energy      =      -0.1277523992092455 [Eh]
	 SCS Opposite-Spin Energy  =      -1.5016081368028185 [Eh]
	 SCS Correlation Energy    =      -1.6293605360120640 [Eh]
	 SCS Total Energy          =    -384.5049318745559503 [Eh]
	-----------------------------------------------------------

  Dipole Moment: [D]
     X:    -0.8869      Y:    -1.7450      Z:     0.4731     Total:     2.0138

*** Psi4 exiting successfully. Buy a developer a beer!
