                               Psi4 1.3.2 release

  ==> Input File <==

--------------------------------------------------------------------------
#psi4
#
memory 32 gb

molecule  {
0 1
  O       -0.3837350    -0.6575400    -0.2190270
  O        0.7644980     1.3096330    -0.3008230
  C       -1.6233811     0.0026210    -0.4513771
  C       -2.3348950     0.5731210     0.7352070
  C       -2.8287970    -0.6125310    -0.0653010
  C        0.7497060     0.1014470    -0.1470330
  C        1.9486320    -0.7720410     0.1304860
  C        3.2415180     0.0282310     0.1994850
  H       -1.5381270     0.6983470    -1.3501410
  H       -2.8570690     1.5207960     0.6581610
  H       -1.9008860     0.3656440     1.7072090
  H       -2.7164270    -1.5934380     0.3831630
  H       -3.7013020    -0.4946440    -0.6989290
  H        1.9898960    -1.5384530    -0.6513980
  H        1.7579480    -1.3107300     1.0655760
  H        3.4252360     0.5490440    -0.7422050
  H        3.1899860     0.7802560     0.9891470
  H        4.0874550    -0.6333920     0.4026520
units angstrom
no_reorient  #important for SAPT in psi4, default
symmetry c1  #important for SAPT in psi4, default
}

set PROPERTIES_ORIGIN ["COM"]
properties('MP2/aug-cc-pvtz', properties = ['dipole'])
--------------------------------------------------------------------------

    Molecular point group: c1
  Charge       = 0
  Multiplicity = 1
  Basis Set: AUG-CC-PVTZ
    Blend: AUG-CC-PVTZ
  Basis Set: (AUG-CC-PVTZ AUX)
    Blend: AUG-CC-PVTZ-JKFIT

    Orbital Energies [Eh]
    ---------------------

    Doubly Occupied:

       1A    -20.602927     2A    -20.544843     3A    -11.381373
       4A    -11.295890     5A    -11.246529     6A    -11.234294
       7A    -11.227939     8A    -11.220900     9A     -1.451727
      10A     -1.355440    11A     -1.162710    12A     -1.060640
      13A     -0.917295    14A     -0.843967    15A     -0.823216
      16A     -0.759438    17A     -0.703707    18A     -0.678052
      19A     -0.674651    20A     -0.643441    21A     -0.606591
      22A     -0.589458    23A     -0.553182    24A     -0.525401
      25A     -0.522410    26A     -0.516831    27A     -0.500896
      28A     -0.480901    29A     -0.463512    30A     -0.440856
      31A     -0.401452

  @DF-RHF Final Energy:  -382.86876987973460

   => Energetics <=

    Nuclear Repulsion Energy =            377.1195225077248097
    One-Electron Energy =               -1269.1156503568656717
    Two-Electron Energy =                 509.1273579694062619
    Total Energy =                       -382.8687698797346002
  Basis Set: (AUG-CC-PVTZ AUX)
    Blend: AUG-CC-PVTZ-RI
    Molecular point group: c1

    Geometry (in Angstrom), charge = 0, multiplicity = 1:

       Center              X                  Y                   Z               Mass
    ------------   -----------------  -----------------  -----------------  -----------------
         O           -0.363343373158    -0.662894829745    -0.203945469734    15.994914619570
         O            0.784889626842     1.304278170255    -0.285741469734    15.994914619570
         C           -1.602989473158    -0.002733829745    -0.436295569734    12.000000000000
         C           -2.314503373158     0.567766170255     0.750288530266    12.000000000000
         C           -2.808405373158    -0.617885829745    -0.050219469734    12.000000000000
         C            0.770097626842     0.096092170255    -0.131951469734    12.000000000000
         C            1.969023626842    -0.777395829745     0.145567530266    12.000000000000
         C            3.261909626842     0.022876170255     0.214566530266    12.000000000000
         H           -1.517735373158     0.692992170255    -1.335059469734     1.007825032230
         H           -2.836677373158     1.515441170255     0.673242530266     1.007825032230
         H           -1.880494373158     0.360289170255     1.722290530266     1.007825032230
         H           -2.696035373158    -1.598792829745     0.398244530266     1.007825032230
         H           -3.680910373158    -0.499998829745    -0.683847469734     1.007825032230
         H            2.010287626842    -1.543807829745    -0.636316469734     1.007825032230
         H            1.778339626842    -1.316084829745     1.080657530266     1.007825032230
         H            3.445627626842     0.543689170255    -0.727123469734     1.007825032230
         H            3.210377626842     0.774901170255     1.004228530266     1.007825032230
         H            4.107846626842    -0.638746829745     0.417733530266     1.007825032230

  Basis Set: AUG-CC-PVTZ
    Blend: AUG-CC-PVTZ
  Basis Set: (AUG-CC-PVTZ AUX)
    Blend: AUG-CC-PVTZ-JKFIT
	 Reference Energy          =    -382.8687698797346002 [Eh]
	 Singles Energy            =      -0.0000000000000000 [Eh]
	 Same-Spin Energy          =      -0.3847426777455613 [Eh]
	 Opposite-Spin Energy      =      -1.2540215321553412 [Eh]
	 Correlation Energy        =      -1.6387642099009025 [Eh]
	 Total Energy              =    -384.5075340896354987 [Eh]

	 ================> DF-SCS-MP2 Energies <==================
	-----------------------------------------------------------
	 SCS Same-Spin Scale       =       0.3333333333333333 [-]
	 SCS Opposite-Spin Scale   =       1.2000000000000000 [-]
	 SCS Same-Spin Energy      =      -0.1282475592485204 [Eh]
	 SCS Opposite-Spin Energy  =      -1.5048258385864093 [Eh]
	 SCS Correlation Energy    =      -1.6330733978349297 [Eh]
	 SCS Total Energy          =    -384.5018432775695487 [Eh]
	-----------------------------------------------------------

  Dipole Moment: [D]
     X:    -0.5441      Y:    -1.6230      Z:     0.2714     Total:     1.7332

*** Psi4 exiting successfully. Buy a developer a beer!
