                               Psi4 1.4a3.dev225

  ==> Input File <==

--------------------------------------------------------------------------
#psi4
#
memory 32 gb

molecule  {
0 1
  O       -0.3837350    -0.6575400    -0.2190270
  O        0.7644980     1.3096330    -0.3008230
  C       -1.5900115     0.0988911    -0.4568773
  C       -2.3348950     0.5731210     0.7352070
  C       -2.8287970    -0.6125310    -0.0653010
  C        0.7497060     0.1014470    -0.1470330
  C        1.9486320    -0.7720410     0.1304860
  C        3.2415180     0.0282310     0.1994850
  H       -1.5381270     0.6983470    -1.3501410
  H       -2.8570690     1.5207960     0.6581610
  H       -1.9008860     0.3656440     1.7072090
  H       -2.7164270    -1.5934380     0.3831630
  H       -3.7013020    -0.4946440    -0.6989290
  H        1.9898960    -1.5384530    -0.6513980
  H        1.7579480    -1.3107300     1.0655760
  H        3.4252360     0.5490440    -0.7422050
  H        3.1899860     0.7802560     0.9891470
  H        4.0874550    -0.6333920     0.4026520
units angstrom
no_reorient  #important for SAPT in psi4, default
symmetry c1  #important for SAPT in psi4, default
}

set PROPERTIES_ORIGIN ["COM"]
properties('MP2/aug-cc-pvtz', properties = ['dipole'])
--------------------------------------------------------------------------

    Molecular point group: c1
  Charge       = 0
  Multiplicity = 1
  Basis Set: AUG-CC-PVTZ
    Blend: AUG-CC-PVTZ
  Basis Set: (AUG-CC-PVTZ AUX)
    Blend: AUG-CC-PVTZ-JKFIT

    Orbital Energies [Eh]
    ---------------------

    Doubly Occupied:

       1A    -20.603538     2A    -20.544265     3A    -11.379128
       4A    -11.293518     5A    -11.245433     6A    -11.233923
       7A    -11.232597     8A    -11.220327     9A     -1.449865
      10A     -1.352979    11A     -1.149691    12A     -1.059312
      13A     -0.913792    14A     -0.839194    15A     -0.825418
      16A     -0.764496    17A     -0.702429    18A     -0.675338
      19A     -0.671884    20A     -0.641459    21A     -0.609939
      22A     -0.587255    23A     -0.558393    24A     -0.525122
      25A     -0.522326    26A     -0.517844    27A     -0.501459
      28A     -0.481471    29A     -0.452013    30A     -0.429930
      31A     -0.419353

  @DF-RHF Final Energy:  -382.87659635478030

   => Energetics <=

    Nuclear Repulsion Energy =            376.8249053326812827
    One-Electron Energy =               -1268.5956202049317199
    Two-Electron Energy =                 508.8941185174701332
    Total Energy =                       -382.8765963547803040
  Basis Set: (AUG-CC-PVTZ AUX)
    Blend: AUG-CC-PVTZ-RI
    Molecular point group: c1

    Geometry (in Angstrom), charge = 0, multiplicity = 1:

       Center              X                  Y                   Z               Mass
    ------------   -----------------  -----------------  -----------------  -----------------
         O           -0.366853866204    -0.673022476361    -0.203366846860    15.994914619570
         O            0.781379133796     1.294150523639    -0.285162846860    15.994914619570
         C           -1.573130366204     0.083408623639    -0.441217146860    12.000000000000
         C           -2.318013866204     0.557638523639     0.750867153140    12.000000000000
         C           -2.811915866204    -0.628013476361    -0.049640846860    12.000000000000
         C            0.766587133796     0.085964523639    -0.131372846860    12.000000000000
         C            1.965513133796    -0.787523476361     0.146146153140    12.000000000000
         C            3.258399133796     0.012748523639     0.215145153140    12.000000000000
         H           -1.521245866204     0.682864523639    -1.334480846860     1.007825032230
         H           -2.840187866204     1.505313523639     0.673821153140     1.007825032230
         H           -1.884004866204     0.350161523639     1.722869153140     1.007825032230
         H           -2.699545866204    -1.608920476361     0.398823153140     1.007825032230
         H           -3.684420866204    -0.510126476361    -0.683268846860     1.007825032230
         H            2.006777133796    -1.553935476361    -0.635737846860     1.007825032230
         H            1.774829133796    -1.326212476361     1.081236153140     1.007825032230
         H            3.442117133796     0.533561523639    -0.726544846860     1.007825032230
         H            3.206867133796     0.764773523639     1.004807153140     1.007825032230
         H            4.104336133796    -0.648874476361     0.418312153140     1.007825032230

  Basis Set: AUG-CC-PVTZ
    Blend: AUG-CC-PVTZ
  Basis Set: (AUG-CC-PVTZ AUX)
    Blend: AUG-CC-PVTZ-JKFIT
	 Reference Energy          =    -382.8765963547803040 [Eh]
	 Singles Energy            =      -0.0000000000000000 [Eh]
	 Same-Spin Energy          =      -0.3844273904570741 [Eh]
	 Opposite-Spin Energy      =      -1.2543449396501807 [Eh]
	 Correlation Energy        =      -1.6387723301072548 [Eh]
	 Total Energy              =    -384.5153686848875623 [Eh]

	 ================> DF-SCS-MP2 Energies <==================
	-----------------------------------------------------------
	 SCS Same-Spin Scale       =       0.3333333333333333 [-]
	 SCS Opposite-Spin Scale   =       1.2000000000000000 [-]
	 SCS Same-Spin Energy      =      -0.1281424634856914 [Eh]
	 SCS Opposite-Spin Energy  =      -1.5052139275802168 [Eh]
	 SCS Correlation Energy    =      -1.6333563910659081 [Eh]
	 SCS Total Energy          =    -384.5099527458461921 [Eh]
	-----------------------------------------------------------

  Dipole Moment: [D]
     X:    -0.5474      Y:    -1.4887      Z:     0.3019     Total:     1.6146

*** Psi4 exiting successfully. Buy a developer a beer!
