                               Psi4 1.3.2 release

  ==> Input File <==

--------------------------------------------------------------------------
#psi4
#
memory 32 gb

molecule  {
0 1
  O       -0.3912740    -0.6525444    -0.1701679
  O        0.7644980     1.3096330    -0.3008230
  C       -1.5732990     0.0884110    -0.4535820
  C       -2.3348950     0.5731210     0.7352070
  C       -2.8287970    -0.6125310    -0.0653010
  C        0.7497060     0.1014470    -0.1470330
  C        1.9486320    -0.7720410     0.1304860
  C        3.2415180     0.0282310     0.1994850
  H       -1.5381270     0.6983470    -1.3501410
  H       -2.8570690     1.5207960     0.6581610
  H       -1.9008860     0.3656440     1.7072090
  H       -2.7164270    -1.5934380     0.3831630
  H       -3.7013020    -0.4946440    -0.6989290
  H        1.9898960    -1.5384530    -0.6513980
  H        1.7579480    -1.3107300     1.0655760
  H        3.4252360     0.5490440    -0.7422050
  H        3.1899860     0.7802560     0.9891470
  H        4.0874550    -0.6333920     0.4026520
units angstrom
no_reorient  #important for SAPT in psi4, default
symmetry c1  #important for SAPT in psi4, default
}

set PROPERTIES_ORIGIN ["COM"]
properties('MP2/aug-cc-pvtz', properties = ['dipole'])
--------------------------------------------------------------------------

    Molecular point group: c1
  Charge       = 0
  Multiplicity = 1
  Basis Set: AUG-CC-PVTZ
    Blend: AUG-CC-PVTZ
  Basis Set: (AUG-CC-PVTZ AUX)
    Blend: AUG-CC-PVTZ-JKFIT

    Orbital Energies [Eh]
    ---------------------

    Doubly Occupied:

       1A    -20.605593     2A    -20.546060     3A    -11.380840
       4A    -11.293140     5A    -11.246423     6A    -11.233161
       7A    -11.230603     8A    -11.221039     9A     -1.454394
      10A     -1.356494    11A     -1.145102    12A     -1.060239
      13A     -0.915690    14A     -0.837556    15A     -0.825345
      16A     -0.766954    17A     -0.703474    18A     -0.676471
      19A     -0.671687    20A     -0.640377    21A     -0.609151
      22A     -0.589223    23A     -0.559497    24A     -0.524876
      25A     -0.523521    26A     -0.519508    27A     -0.502598
      28A     -0.483897    29A     -0.452623    30A     -0.428439
      31A     -0.413414

  @DF-RHF Final Energy:  -382.87660016856847

   => Energetics <=

    Nuclear Repulsion Energy =            377.1657456088144045
    One-Electron Energy =               -1269.2499150375469981
    Two-Electron Energy =                 509.2075692601641208
    Total Energy =                       -382.8766001685684728
  Basis Set: (AUG-CC-PVTZ AUX)
    Blend: AUG-CC-PVTZ-RI
    Molecular point group: c1

    Geometry (in Angstrom), charge = 0, multiplicity = 1:

       Center              X                  Y                   Z               Mass
    ------------   -----------------  -----------------  -----------------  -----------------
         O           -0.375093889128    -0.667624862014    -0.161705560096    15.994914619570
         O            0.780678110872     1.294552537986    -0.292360660096    15.994914619570
         C           -1.557118889128     0.073330537986    -0.445119660096    12.000000000000
         C           -2.318714889128     0.558040537986     0.743669339904    12.000000000000
         C           -2.812616889128    -0.627611462014    -0.056838660096    12.000000000000
         C            0.765886110872     0.086366537986    -0.138570660096    12.000000000000
         C            1.964812110872    -0.787121462014     0.138948339904    12.000000000000
         C            3.257698110872     0.013150537986     0.207947339904    12.000000000000
         H           -1.521946889128     0.683266537986    -1.341678660096     1.007825032230
         H           -2.840888889128     1.505715537986     0.666623339904     1.007825032230
         H           -1.884705889128     0.350563537986     1.715671339904     1.007825032230
         H           -2.700246889128    -1.608518462014     0.391625339904     1.007825032230
         H           -3.685121889128    -0.509724462014    -0.690466660096     1.007825032230
         H            2.006076110872    -1.553533462014    -0.642935660096     1.007825032230
         H            1.774128110872    -1.325810462014     1.074038339904     1.007825032230
         H            3.441416110872     0.533963537986    -0.733742660096     1.007825032230
         H            3.206166110872     0.765175537986     0.997609339904     1.007825032230
         H            4.103635110872    -0.648472462014     0.411114339904     1.007825032230

  Basis Set: AUG-CC-PVTZ
    Blend: AUG-CC-PVTZ
  Basis Set: (AUG-CC-PVTZ AUX)
    Blend: AUG-CC-PVTZ-JKFIT
	 Reference Energy          =    -382.8766001685684728 [Eh]
	 Singles Energy            =      -0.0000000000000000 [Eh]
	 Same-Spin Energy          =      -0.3845051077899836 [Eh]
	 Opposite-Spin Energy      =      -1.2543671980316686 [Eh]
	 Correlation Energy        =      -1.6388723058216521 [Eh]
	 Total Energy              =    -384.5154724743901511 [Eh]

	 ================> DF-SCS-MP2 Energies <==================
	-----------------------------------------------------------
	 SCS Same-Spin Scale       =       0.3333333333333333 [-]
	 SCS Opposite-Spin Scale   =       1.2000000000000000 [-]
	 SCS Same-Spin Energy      =      -0.1281683692633279 [Eh]
	 SCS Opposite-Spin Energy  =      -1.5052406376380023 [Eh]
	 SCS Correlation Energy    =      -1.6334090069013301 [Eh]
	 SCS Total Energy          =    -384.5100091754698042 [Eh]
	-----------------------------------------------------------

  Dipole Moment: [D]
     X:    -0.4313      Y:    -1.5055      Z:     0.2378     Total:     1.5840

*** Psi4 exiting successfully. Buy a developer a beer!
