                               Psi4 1.3.2 release

  ==> Input File <==

--------------------------------------------------------------------------
#psi4
#
memory 32 gb

molecule  {
0 1
  O       -0.3837350    -0.6575400    -0.2190270
  O        0.7644980     1.3096330    -0.3008230
  C       -1.5598628     0.1093066    -0.4539550
  C       -2.3348950     0.5731210     0.7352070
  C       -2.8287970    -0.6125310    -0.0653010
  C        0.7497060     0.1014470    -0.1470330
  C        1.9486320    -0.7720410     0.1304860
  C        3.2415180     0.0282310     0.1994850
  H       -1.5381270     0.6983470    -1.3501410
  H       -2.8570690     1.5207960     0.6581610
  H       -1.9008860     0.3656440     1.7072090
  H       -2.7164270    -1.5934380     0.3831630
  H       -3.7013020    -0.4946440    -0.6989290
  H        1.9898960    -1.5384530    -0.6513980
  H        1.7579480    -1.3107300     1.0655760
  H        3.4252360     0.5490440    -0.7422050
  H        3.1899860     0.7802560     0.9891470
  H        4.0874550    -0.6333920     0.4026520
units angstrom
no_reorient  #important for SAPT in psi4, default
symmetry c1  #important for SAPT in psi4, default
}

set PROPERTIES_ORIGIN ["COM"]
properties('MP2/aug-cc-pvtz', properties = ['dipole'])
--------------------------------------------------------------------------

    Molecular point group: c1
  Charge       = 0
  Multiplicity = 1
  Basis Set: AUG-CC-PVTZ
    Blend: AUG-CC-PVTZ
  Basis Set: (AUG-CC-PVTZ AUX)
    Blend: AUG-CC-PVTZ-JKFIT

    Orbital Energies [Eh]
    ---------------------

    Doubly Occupied:

       1A    -20.606494     2A    -20.545908     3A    -11.380382
       4A    -11.292953     5A    -11.246267     6A    -11.233528
       7A    -11.232863     8A    -11.220966     9A     -1.455576
      10A     -1.356429    11A     -1.141462    12A     -1.060192
      13A     -0.916185    14A     -0.837086    15A     -0.826680
      16A     -0.766380    17A     -0.703388    18A     -0.677925
      19A     -0.671531    20A     -0.640590    21A     -0.609945
      22A     -0.589278    23A     -0.560289    24A     -0.524891
      25A     -0.523463    26A     -0.519699    27A     -0.502703
      28A     -0.483284    29A     -0.451452    30A     -0.426630
      31A     -0.415234

  @DF-RHF Final Energy:  -382.87640222799820

   => Energetics <=

    Nuclear Repulsion Energy =            377.0101395817426919
    One-Electron Energy =               -1268.9337752428282329
    Two-Electron Energy =                 509.0472334330873423
    Total Energy =                       -382.8764022279981987
  Basis Set: (AUG-CC-PVTZ AUX)
    Blend: AUG-CC-PVTZ-RI
    Molecular point group: c1

    Geometry (in Angstrom), charge = 0, multiplicity = 1:

       Center              X                  Y                   Z               Mass
    ------------   -----------------  -----------------  -----------------  -----------------
         O           -0.370025519495    -0.674118190434    -0.203674273795    15.994914619570
         O            0.778207480505     1.293054809566    -0.285470273795    15.994914619570
         C           -1.546153319495     0.092728409566    -0.438602273795    12.000000000000
         C           -2.321185519495     0.556542809566     0.750559726205    12.000000000000
         C           -2.815087519495    -0.629109190434    -0.049948273795    12.000000000000
         C            0.763415480505     0.084868809566    -0.131680273795    12.000000000000
         C            1.962341480505    -0.788619190434     0.145838726205    12.000000000000
         C            3.255227480505     0.011652809566     0.214837726205    12.000000000000
         H           -1.524417519495     0.681768809566    -1.334788273795     1.007825032230
         H           -2.843359519495     1.504217809566     0.673513726205     1.007825032230
         H           -1.887176519495     0.349065809566     1.722561726205     1.007825032230
         H           -2.702717519495    -1.610016190434     0.398515726205     1.007825032230
         H           -3.687592519495    -0.511222190434    -0.683576273795     1.007825032230
         H            2.003605480505    -1.555031190434    -0.636045273795     1.007825032230
         H            1.771657480505    -1.327308190434     1.080928726205     1.007825032230
         H            3.438945480505     0.532465809566    -0.726852273795     1.007825032230
         H            3.203695480505     0.763677809566     1.004499726205     1.007825032230
         H            4.101164480505    -0.649970190434     0.418004726205     1.007825032230

  Basis Set: AUG-CC-PVTZ
    Blend: AUG-CC-PVTZ
  Basis Set: (AUG-CC-PVTZ AUX)
    Blend: AUG-CC-PVTZ-JKFIT
	 Reference Energy          =    -382.8764022279981987 [Eh]
	 Singles Energy            =      -0.0000000000000000 [Eh]
	 Same-Spin Energy          =      -0.3844275818665810 [Eh]
	 Opposite-Spin Energy      =      -1.2544976333526130 [Eh]
	 Correlation Energy        =      -1.6389252152191940 [Eh]
	 Total Energy              =    -384.5153274432174157 [Eh]

	 ================> DF-SCS-MP2 Energies <==================
	-----------------------------------------------------------
	 SCS Same-Spin Scale       =       0.3333333333333333 [-]
	 SCS Opposite-Spin Scale   =       1.2000000000000000 [-]
	 SCS Same-Spin Energy      =      -0.1281425272888603 [Eh]
	 SCS Opposite-Spin Energy  =      -1.5053971600231355 [Eh]
	 SCS Correlation Energy    =      -1.6335396873119958 [Eh]
	 SCS Total Energy          =    -384.5099419153102076 [Eh]
	-----------------------------------------------------------

  Dipole Moment: [D]
     X:    -0.4352      Y:    -1.4779      Z:     0.3103     Total:     1.5716

*** Psi4 exiting successfully. Buy a developer a beer!
