                               Psi4 1.3.2 release

  ==> Input File <==

--------------------------------------------------------------------------
#psi4
#
memory 32 gb

molecule  {
0 1
  O       -0.3837350    -0.6575400    -0.2190270
  O        0.7644980     1.3096330    -0.3008230
  C       -1.7404243     0.1932118    -0.4865353
  C       -2.3348950     0.5731210     0.7352070
  C       -2.8287970    -0.6125310    -0.0653010
  C        0.7497060     0.1014470    -0.1470330
  C        1.9486320    -0.7720410     0.1304860
  C        3.2415180     0.0282310     0.1994850
  H       -1.5381270     0.6983470    -1.3501410
  H       -2.8570690     1.5207960     0.6581610
  H       -1.9008860     0.3656440     1.7072090
  H       -2.7164270    -1.5934380     0.3831630
  H       -3.7013020    -0.4946440    -0.6989290
  H        1.9898960    -1.5384530    -0.6513980
  H        1.7579480    -1.3107300     1.0655760
  H        3.4252360     0.5490440    -0.7422050
  H        3.1899860     0.7802560     0.9891470
  H        4.0874550    -0.6333920     0.4026520
units angstrom
no_reorient  #important for SAPT in psi4, default
symmetry c1  #important for SAPT in psi4, default
}

set PROPERTIES_ORIGIN ["COM"]
properties('MP2/aug-cc-pvtz', properties = ['dipole'])
--------------------------------------------------------------------------

    Molecular point group: c1
  Charge       = 0
  Multiplicity = 1
  Basis Set: AUG-CC-PVTZ
    Blend: AUG-CC-PVTZ
  Basis Set: (AUG-CC-PVTZ AUX)
    Blend: AUG-CC-PVTZ-JKFIT

    Orbital Energies [Eh]
    ---------------------

    Doubly Occupied:

       1A    -20.579758     2A    -20.531688     3A    -11.365763
       4A    -11.302426     5A    -11.240357     6A    -11.239535
       7A    -11.236924     8A    -11.214277     9A     -1.417175
      10A     -1.324204    11A     -1.187310    12A     -1.050089
      13A     -0.895809    14A     -0.853627    15A     -0.830371
      16A     -0.752232    17A     -0.701176    18A     -0.675001
      19A     -0.661213    20A     -0.637851    21A     -0.613060
      22A     -0.570463    23A     -0.548645    24A     -0.539592
      25A     -0.515090    26A     -0.498092    27A     -0.488780
      28A     -0.475030    29A     -0.454916    30A     -0.437939
      31A     -0.425166

  @DF-RHF Final Energy:  -382.84275057616310

   => Energetics <=

    Nuclear Repulsion Energy =            375.1283941302394283
    One-Electron Energy =               -1265.4151666197769828
    Two-Electron Energy =                 507.4440219133743994
    Total Energy =                       -382.8427505761630982
  Basis Set: (AUG-CC-PVTZ AUX)
    Blend: AUG-CC-PVTZ-RI
    Molecular point group: c1

    Geometry (in Angstrom), charge = 0, multiplicity = 1:

       Center              X                  Y                   Z               Mass
    ------------   -----------------  -----------------  -----------------  -----------------
         O           -0.351030389496    -0.682945045448    -0.200246815372    15.994914619570
         O            0.797202610504     1.284227954552    -0.282042815372    15.994914619570
         C           -1.707719689496     0.167806754552    -0.467755115372    12.000000000000
         C           -2.302190389496     0.547715954552     0.753987184628    12.000000000000
         C           -2.796092389496    -0.637936045448    -0.046520815372    12.000000000000
         C            0.782410610504     0.076041954552    -0.128252815372    12.000000000000
         C            1.981336610504    -0.797446045448     0.149266184628    12.000000000000
         C            3.274222610504     0.002825954552     0.218265184628    12.000000000000
         H           -1.505422389496     0.672941954552    -1.331360815372     1.007825032230
         H           -2.824364389496     1.495390954552     0.676941184628     1.007825032230
         H           -1.868181389496     0.340238954552     1.725989184628     1.007825032230
         H           -2.683722389496    -1.618843045448     0.401943184628     1.007825032230
         H           -3.668597389496    -0.520049045448    -0.680148815372     1.007825032230
         H            2.022600610504    -1.563858045448    -0.632617815372     1.007825032230
         H            1.790652610504    -1.336135045448     1.084356184628     1.007825032230
         H            3.457940610504     0.523638954552    -0.723424815372     1.007825032230
         H            3.222690610504     0.754850954552     1.007927184628     1.007825032230
         H            4.120159610504    -0.658797045448     0.421432184628     1.007825032230

  Basis Set: AUG-CC-PVTZ
    Blend: AUG-CC-PVTZ
  Basis Set: (AUG-CC-PVTZ AUX)
    Blend: AUG-CC-PVTZ-JKFIT
	 Reference Energy          =    -382.8427505761630982 [Eh]
	 Singles Energy            =      -0.0000000000000000 [Eh]
	 Same-Spin Energy          =      -0.3858253351342609 [Eh]
	 Opposite-Spin Energy      =      -1.2571777760754421 [Eh]
	 Correlation Energy        =      -1.6430031112097030 [Eh]
	 Total Energy              =    -384.4857536873727781 [Eh]

	 ================> DF-SCS-MP2 Energies <==================
	-----------------------------------------------------------
	 SCS Same-Spin Scale       =       0.3333333333333333 [-]
	 SCS Opposite-Spin Scale   =       1.2000000000000000 [-]
	 SCS Same-Spin Energy      =      -0.1286084450447536 [Eh]
	 SCS Opposite-Spin Energy  =      -1.5086133312905305 [Eh]
	 SCS Correlation Energy    =      -1.6372217763352841 [Eh]
	 SCS Total Energy          =    -384.4799723524984074 [Eh]
	-----------------------------------------------------------

  Dipole Moment: [D]
     X:    -1.3298      Y:    -1.3583      Z:     0.3183     Total:     1.9274

*** Psi4 exiting successfully. Buy a developer a beer!
