                               Psi4 1.3.2 release

  ==> Input File <==

--------------------------------------------------------------------------
#psi4
#
memory 32 gb

molecule  {
0 1
  O       -0.3738762    -0.6479039    -0.2396970
  O        0.7644980     1.3096330    -0.3008230
  C       -1.5732990     0.0884110    -0.4535820
  C       -2.3348950     0.5731210     0.7352070
  C       -2.8287970    -0.6125310    -0.0653010
  C        0.7497060     0.1014470    -0.1470330
  C        1.9486320    -0.7720410     0.1304860
  C        3.2415180     0.0282310     0.1994850
  H       -1.5381270     0.6983470    -1.3501410
  H       -2.8570690     1.5207960     0.6581610
  H       -1.9008860     0.3656440     1.7072090
  H       -2.7164270    -1.5934380     0.3831630
  H       -3.7013020    -0.4946440    -0.6989290
  H        1.9898960    -1.5384530    -0.6513980
  H        1.7579480    -1.3107300     1.0655760
  H        3.4252360     0.5490440    -0.7422050
  H        3.1899860     0.7802560     0.9891470
  H        4.0874550    -0.6333920     0.4026520
units angstrom
no_reorient  #important for SAPT in psi4, default
symmetry c1  #important for SAPT in psi4, default
}

set PROPERTIES_ORIGIN ["COM"]
properties('MP2/aug-cc-pvtz', properties = ['dipole'])
--------------------------------------------------------------------------

    Molecular point group: c1
  Charge       = 0
  Multiplicity = 1
  Basis Set: AUG-CC-PVTZ
    Blend: AUG-CC-PVTZ
  Basis Set: (AUG-CC-PVTZ AUX)
    Blend: AUG-CC-PVTZ-JKFIT

    Orbital Energies [Eh]
    ---------------------

    Doubly Occupied:

       1A    -20.605874     2A    -20.543023     3A    -11.378717
       4A    -11.294045     5A    -11.245728     6A    -11.234445
       7A    -11.233033     8A    -11.220465     9A     -1.458248
      10A     -1.354985    11A     -1.146931    12A     -1.059923
      13A     -0.917560    14A     -0.839380    15A     -0.827390
      16A     -0.764869    17A     -0.702912    18A     -0.678349
      19A     -0.674192    20A     -0.641897    21A     -0.608874
      22A     -0.590206    23A     -0.558631    24A     -0.524974
      25A     -0.522760    26A     -0.518408    27A     -0.501930
      28A     -0.480917    29A     -0.451326    30A     -0.429825
      31A     -0.416843

  @DF-RHF Final Energy:  -382.87802298936822

   => Energetics <=

    Nuclear Repulsion Energy =            377.2407374537446003
    One-Electron Energy =               -1269.3842090022030789
    Two-Electron Energy =                 509.2654485590902596
    Total Energy =                       -382.8780229893682190
  Basis Set: (AUG-CC-PVTZ AUX)
    Blend: AUG-CC-PVTZ-RI
    Molecular point group: c1

    Geometry (in Angstrom), charge = 0, multiplicity = 1:

       Center              X                  Y                   Z               Mass
    ------------   -----------------  -----------------  -----------------  -----------------
         O           -0.360135652647    -0.663635064661    -0.221485113840    15.994914619570
         O            0.778238547353     1.293901835339    -0.282611113840    15.994914619570
         C           -1.559558452647     0.072679835339    -0.435370113840    12.000000000000
         C           -2.321154452647     0.557389835339     0.753418886160    12.000000000000
         C           -2.815056452647    -0.628262164661    -0.047089113840    12.000000000000
         C            0.763446547353     0.085715835339    -0.128821113840    12.000000000000
         C            1.962372547353    -0.787772164661     0.148697886160    12.000000000000
         C            3.255258547353     0.012499835339     0.217696886160    12.000000000000
         H           -1.524386452647     0.682615835339    -1.331929113840     1.007825032230
         H           -2.843328452647     1.505064835339     0.676372886160     1.007825032230
         H           -1.887145452647     0.349912835339     1.725420886160     1.007825032230
         H           -2.702686452647    -1.609169164661     0.401374886160     1.007825032230
         H           -3.687561452647    -0.510375164661    -0.680717113840     1.007825032230
         H            2.003636547353    -1.554184164661    -0.633186113840     1.007825032230
         H            1.771688547353    -1.326461164661     1.083787886160     1.007825032230
         H            3.438976547353     0.533312835339    -0.723993113840     1.007825032230
         H            3.203726547353     0.764524835339     1.007358886160     1.007825032230
         H            4.101195547353    -0.649123164661     0.420863886160     1.007825032230

  Basis Set: AUG-CC-PVTZ
    Blend: AUG-CC-PVTZ
  Basis Set: (AUG-CC-PVTZ AUX)
    Blend: AUG-CC-PVTZ-JKFIT
	 Reference Energy          =    -382.8780229893682190 [Eh]
	 Singles Energy            =      -0.0000000000000000 [Eh]
	 Same-Spin Energy          =      -0.3841676024419909 [Eh]
	 Opposite-Spin Energy      =      -1.2536211210601078 [Eh]
	 Correlation Energy        =      -1.6377887235020987 [Eh]
	 Total Energy              =    -384.5158117128703452 [Eh]

	 ================> DF-SCS-MP2 Energies <==================
	-----------------------------------------------------------
	 SCS Same-Spin Scale       =       0.3333333333333333 [-]
	 SCS Opposite-Spin Scale   =       1.2000000000000000 [-]
	 SCS Same-Spin Energy      =      -0.1280558674806636 [Eh]
	 SCS Opposite-Spin Energy  =      -1.5043453452721294 [Eh]
	 SCS Correlation Energy    =      -1.6324012127527929 [Eh]
	 SCS Total Energy          =    -384.5104242021209870 [Eh]
	-----------------------------------------------------------

  Dipole Moment: [D]
     X:    -0.5423      Y:    -1.5460      Z:     0.3316     Total:     1.6715

*** Psi4 exiting successfully. Buy a developer a beer!
