                               Psi4 1.3.2 release

  ==> Input File <==

--------------------------------------------------------------------------
#psi4
#
memory 32 gb

molecule  {
0 1
  O       -0.3837350    -0.6575400    -0.2190270
  O        0.7644980     1.3096330    -0.3008230
  C       -1.6568617     0.1408114    -0.4700587
  C       -2.3348950     0.5731210     0.7352070
  C       -2.8287970    -0.6125310    -0.0653010
  C        0.7497060     0.1014470    -0.1470330
  C        1.9486320    -0.7720410     0.1304860
  C        3.2415180     0.0282310     0.1994850
  H       -1.5381270     0.6983470    -1.3501410
  H       -2.8570690     1.5207960     0.6581610
  H       -1.9008860     0.3656440     1.7072090
  H       -2.7164270    -1.5934380     0.3831630
  H       -3.7013020    -0.4946440    -0.6989290
  H        1.9898960    -1.5384530    -0.6513980
  H        1.7579480    -1.3107300     1.0655760
  H        3.4252360     0.5490440    -0.7422050
  H        3.1899860     0.7802560     0.9891470
  H        4.0874550    -0.6333920     0.4026520
units angstrom
no_reorient  #important for SAPT in psi4, default
symmetry c1  #important for SAPT in psi4, default
}

set PROPERTIES_ORIGIN ["COM"]
properties('MP2/aug-cc-pvtz', properties = ['dipole'])
--------------------------------------------------------------------------

    Molecular point group: c1
  Charge       = 0
  Multiplicity = 1
  Basis Set: AUG-CC-PVTZ
    Blend: AUG-CC-PVTZ
  Basis Set: (AUG-CC-PVTZ AUX)
    Blend: AUG-CC-PVTZ-JKFIT

    Orbital Energies [Eh]
    ---------------------

    Doubly Occupied:

       1A    -20.594087     2A    -20.538821     3A    -11.373510
       4A    -11.296170     5A    -11.241899     6A    -11.236245
       7A    -11.235214     8A    -11.217817     9A     -1.433439
      10A     -1.340191    11A     -1.166404    12A     -1.055388
      13A     -0.904876    14A     -0.844562    15A     -0.825658
      16A     -0.760449    17A     -0.699850    18A     -0.671141
      19A     -0.668781    20A     -0.641311    21A     -0.612397
      22A     -0.579631    23A     -0.555105    24A     -0.529608
      25A     -0.519270    26A     -0.508295    27A     -0.497398
      28A     -0.476959    29A     -0.452968    30A     -0.434502
      31A     -0.428015

  @DF-RHF Final Energy:  -382.86715343126161

   => Energetics <=

    Nuclear Repulsion Energy =            376.0416040988882855
    One-Electron Energy =               -1267.1375961761034432
    Two-Electron Energy =                 508.2288386459536014
    Total Energy =                       -382.8671534312616132
  Basis Set: (AUG-CC-PVTZ AUX)
    Blend: AUG-CC-PVTZ-RI
    Molecular point group: c1

    Geometry (in Angstrom), charge = 0, multiplicity = 1:

       Center              X                  Y                   Z               Mass
    ------------   -----------------  -----------------  -----------------  -----------------
         O           -0.359821202876    -0.677432505897    -0.201980159186    15.994914619570
         O            0.788411797124     1.289740494103    -0.283776159186    15.994914619570
         C           -1.632947902876     0.120918894103    -0.453011859186    12.000000000000
         C           -2.310981202876     0.553228494103     0.752253840814    12.000000000000
         C           -2.804883202876    -0.632423505897    -0.048254159186    12.000000000000
         C            0.773619797124     0.081554494103    -0.129986159186    12.000000000000
         C            1.972545797124    -0.791933505897     0.147532840814    12.000000000000
         C            3.265431797124     0.008338494103     0.216531840814    12.000000000000
         H           -1.514213202876     0.678454494103    -1.333094159186     1.007825032230
         H           -2.833155202876     1.500903494103     0.675207840814     1.007825032230
         H           -1.876972202876     0.345751494103     1.724255840814     1.007825032230
         H           -2.692513202876    -1.613330505897     0.400209840814     1.007825032230
         H           -3.677388202876    -0.514536505897    -0.681882159186     1.007825032230
         H            2.013809797124    -1.558345505897    -0.634351159186     1.007825032230
         H            1.781861797124    -1.330622505897     1.082622840814     1.007825032230
         H            3.449149797124     0.529151494103    -0.725158159186     1.007825032230
         H            3.213899797124     0.760363494103     1.006193840814     1.007825032230
         H            4.111368797124    -0.653284505897     0.419698840814     1.007825032230

  Basis Set: AUG-CC-PVTZ
    Blend: AUG-CC-PVTZ
  Basis Set: (AUG-CC-PVTZ AUX)
    Blend: AUG-CC-PVTZ-JKFIT
	 Reference Energy          =    -382.8671534312616132 [Eh]
	 Singles Energy            =      -0.0000000000000000 [Eh]
	 Same-Spin Energy          =      -0.3848196224564180 [Eh]
	 Opposite-Spin Energy      =      -1.2553017521351788 [Eh]
	 Correlation Energy        =      -1.6401213745915968 [Eh]
	 Total Energy              =    -384.5072748058532284 [Eh]

	 ================> DF-SCS-MP2 Energies <==================
	-----------------------------------------------------------
	 SCS Same-Spin Scale       =       0.3333333333333333 [-]
	 SCS Opposite-Spin Scale   =       1.2000000000000000 [-]
	 SCS Same-Spin Energy      =      -0.1282732074854727 [Eh]
	 SCS Opposite-Spin Energy  =      -1.5063621025622145 [Eh]
	 SCS Correlation Energy    =      -1.6346353100476871 [Eh]
	 SCS Total Energy          =    -384.5017887413093263 [Eh]
	-----------------------------------------------------------

  Dipole Moment: [D]
     X:    -0.8907      Y:    -1.4294      Z:     0.3047     Total:     1.7115

*** Psi4 exiting successfully. Buy a developer a beer!
