                               Psi4 1.3.2 release

  ==> Input File <==

--------------------------------------------------------------------------
#psi4
#
memory 32 gb

molecule  {
0 1
  O       -0.3776453    -0.6616268    -0.2681719
  O        0.7644980     1.3096330    -0.3008230
  C       -1.5732990     0.0884110    -0.4535820
  C       -2.3348950     0.5731210     0.7352070
  C       -2.8287970    -0.6125310    -0.0653010
  C        0.7497060     0.1014470    -0.1470330
  C        1.9486320    -0.7720410     0.1304860
  C        3.2415180     0.0282310     0.1994850
  H       -1.5381270     0.6983470    -1.3501410
  H       -2.8570690     1.5207960     0.6581610
  H       -1.9008860     0.3656440     1.7072090
  H       -2.7164270    -1.5934380     0.3831630
  H       -3.7013020    -0.4946440    -0.6989290
  H        1.9898960    -1.5384530    -0.6513980
  H        1.7579480    -1.3107300     1.0655760
  H        3.4252360     0.5490440    -0.7422050
  H        3.1899860     0.7802560     0.9891470
  H        4.0874550    -0.6333920     0.4026520
units angstrom
no_reorient  #important for SAPT in psi4, default
symmetry c1  #important for SAPT in psi4, default
}

set PROPERTIES_ORIGIN ["COM"]
properties('MP2/aug-cc-pvtz', properties = ['dipole'])
--------------------------------------------------------------------------

    Molecular point group: c1
  Charge       = 0
  Multiplicity = 1
  Basis Set: AUG-CC-PVTZ
    Blend: AUG-CC-PVTZ
  Basis Set: (AUG-CC-PVTZ AUX)
    Blend: AUG-CC-PVTZ-JKFIT

    Orbital Energies [Eh]
    ---------------------

    Doubly Occupied:

       1A    -20.605405     2A    -20.545612     3A    -11.380445
       4A    -11.292982     5A    -11.246363     6A    -11.233754
       7A    -11.233106     8A    -11.220965     9A     -1.454241
      10A     -1.355807    11A     -1.145736    12A     -1.060421
      13A     -0.916771    14A     -0.838916    15A     -0.825896
      16A     -0.762976    17A     -0.703344    18A     -0.677596
      19A     -0.673514    20A     -0.641944    21A     -0.609570
      22A     -0.589207    23A     -0.557792    24A     -0.524860
      25A     -0.522932    26A     -0.519006    27A     -0.502331
      28A     -0.481883    29A     -0.452279    30A     -0.428678
      31A     -0.417242

  @DF-RHF Final Energy:  -382.87680679835864

   => Energetics <=

    Nuclear Repulsion Energy =            376.8486640302218689
    One-Electron Energy =               -1268.6077869069372355
    Two-Electron Energy =                 508.8823160783566664
    Total Energy =                       -382.8768067983586434
  Basis Set: (AUG-CC-PVTZ AUX)
    Blend: AUG-CC-PVTZ-RI
    Molecular point group: c1

    Geometry (in Angstrom), charge = 0, multiplicity = 1:

       Center              X                  Y                   Z               Mass
    ------------   -----------------  -----------------  -----------------  -----------------
         O           -0.363376239912    -0.675433704915    -0.245967191343    15.994914619570
         O            0.778767060088     1.295826095085    -0.278618291343    15.994914619570
         C           -1.559029939912     0.074604095085    -0.431377291343    12.000000000000
         C           -2.320625939912     0.559314095085     0.757411708657    12.000000000000
         C           -2.814527939912    -0.626337904915    -0.043096291343    12.000000000000
         C            0.763975060088     0.087640095085    -0.124828291343    12.000000000000
         C            1.962901060088    -0.785847904915     0.152690708657    12.000000000000
         C            3.255787060088     0.014424095085     0.221689708657    12.000000000000
         H           -1.523857939912     0.684540095085    -1.327936291343     1.007825032230
         H           -2.842799939912     1.506989095085     0.680365708657     1.007825032230
         H           -1.886616939912     0.351837095085     1.729413708657     1.007825032230
         H           -2.702157939912    -1.607244904915     0.405367708657     1.007825032230
         H           -3.687032939912    -0.508450904915    -0.676724291343     1.007825032230
         H            2.004165060088    -1.552259904915    -0.629193291343     1.007825032230
         H            1.772217060088    -1.324536904915     1.087780708657     1.007825032230
         H            3.439505060088     0.535237095085    -0.720000291343     1.007825032230
         H            3.204255060088     0.766449095085     1.011351708657     1.007825032230
         H            4.101724060088    -0.647198904915     0.424856708657     1.007825032230

  Basis Set: AUG-CC-PVTZ
    Blend: AUG-CC-PVTZ
  Basis Set: (AUG-CC-PVTZ AUX)
    Blend: AUG-CC-PVTZ-JKFIT
	 Reference Energy          =    -382.8768067983586434 [Eh]
	 Singles Energy            =      -0.0000000000000000 [Eh]
	 Same-Spin Energy          =      -0.3843510230413718 [Eh]
	 Opposite-Spin Energy      =      -1.2542167769494308 [Eh]
	 Correlation Energy        =      -1.6385677999908026 [Eh]
	 Total Energy              =    -384.5153745983494673 [Eh]

	 ================> DF-SCS-MP2 Energies <==================
	-----------------------------------------------------------
	 SCS Same-Spin Scale       =       0.3333333333333333 [-]
	 SCS Opposite-Spin Scale   =       1.2000000000000000 [-]
	 SCS Same-Spin Energy      =      -0.1281170076804573 [Eh]
	 SCS Opposite-Spin Energy  =      -1.5050601323393169 [Eh]
	 SCS Correlation Energy    =      -1.6331771400197741 [Eh]
	 SCS Total Energy          =    -384.5099839383784115 [Eh]
	-----------------------------------------------------------

  Dipole Moment: [D]
     X:    -0.4710      Y:    -1.4984      Z:     0.3679     Total:     1.6132

*** Psi4 exiting successfully. Buy a developer a beer!
