                               Psi4 1.3.2 release

  ==> Input File <==

--------------------------------------------------------------------------
#psi4
#
memory 32 gb

molecule  {
0 1
  O       -0.3805085    -0.6596973    -0.2435674
  O        0.7644980     1.3096330    -0.3008230
  C       -1.5732990     0.0884110    -0.4535820
  C       -2.3348950     0.5731210     0.7352070
  C       -2.8287970    -0.6125310    -0.0653010
  C        0.7497060     0.1014470    -0.1470330
  C        1.9486320    -0.7720410     0.1304860
  C        3.2415180     0.0282310     0.1994850
  H       -1.5381270     0.6983470    -1.3501410
  H       -2.8570690     1.5207960     0.6581610
  H       -1.9008860     0.3656440     1.7072090
  H       -2.7164270    -1.5934380     0.3831630
  H       -3.7013020    -0.4946440    -0.6989290
  H        1.9898960    -1.5384530    -0.6513980
  H        1.7579480    -1.3107300     1.0655760
  H        3.4252360     0.5490440    -0.7422050
  H        3.1899860     0.7802560     0.9891470
  H        4.0874550    -0.6333920     0.4026520
units angstrom
no_reorient  #important for SAPT in psi4, default
symmetry c1  #important for SAPT in psi4, default
}

set PROPERTIES_ORIGIN ["COM"]
properties('MP2/aug-cc-pvtz', properties = ['dipole'])
--------------------------------------------------------------------------

    Molecular point group: c1
  Charge       = 0
  Multiplicity = 1
  Basis Set: AUG-CC-PVTZ
    Blend: AUG-CC-PVTZ
  Basis Set: (AUG-CC-PVTZ AUX)
    Blend: AUG-CC-PVTZ-JKFIT

    Orbital Energies [Eh]
    ---------------------

    Doubly Occupied:

       1A    -20.605579     2A    -20.545563     3A    -11.380421
       4A    -11.293108     5A    -11.246291     6A    -11.233562
       7A    -11.232639     8A    -11.220926     9A     -1.454553
      10A     -1.355975    11A     -1.145691    12A     -1.060322
      13A     -0.916586    14A     -0.838651    15A     -0.825844
      16A     -0.764050    17A     -0.703350    18A     -0.677383
      19A     -0.673174    20A     -0.641618    21A     -0.609465
      22A     -0.589239    23A     -0.558220    24A     -0.524771
      25A     -0.523046    26A     -0.519238    27A     -0.502332
      28A     -0.482294    29A     -0.452327    30A     -0.428722
      31A     -0.416424

  @DF-RHF Final Energy:  -382.87710634208565

   => Energetics <=

    Nuclear Repulsion Energy =            376.9465372692977212
    One-Electron Energy =               -1268.8045628440243036
    Two-Electron Energy =                 508.9809192326408720
    Total Energy =                       -382.8771063420856535
  Basis Set: (AUG-CC-PVTZ AUX)
    Blend: AUG-CC-PVTZ-RI
    Molecular point group: c1

    Geometry (in Angstrom), charge = 0, multiplicity = 1:

       Center              X                  Y                   Z               Mass
    ------------   -----------------  -----------------  -----------------  -----------------
         O           -0.365837954766    -0.673774764285    -0.224812796563    15.994914619570
         O            0.779168545234     1.295555535715    -0.282068396563    15.994914619570
         C           -1.558628454766     0.074333535715    -0.434827396563    12.000000000000
         C           -2.320224454766     0.559043535715     0.753961603437    12.000000000000
         C           -2.814126454766    -0.626608464285    -0.046546396563    12.000000000000
         C            0.764376545234     0.087369535715    -0.128278396563    12.000000000000
         C            1.963302545234    -0.786118464285     0.149240603437    12.000000000000
         C            3.256188545234     0.014153535715     0.218239603437    12.000000000000
         H           -1.523456454766     0.684269535715    -1.331386396563     1.007825032230
         H           -2.842398454766     1.506718535715     0.676915603437     1.007825032230
         H           -1.886215454766     0.351566535715     1.725963603437     1.007825032230
         H           -2.701756454766    -1.607515464285     0.401917603437     1.007825032230
         H           -3.686631454766    -0.508721464285    -0.680174396563     1.007825032230
         H            2.004566545234    -1.552530464285    -0.632643396563     1.007825032230
         H            1.772618545234    -1.324807464285     1.084330603437     1.007825032230
         H            3.439906545234     0.534966535715    -0.723450396563     1.007825032230
         H            3.204656545234     0.766178535715     1.007901603437     1.007825032230
         H            4.102125545234    -0.647469464285     0.421406603437     1.007825032230

  Basis Set: AUG-CC-PVTZ
    Blend: AUG-CC-PVTZ
  Basis Set: (AUG-CC-PVTZ AUX)
    Blend: AUG-CC-PVTZ-JKFIT
	 Reference Energy          =    -382.8771063420856535 [Eh]
	 Singles Energy            =      -0.0000000000000000 [Eh]
	 Same-Spin Energy          =      -0.3843698341288341 [Eh]
	 Opposite-Spin Energy      =      -1.2541956479174201 [Eh]
	 Correlation Energy        =      -1.6385654820462543 [Eh]
	 Total Energy              =    -384.5156718241319140 [Eh]

	 ================> DF-SCS-MP2 Energies <==================
	-----------------------------------------------------------
	 SCS Same-Spin Scale       =       0.3333333333333333 [-]
	 SCS Opposite-Spin Scale   =       1.2000000000000000 [-]
	 SCS Same-Spin Energy      =      -0.1281232780429447 [Eh]
	 SCS Opposite-Spin Energy  =      -1.5050347775009041 [Eh]
	 SCS Correlation Energy    =      -1.6331580555438487 [Eh]
	 SCS Total Energy          =    -384.5102643976294985 [Eh]
	-----------------------------------------------------------

  Dipole Moment: [D]
     X:    -0.4685      Y:    -1.5019      Z:     0.3351     Total:     1.6086

*** Psi4 exiting successfully. Buy a developer a beer!
