                               Psi4 1.3.2 release

  ==> Input File <==

--------------------------------------------------------------------------
#psi4
#
memory 32 gb

molecule  {
0 1
  O       -0.3837350    -0.6575400    -0.2190270
  O        0.7644980     1.3096330    -0.3008230
  C       -1.5990804     0.0459445    -0.4526218
  C       -2.3348950     0.5731210     0.7352070
  C       -2.8287970    -0.6125310    -0.0653010
  C        0.7497060     0.1014470    -0.1470330
  C        1.9486320    -0.7720410     0.1304860
  C        3.2415180     0.0282310     0.1994850
  H       -1.5381270     0.6983470    -1.3501410
  H       -2.8570690     1.5207960     0.6581610
  H       -1.9008860     0.3656440     1.7072090
  H       -2.7164270    -1.5934380     0.3831630
  H       -3.7013020    -0.4946440    -0.6989290
  H        1.9898960    -1.5384530    -0.6513980
  H        1.7579480    -1.3107300     1.0655760
  H        3.4252360     0.5490440    -0.7422050
  H        3.1899860     0.7802560     0.9891470
  H        4.0874550    -0.6333920     0.4026520
units angstrom
no_reorient  #important for SAPT in psi4, default
symmetry c1  #important for SAPT in psi4, default
}

set PROPERTIES_ORIGIN ["COM"]
properties('MP2/aug-cc-pvtz', properties = ['dipole'])
--------------------------------------------------------------------------

    Molecular point group: c1
  Charge       = 0
  Multiplicity = 1
  Basis Set: AUG-CC-PVTZ
    Blend: AUG-CC-PVTZ
  Basis Set: (AUG-CC-PVTZ AUX)
    Blend: AUG-CC-PVTZ-JKFIT

    Orbital Energies [Eh]
    ---------------------

    Doubly Occupied:

       1A    -20.604179     2A    -20.545158     3A    -11.380826
       4A    -11.294161     5A    -11.246361     6A    -11.233859
       7A    -11.229886     8A    -11.220885     9A     -1.453081
      10A     -1.355705    11A     -1.154011    12A     -1.060424
      13A     -0.916752    14A     -0.841035    15A     -0.824208
      16A     -0.762305    17A     -0.703453    18A     -0.675756
      19A     -0.675346    20A     -0.642407    21A     -0.608059
      22A     -0.589282    23A     -0.555645    24A     -0.524889
      25A     -0.522665    26A     -0.518259    27A     -0.501677
      28A     -0.481820    29A     -0.456439    30A     -0.436220
      31A     -0.409524

  @DF-RHF Final Energy:  -382.87538198273990

   => Energetics <=

    Nuclear Repulsion Energy =            377.0759557890114024
    One-Electron Energy =               -1269.0541298306932276
    Two-Electron Energy =                 509.1027920589418727
    Total Energy =                       -382.8753819827398956
  Basis Set: (AUG-CC-PVTZ AUX)
    Blend: AUG-CC-PVTZ-RI
    Molecular point group: c1

    Geometry (in Angstrom), charge = 0, multiplicity = 1:

       Center              X                  Y                   Z               Mass
    ------------   -----------------  -----------------  -----------------  -----------------
         O           -0.365899814900    -0.667452476389    -0.203814526879    15.994914619570
         O            0.782333185100     1.299720523611    -0.285610526879    15.994914619570
         C           -1.581245214900     0.036032023611    -0.437409326879    12.000000000000
         C           -2.317059814900     0.563208523611     0.750419473121    12.000000000000
         C           -2.810961814900    -0.622443476389    -0.050088526879    12.000000000000
         C            0.767541185100     0.091534523611    -0.131820526879    12.000000000000
         C            1.966467185100    -0.781953476389     0.145698473121    12.000000000000
         C            3.259353185100     0.018318523611     0.214697473121    12.000000000000
         H           -1.520291814900     0.688434523611    -1.334928526879     1.007825032230
         H           -2.839233814900     1.510883523611     0.673373473121     1.007825032230
         H           -1.883050814900     0.355731523611     1.722421473121     1.007825032230
         H           -2.698591814900    -1.603350476389     0.398375473121     1.007825032230
         H           -3.683466814900    -0.504556476389    -0.683716526879     1.007825032230
         H            2.007731185100    -1.548365476389    -0.636185526879     1.007825032230
         H            1.775783185100    -1.320642476389     1.080788473121     1.007825032230
         H            3.443071185100     0.539131523611    -0.726992526879     1.007825032230
         H            3.207821185100     0.770343523611     1.004359473121     1.007825032230
         H            4.105290185100    -0.643304476389     0.417864473121     1.007825032230

  Basis Set: AUG-CC-PVTZ
    Blend: AUG-CC-PVTZ
  Basis Set: (AUG-CC-PVTZ AUX)
    Blend: AUG-CC-PVTZ-JKFIT
	 Reference Energy          =    -382.8753819827398956 [Eh]
	 Singles Energy            =      -0.0000000000000000 [Eh]
	 Same-Spin Energy          =      -0.3844832219729700 [Eh]
	 Opposite-Spin Energy      =      -1.2539277987546771 [Eh]
	 Correlation Energy        =      -1.6384110207276472 [Eh]
	 Total Energy              =    -384.5137930034675264 [Eh]

	 ================> DF-SCS-MP2 Energies <==================
	-----------------------------------------------------------
	 SCS Same-Spin Scale       =       0.3333333333333333 [-]
	 SCS Opposite-Spin Scale   =       1.2000000000000000 [-]
	 SCS Same-Spin Energy      =      -0.1281610739909900 [Eh]
	 SCS Opposite-Spin Energy  =      -1.5047133585056125 [Eh]
	 SCS Correlation Energy    =      -1.6328744324966025 [Eh]
	 SCS Total Energy          =    -384.5082564152364739 [Eh]
	-----------------------------------------------------------

  Dipole Moment: [D]
     X:    -0.5069      Y:    -1.5611      Z:     0.2868     Total:     1.6662

*** Psi4 exiting successfully. Buy a developer a beer!
