                               Psi4 1.3.2 release

  ==> Input File <==

--------------------------------------------------------------------------
#psi4
#
memory 32 gb

molecule  {
0 1
  O       -0.3730123    -0.6647998    -0.3175426
  O        0.7644980     1.3096330    -0.3008230
  C       -1.5732990     0.0884110    -0.4535820
  C       -2.3348950     0.5731210     0.7352070
  C       -2.8287970    -0.6125310    -0.0653010
  C        0.7497060     0.1014470    -0.1470330
  C        1.9486320    -0.7720410     0.1304860
  C        3.2415180     0.0282310     0.1994850
  H       -1.5381270     0.6983470    -1.3501410
  H       -2.8570690     1.5207960     0.6581610
  H       -1.9008860     0.3656440     1.7072090
  H       -2.7164270    -1.5934380     0.3831630
  H       -3.7013020    -0.4946440    -0.6989290
  H        1.9898960    -1.5384530    -0.6513980
  H        1.7579480    -1.3107300     1.0655760
  H        3.4252360     0.5490440    -0.7422050
  H        3.1899860     0.7802560     0.9891470
  H        4.0874550    -0.6333920     0.4026520
units angstrom
no_reorient  #important for SAPT in psi4, default
symmetry c1  #important for SAPT in psi4, default
}

set PROPERTIES_ORIGIN ["COM"]
properties('MP2/aug-cc-pvtz', properties = ['dipole'])
--------------------------------------------------------------------------

    Molecular point group: c1
  Charge       = 0
  Multiplicity = 1
  Basis Set: AUG-CC-PVTZ
    Blend: AUG-CC-PVTZ
  Basis Set: (AUG-CC-PVTZ AUX)
    Blend: AUG-CC-PVTZ-JKFIT

    Orbital Energies [Eh]
    ---------------------

    Doubly Occupied:

       1A    -20.604812     2A    -20.546032     3A    -11.380732
       4A    -11.292562     5A    -11.246678     6A    -11.234667
       7A    -11.233283     8A    -11.221160     9A     -1.453084
      10A     -1.355472    11A     -1.145612    12A     -1.060721
      13A     -0.916959    14A     -0.839299    15A     -0.825835
      16A     -0.760703    17A     -0.703340    18A     -0.677884
      19A     -0.673983    20A     -0.642471    21A     -0.609804
      22A     -0.589073    23A     -0.556949    24A     -0.525080
      25A     -0.522857    26A     -0.518376    27A     -0.502456
      28A     -0.481270    29A     -0.452273    30A     -0.428375
      31A     -0.418575

  @DF-RHF Final Energy:  -382.87551234768665

   => Energetics <=

    Nuclear Repulsion Energy =            376.6157678388455565
    One-Electron Energy =               -1268.1418060361024800
    Two-Electron Energy =                 508.6505258495702151
    Total Energy =                       -382.8755123476866515
  Basis Set: (AUG-CC-PVTZ AUX)
    Blend: AUG-CC-PVTZ-RI
    Molecular point group: c1

    Geometry (in Angstrom), charge = 0, multiplicity = 1:

       Center              X                  Y                   Z               Mass
    ------------   -----------------  -----------------  -----------------  -----------------
         O           -0.359392890890    -0.678161778830    -0.288415006919    15.994914619570
         O            0.778117409110     1.296271021170    -0.271695406919    15.994914619570
         C           -1.559679590890     0.075049021170    -0.424454406919    12.000000000000
         C           -2.321275590890     0.559759021170     0.764334593081    12.000000000000
         C           -2.815177590890    -0.625892978830    -0.036173406919    12.000000000000
         C            0.763325409110     0.088085021170    -0.117905406919    12.000000000000
         C            1.962251409110    -0.785402978830     0.159613593081    12.000000000000
         C            3.255137409110     0.014869021170     0.228612593081    12.000000000000
         H           -1.524507590890     0.684985021170    -1.321013406919     1.007825032230
         H           -2.843449590890     1.507434021170     0.687288593081     1.007825032230
         H           -1.887266590890     0.352282021170     1.736336593081     1.007825032230
         H           -2.702807590890    -1.606799978830     0.412290593081     1.007825032230
         H           -3.687682590890    -0.508005978830    -0.669801406919     1.007825032230
         H            2.003515409110    -1.551814978830    -0.622270406919     1.007825032230
         H            1.771567409110    -1.324091978830     1.094703593081     1.007825032230
         H            3.438855409110     0.535682021170    -0.713077406919     1.007825032230
         H            3.203605409110     0.766894021170     1.018274593081     1.007825032230
         H            4.101074409110    -0.646753978830     0.431779593081     1.007825032230

  Basis Set: AUG-CC-PVTZ
    Blend: AUG-CC-PVTZ
  Basis Set: (AUG-CC-PVTZ AUX)
    Blend: AUG-CC-PVTZ-JKFIT
	 Reference Energy          =    -382.8755123476866515 [Eh]
	 Singles Energy            =      -0.0000000000000000 [Eh]
	 Same-Spin Energy          =      -0.3843526210463710 [Eh]
	 Opposite-Spin Energy      =      -1.2543767637333061 [Eh]
	 Correlation Energy        =      -1.6387293847796771 [Eh]
	 Total Energy              =    -384.5142417324663029 [Eh]

	 ================> DF-SCS-MP2 Energies <==================
	-----------------------------------------------------------
	 SCS Same-Spin Scale       =       0.3333333333333333 [-]
	 SCS Opposite-Spin Scale   =       1.2000000000000000 [-]
	 SCS Same-Spin Energy      =      -0.1281175403487903 [Eh]
	 SCS Opposite-Spin Energy  =      -1.5052521164799673 [Eh]
	 SCS Correlation Energy    =      -1.6333696568287577 [Eh]
	 SCS Total Energy          =    -384.5088820045153852 [Eh]
	-----------------------------------------------------------

  Dipole Moment: [D]
     X:    -0.4613      Y:    -1.4876      Z:     0.4347     Total:     1.6170

*** Psi4 exiting successfully. Buy a developer a beer!
