                               Psi4 1.4a3.dev225

  ==> Input File <==

--------------------------------------------------------------------------
#psi4
#
memory 32 gb

molecule  {
0 1
  O       -0.3837350    -0.6575400    -0.2190270
  O        0.7644980     1.3096330    -0.3008230
  C       -1.5315177     0.0622108    -0.4453437
  C       -2.3348950     0.5731210     0.7352070
  C       -2.8287970    -0.6125310    -0.0653010
  C        0.7497060     0.1014470    -0.1470330
  C        1.9486320    -0.7720410     0.1304860
  C        3.2415180     0.0282310     0.1994850
  H       -1.5381270     0.6983470    -1.3501410
  H       -2.8570690     1.5207960     0.6581610
  H       -1.9008860     0.3656440     1.7072090
  H       -2.7164270    -1.5934380     0.3831630
  H       -3.7013020    -0.4946440    -0.6989290
  H        1.9898960    -1.5384530    -0.6513980
  H        1.7579480    -1.3107300     1.0655760
  H        3.4252360     0.5490440    -0.7422050
  H        3.1899860     0.7802560     0.9891470
  H        4.0874550    -0.6333920     0.4026520
units angstrom
no_reorient  #important for SAPT in psi4, default
symmetry c1  #important for SAPT in psi4, default
}

set PROPERTIES_ORIGIN ["COM"]
properties('MP2/aug-cc-pvtz', properties = ['dipole'])
--------------------------------------------------------------------------

    Molecular point group: c1
  Charge       = 0
  Multiplicity = 1
  Basis Set: AUG-CC-PVTZ
    Blend: AUG-CC-PVTZ
  Basis Set: (AUG-CC-PVTZ AUX)
    Blend: AUG-CC-PVTZ-JKFIT

    Orbital Energies [Eh]
    ---------------------

    Doubly Occupied:

       1A    -20.610693     2A    -20.549059     3A    -11.383818
       4A    -11.292868     5A    -11.248360     6A    -11.232373
       7A    -11.230637     8A    -11.222398     9A     -1.468357
      10A     -1.363953    11A     -1.135473    12A     -1.062568
      13A     -0.923406    14A     -0.837890    15A     -0.826206
      16A     -0.765905    17A     -0.706091    18A     -0.681985
      19A     -0.675858    20A     -0.640594    21A     -0.608601
      22A     -0.594358    23A     -0.557930    24A     -0.527223
      25A     -0.525088    26A     -0.519816    27A     -0.504625
      28A     -0.486133    29A     -0.454174    30A     -0.424726
      31A     -0.404363

  @DF-RHF Final Energy:  -382.87491732070669

   => Energetics <=

    Nuclear Repulsion Energy =            377.5748602477955842
    One-Electron Energy =               -1269.9684992318041168
    Two-Electron Energy =                 509.5187216633017897
    Total Energy =                       -382.8749173207066860
  Basis Set: (AUG-CC-PVTZ AUX)
    Blend: AUG-CC-PVTZ-RI
    Molecular point group: c1

    Geometry (in Angstrom), charge = 0, multiplicity = 1:

       Center              X                  Y                   Z               Mass
    ------------   -----------------  -----------------  -----------------  -----------------
         O           -0.373007433465    -0.669163696572    -0.204580185426    15.994914619570
         O            0.775225566535     1.298009303428    -0.286376185426    15.994914619570
         C           -1.520790133465     0.050587103428    -0.430896885426    12.000000000000
         C           -2.324167433465     0.561497303428     0.749653814574    12.000000000000
         C           -2.818069433465    -0.624154696572    -0.050854185426    12.000000000000
         C            0.760433566535     0.089823303428    -0.132586185426    12.000000000000
         C            1.959359566535    -0.783664696572     0.144932814574    12.000000000000
         C            3.252245566535     0.016607303428     0.213931814574    12.000000000000
         H           -1.527399433465     0.686723303428    -1.335694185426     1.007825032230
         H           -2.846341433465     1.509172303428     0.672607814574     1.007825032230
         H           -1.890158433465     0.354020303428     1.721655814574     1.007825032230
         H           -2.705699433465    -1.605061696572     0.397609814574     1.007825032230
         H           -3.690574433465    -0.506267696572    -0.684482185426     1.007825032230
         H            2.000623566535    -1.550076696572    -0.636951185426     1.007825032230
         H            1.768675566535    -1.322353696572     1.080022814574     1.007825032230
         H            3.435963566535     0.537420303428    -0.727758185426     1.007825032230
         H            3.200713566535     0.768632303428     1.003593814574     1.007825032230
         H            4.098182566535    -0.645015696572     0.417098814574     1.007825032230

  Basis Set: AUG-CC-PVTZ
    Blend: AUG-CC-PVTZ
  Basis Set: (AUG-CC-PVTZ AUX)
    Blend: AUG-CC-PVTZ-JKFIT
	 Reference Energy          =    -382.8749173207066860 [Eh]
	 Singles Energy            =      -0.0000000000000000 [Eh]
	 Same-Spin Energy          =      -0.3844820834812878 [Eh]
	 Opposite-Spin Energy      =      -1.2541182460961200 [Eh]
	 Correlation Energy        =      -1.6386003295774079 [Eh]
	 Total Energy              =    -384.5135176502840864 [Eh]

	 ================> DF-SCS-MP2 Energies <==================
	-----------------------------------------------------------
	 SCS Same-Spin Scale       =       0.3333333333333333 [-]
	 SCS Opposite-Spin Scale   =       1.2000000000000000 [-]
	 SCS Same-Spin Energy      =      -0.1281606944937626 [Eh]
	 SCS Opposite-Spin Energy  =      -1.5049418953153439 [Eh]
	 SCS Correlation Energy    =      -1.6331025898091065 [Eh]
	 SCS Total Energy          =    -384.5080199105157703 [Eh]
	-----------------------------------------------------------

  Dipole Moment: [D]
     X:    -0.2412      Y:    -1.5458      Z:     0.3059     Total:     1.5941

*** Psi4 exiting successfully. Buy a developer a beer!
