                               Psi4 1.3.2 release

  ==> Input File <==

--------------------------------------------------------------------------
#psi4
#
memory 32 gb

molecule  {
0 1
  O       -0.3837350    -0.6575400    -0.2190270
  O        0.7644980     1.3096330    -0.3008230
  C       -1.5174215     0.1705668    -0.4546442
  C       -2.3348950     0.5731210     0.7352070
  C       -2.8287970    -0.6125310    -0.0653010
  C        0.7497060     0.1014470    -0.1470330
  C        1.9486320    -0.7720410     0.1304860
  C        3.2415180     0.0282310     0.1994850
  H       -1.5381270     0.6983470    -1.3501410
  H       -2.8570690     1.5207960     0.6581610
  H       -1.9008860     0.3656440     1.7072090
  H       -2.7164270    -1.5934380     0.3831630
  H       -3.7013020    -0.4946440    -0.6989290
  H        1.9898960    -1.5384530    -0.6513980
  H        1.7579480    -1.3107300     1.0655760
  H        3.4252360     0.5490440    -0.7422050
  H        3.1899860     0.7802560     0.9891470
  H        4.0874550    -0.6333920     0.4026520
units angstrom
no_reorient  #important for SAPT in psi4, default
symmetry c1  #important for SAPT in psi4, default
}

set PROPERTIES_ORIGIN ["COM"]
properties('MP2/aug-cc-pvtz', properties = ['dipole'])
--------------------------------------------------------------------------

    Molecular point group: c1
  Charge       = 0
  Multiplicity = 1
  Basis Set: AUG-CC-PVTZ
    Blend: AUG-CC-PVTZ
  Basis Set: (AUG-CC-PVTZ AUX)
    Blend: AUG-CC-PVTZ-JKFIT

    Orbital Energies [Eh]
    ---------------------

    Doubly Occupied:

       1A    -20.609236     2A    -20.546995     3A    -11.380394
       4A    -11.293299     5A    -11.246355     6A    -11.237121
       7A    -11.232267     8A    -11.221167     9A     -1.458621
      10A     -1.357540    11A     -1.129609    12A     -1.060029
      13A     -0.915903    14A     -0.834039    15A     -0.829826
      16A     -0.769805    17A     -0.703658    18A     -0.680780
      19A     -0.668343    20A     -0.638158    21A     -0.611382
      22A     -0.589492    23A     -0.565424    24A     -0.526331
      25A     -0.523788    26A     -0.519765    27A     -0.503681
      28A     -0.485003    29A     -0.450895    30A     -0.432640
      31A     -0.398558

  @DF-RHF Final Energy:  -382.86821257685170

   => Energetics <=

    Nuclear Repulsion Energy =            376.9464120110501995
    One-Electron Energy =               -1268.7890377412102225
    Two-Electron Energy =                 508.9744131533083760
    Total Energy =                       -382.8682125768517039
  Basis Set: (AUG-CC-PVTZ AUX)
    Blend: AUG-CC-PVTZ-RI
    Molecular point group: c1

    Geometry (in Angstrom), charge = 0, multiplicity = 1:

       Center              X                  Y                   Z               Mass
    ------------   -----------------  -----------------  -----------------  -----------------
         O           -0.374490358405    -0.680562783898    -0.203601769725    15.994914619570
         O            0.773742641595     1.286610216102    -0.285397769725    15.994914619570
         C           -1.508176858405     0.147544016102    -0.439218969725    12.000000000000
         C           -2.325650358405     0.550098216102     0.750632230275    12.000000000000
         C           -2.819552358405    -0.635553783898    -0.049875769725    12.000000000000
         C            0.758950641595     0.078424216102    -0.131607769725    12.000000000000
         C            1.957876641595    -0.795063783898     0.145911230275    12.000000000000
         C            3.250762641595     0.005208216102     0.214910230275    12.000000000000
         H           -1.528882358405     0.675324216102    -1.334715769725     1.007825032230
         H           -2.847824358405     1.497773216102     0.673586230275     1.007825032230
         H           -1.891641358405     0.342621216102     1.722634230275     1.007825032230
         H           -2.707182358405    -1.616460783898     0.398588230275     1.007825032230
         H           -3.692057358405    -0.517666783898    -0.683503769725     1.007825032230
         H            1.999140641595    -1.561475783898    -0.635972769725     1.007825032230
         H            1.767192641595    -1.333752783898     1.081001230275     1.007825032230
         H            3.434480641595     0.526021216102    -0.726779769725     1.007825032230
         H            3.199230641595     0.757233216102     1.004572230275     1.007825032230
         H            4.096699641595    -0.656414783898     0.418077230275     1.007825032230

  Basis Set: AUG-CC-PVTZ
    Blend: AUG-CC-PVTZ
  Basis Set: (AUG-CC-PVTZ AUX)
    Blend: AUG-CC-PVTZ-JKFIT
	 Reference Energy          =    -382.8682125768517039 [Eh]
	 Singles Energy            =      -0.0000000000000000 [Eh]
	 Same-Spin Energy          =      -0.3847685914228562 [Eh]
	 Opposite-Spin Energy      =      -1.2558963648878541 [Eh]
	 Correlation Energy        =      -1.6406649563107103 [Eh]
	 Total Energy              =    -384.5088775331624333 [Eh]

	 ================> DF-SCS-MP2 Energies <==================
	-----------------------------------------------------------
	 SCS Same-Spin Scale       =       0.3333333333333333 [-]
	 SCS Opposite-Spin Scale   =       1.2000000000000000 [-]
	 SCS Same-Spin Energy      =      -0.1282561971409521 [Eh]
	 SCS Opposite-Spin Energy  =      -1.5070756378654249 [Eh]
	 SCS Correlation Energy    =      -1.6353318350063770 [Eh]
	 SCS Total Energy          =    -384.5035444118580585 [Eh]
	-----------------------------------------------------------

  Dipole Moment: [D]
     X:    -0.3472      Y:    -1.4068      Z:     0.3338     Total:     1.4869

*** Psi4 exiting successfully. Buy a developer a beer!
