                               Psi4 1.3.2 release

  ==> Input File <==

--------------------------------------------------------------------------
#psi4
#
memory 32 gb

molecule  {
0 1
  O       -0.3465034    -0.6176619    -0.3020725
  O        0.7644980     1.3096330    -0.3008230
  C       -1.5732990     0.0884110    -0.4535820
  C       -2.3348950     0.5731210     0.7352070
  C       -2.8287970    -0.6125310    -0.0653010
  C        0.7497060     0.1014470    -0.1470330
  C        1.9486320    -0.7720410     0.1304860
  C        3.2415180     0.0282310     0.1994850
  H       -1.5381270     0.6983470    -1.3501410
  H       -2.8570690     1.5207960     0.6581610
  H       -1.9008860     0.3656440     1.7072090
  H       -2.7164270    -1.5934380     0.3831630
  H       -3.7013020    -0.4946440    -0.6989290
  H        1.9898960    -1.5384530    -0.6513980
  H        1.7579480    -1.3107300     1.0655760
  H        3.4252360     0.5490440    -0.7422050
  H        3.1899860     0.7802560     0.9891470
  H        4.0874550    -0.6333920     0.4026520
units angstrom
no_reorient  #important for SAPT in psi4, default
symmetry c1  #important for SAPT in psi4, default
}

set PROPERTIES_ORIGIN ["COM"]
properties('MP2/aug-cc-pvtz', properties = ['dipole'])
--------------------------------------------------------------------------

    Molecular point group: c1
  Charge       = 0
  Multiplicity = 1
  Basis Set: AUG-CC-PVTZ
    Blend: AUG-CC-PVTZ
  Basis Set: (AUG-CC-PVTZ AUX)
    Blend: AUG-CC-PVTZ-JKFIT

    Orbital Energies [Eh]
    ---------------------

    Doubly Occupied:

       1A    -20.605896     2A    -20.535510     3A    -11.373680
       4A    -11.296508     5A    -11.244365     6A    -11.237285
       7A    -11.235943     8A    -11.219258     9A     -1.469029
      10A     -1.351012    11A     -1.150574    12A     -1.059117
      13A     -0.921563    14A     -0.842573    15A     -0.831858
      16A     -0.763744    17A     -0.702063    18A     -0.682230
      19A     -0.677572    20A     -0.643911    21A     -0.607274
      22A     -0.592853    23A     -0.558388    24A     -0.526740
      25A     -0.521595    26A     -0.514149    27A     -0.500796
      28A     -0.475605    29A     -0.448050    30A     -0.432502
      31A     -0.420519

  @DF-RHF Final Energy:  -382.87786021541638

   => Energetics <=

    Nuclear Repulsion Energy =            377.8277657414772079
    One-Electron Energy =               -1270.5269208168938349
    Two-Electron Energy =                 509.8212948600003074
    Total Energy =                       -382.8778602154163764
  Basis Set: (AUG-CC-PVTZ AUX)
    Blend: AUG-CC-PVTZ-RI
    Molecular point group: c1

    Geometry (in Angstrom), charge = 0, multiplicity = 1:

       Center              X                  Y                   Z               Mass
    ------------   -----------------  -----------------  -----------------  -----------------
         O           -0.336601135894    -0.637633674390    -0.275114163469    15.994914619570
         O            0.774400264106     1.289661225610    -0.273864663469    15.994914619570
         C           -1.563396735894     0.068439225610    -0.426623663469    12.000000000000
         C           -2.324992735894     0.553149225610     0.762165336531    12.000000000000
         C           -2.818894735894    -0.632502774390    -0.038342663469    12.000000000000
         C            0.759608264106     0.081475225610    -0.120074663469    12.000000000000
         C            1.958534264106    -0.792012774390     0.157444336531    12.000000000000
         C            3.251420264106     0.008259225610     0.226443336531    12.000000000000
         H           -1.528224735894     0.678375225610    -1.323182663469     1.007825032230
         H           -2.847166735894     1.500824225610     0.685119336531     1.007825032230
         H           -1.890983735894     0.345672225610     1.734167336531     1.007825032230
         H           -2.706524735894    -1.613409774390     0.410121336531     1.007825032230
         H           -3.691399735894    -0.514615774390    -0.671970663469     1.007825032230
         H            1.999798264106    -1.558424774390    -0.624439663469     1.007825032230
         H            1.767850264106    -1.330701774390     1.092534336531     1.007825032230
         H            3.435138264106     0.529072225610    -0.715246663469     1.007825032230
         H            3.199888264106     0.760284225610     1.016105336531     1.007825032230
         H            4.097357264106    -0.653363774390     0.429610336531     1.007825032230

  Basis Set: AUG-CC-PVTZ
    Blend: AUG-CC-PVTZ
  Basis Set: (AUG-CC-PVTZ AUX)
    Blend: AUG-CC-PVTZ-JKFIT
	 Reference Energy          =    -382.8778602154163764 [Eh]
	 Singles Energy            =      -0.0000000000000000 [Eh]
	 Same-Spin Energy          =      -0.3835697433599153 [Eh]
	 Opposite-Spin Energy      =      -1.2521151834291460 [Eh]
	 Correlation Energy        =      -1.6356849267890614 [Eh]
	 Total Energy              =    -384.5135451422054302 [Eh]

	 ================> DF-SCS-MP2 Energies <==================
	-----------------------------------------------------------
	 SCS Same-Spin Scale       =       0.3333333333333333 [-]
	 SCS Opposite-Spin Scale   =       1.2000000000000000 [-]
	 SCS Same-Spin Energy      =      -0.1278565811199718 [Eh]
	 SCS Opposite-Spin Energy  =      -1.5025382201149751 [Eh]
	 SCS Correlation Energy    =      -1.6303948012349467 [Eh]
	 SCS Total Energy          =    -384.5082550166513329 [Eh]
	-----------------------------------------------------------

  Dipole Moment: [D]
     X:    -0.7620      Y:    -1.6678      Z:     0.4173     Total:     1.8805

*** Psi4 exiting successfully. Buy a developer a beer!
