                               Psi4 1.3.2 release

  ==> Input File <==

--------------------------------------------------------------------------
#psi4
#
memory 32 gb

molecule  {
0 1
  O       -0.3873239    -0.6551554    -0.1945580
  O        0.7644980     1.3096330    -0.3008230
  C       -1.5732990     0.0884110    -0.4535820
  C       -2.3348950     0.5731210     0.7352070
  C       -2.8287970    -0.6125310    -0.0653010
  C        0.7497060     0.1014470    -0.1470330
  C        1.9486320    -0.7720410     0.1304860
  C        3.2415180     0.0282310     0.1994850
  H       -1.5381270     0.6983470    -1.3501410
  H       -2.8570690     1.5207960     0.6581610
  H       -1.9008860     0.3656440     1.7072090
  H       -2.7164270    -1.5934380     0.3831630
  H       -3.7013020    -0.4946440    -0.6989290
  H        1.9898960    -1.5384530    -0.6513980
  H        1.7579480    -1.3107300     1.0655760
  H        3.4252360     0.5490440    -0.7422050
  H        3.1899860     0.7802560     0.9891470
  H        4.0874550    -0.6333920     0.4026520
units angstrom
no_reorient  #important for SAPT in psi4, default
symmetry c1  #important for SAPT in psi4, default
}

set PROPERTIES_ORIGIN ["COM"]
properties('MP2/aug-cc-pvtz', properties = ['dipole'])
--------------------------------------------------------------------------

    Molecular point group: c1
  Charge       = 0
  Multiplicity = 1
  Basis Set: AUG-CC-PVTZ
    Blend: AUG-CC-PVTZ
  Basis Set: (AUG-CC-PVTZ AUX)
    Blend: AUG-CC-PVTZ-JKFIT

    Orbital Energies [Eh]
    ---------------------

    Doubly Occupied:

       1A    -20.605674     2A    -20.545787     3A    -11.380619
       4A    -11.293186     5A    -11.246322     6A    -11.233319
       7A    -11.231334     8A    -11.220963     9A     -1.454629
      10A     -1.356317    11A     -1.145376    12A     -1.060231
      13A     -0.916042    14A     -0.837970    15A     -0.825569
      16A     -0.766044    17A     -0.703409    18A     -0.676819
      19A     -0.672263    20A     -0.640835    21A     -0.609259
      22A     -0.589245    23A     -0.559074    24A     -0.524746
      25A     -0.523369    26A     -0.519493    27A     -0.502464
      28A     -0.483306    29A     -0.452500    30A     -0.428600
      31A     -0.414506

  @DF-RHF Final Energy:  -382.87700535953206

   => Energetics <=

    Nuclear Repulsion Energy =            377.1050208956375513
    One-Electron Energy =               -1269.1255141321930751
    Two-Electron Energy =                 509.1434878770234036
    Total Energy =                       -382.8770053595320633
  Basis Set: (AUG-CC-PVTZ AUX)
    Blend: AUG-CC-PVTZ-RI
    Molecular point group: c1

    Geometry (in Angstrom), charge = 0, multiplicity = 1:

       Center              X                  Y                   Z               Mass
    ------------   -----------------  -----------------  -----------------  -----------------
         O           -0.371697682140    -0.669869740990    -0.182675618587    15.994914619570
         O            0.780124217860     1.294918659010    -0.288940618587    15.994914619570
         C           -1.557672782140     0.073696659010    -0.441699618587    12.000000000000
         C           -2.319268782140     0.558406659010     0.747089381413    12.000000000000
         C           -2.813170782140    -0.627245340990    -0.053418618587    12.000000000000
         C            0.765332217860     0.086732659010    -0.135150618587    12.000000000000
         C            1.964258217860    -0.786755340990     0.142368381413    12.000000000000
         C            3.257144217860     0.013516659010     0.211367381413    12.000000000000
         H           -1.522500782140     0.683632659010    -1.338258618587     1.007825032230
         H           -2.841442782140     1.506081659010     0.670043381413     1.007825032230
         H           -1.885259782140     0.350929659010     1.719091381413     1.007825032230
         H           -2.700800782140    -1.608152340990     0.395045381413     1.007825032230
         H           -3.685675782140    -0.509358340990    -0.687046618587     1.007825032230
         H            2.005522217860    -1.553167340990    -0.639515618587     1.007825032230
         H            1.773574217860    -1.325444340990     1.077458381413     1.007825032230
         H            3.440862217860     0.534329659010    -0.730322618587     1.007825032230
         H            3.205612217860     0.765541659010     1.001029381413     1.007825032230
         H            4.103081217860    -0.648106340990     0.414534381413     1.007825032230

  Basis Set: AUG-CC-PVTZ
    Blend: AUG-CC-PVTZ
  Basis Set: (AUG-CC-PVTZ AUX)
    Blend: AUG-CC-PVTZ-JKFIT
	 Reference Energy          =    -382.8770053595320633 [Eh]
	 Singles Energy            =      -0.0000000000000000 [Eh]
	 Same-Spin Energy          =      -0.3844468196936568 [Eh]
	 Opposite-Spin Energy      =      -1.2542709340186060 [Eh]
	 Correlation Energy        =      -1.6387177537122628 [Eh]
	 Total Energy              =    -384.5157231132443485 [Eh]

	 ================> DF-SCS-MP2 Energies <==================
	-----------------------------------------------------------
	 SCS Same-Spin Scale       =       0.3333333333333333 [-]
	 SCS Opposite-Spin Scale   =       1.2000000000000000 [-]
	 SCS Same-Spin Energy      =      -0.1281489398978856 [Eh]
	 SCS Opposite-Spin Energy  =      -1.5051251208223271 [Eh]
	 SCS Correlation Energy    =      -1.6332740607202128 [Eh]
	 SCS Total Energy          =    -384.5102794202522887 [Eh]
	-----------------------------------------------------------

  Dipole Moment: [D]
     X:    -0.4487      Y:    -1.5055      Z:     0.2701     Total:     1.5940

*** Psi4 exiting successfully. Buy a developer a beer!
