                               Psi4 1.3.2 release

  ==> Input File <==

--------------------------------------------------------------------------
#psi4
#
memory 32 gb

molecule  {
0 1
  O       -0.3837350    -0.6575400    -0.2190270
  O        0.7644980     1.3096330    -0.3008230
  C       -1.5732990     0.0884110    -0.4535820
  C       -2.3348950     0.5731210     0.7352070
  C       -2.8287970    -0.6125310    -0.0653010
  C        0.7497060     0.1014470    -0.1470330
  C        1.9486320    -0.7720410     0.1304860
  C        3.2415180     0.0282310     0.1994850
  H       -1.5381270     0.6983470    -1.3501410
  H       -2.8570690     1.5207960     0.6581610
  H       -1.9008860     0.3656440     1.7072090
  H       -2.7164270    -1.5934380     0.3831630
  H       -3.7013020    -0.4946440    -0.6989290
  H        1.9898960    -1.5384530    -0.6513980
  H        1.7579480    -1.3107300     1.0655760
  H        3.4252360     0.5490440    -0.7422050
  H        3.1899860     0.7802560     0.9891470
  H        4.0874550    -0.6333920     0.4026520
units angstrom
no_reorient  #important for SAPT in psi4, default
symmetry c1  #important for SAPT in psi4, default
}

set PROPERTIES_ORIGIN ["COM"]
properties('MP2/aug-cc-pvtz', properties = ['dipole'])
--------------------------------------------------------------------------

    Molecular point group: c1
  Charge       = 0
  Multiplicity = 1
  Basis Set: AUG-CC-PVTZ
    Blend: AUG-CC-PVTZ
  Basis Set: (AUG-CC-PVTZ AUX)
    Blend: AUG-CC-PVTZ-JKFIT

    Orbital Energies [Eh]
    ---------------------

    Doubly Occupied:

       1A    -20.605669     2A    -20.545621     3A    -11.380479
       4A    -11.293176     5A    -11.246277     6A    -11.233445
       7A    -11.232019     8A    -11.220925     9A     -1.454683
      10A     -1.356144    11A     -1.145572    12A     -1.060259
      13A     -0.916342    14A     -0.838335    15A     -0.825735
      16A     -0.765074    17A     -0.703370    18A     -0.677124
      19A     -0.672758    20A     -0.641248    21A     -0.609363
      22A     -0.589251    23A     -0.558648    24A     -0.524723
      25A     -0.523200    26A     -0.519403    27A     -0.502376
      28A     -0.482770    29A     -0.452401    30A     -0.428695
      31A     -0.415511

  @DF-RHF Final Energy:  -382.87717314624541

   => Energetics <=

    Nuclear Repulsion Energy =            377.0319780475518314
    One-Electron Energy =               -1268.9771147272122107
    Two-Electron Energy =                 509.0679635334150248
    Total Energy =                       -382.8771731462454113
  Basis Set: (AUG-CC-PVTZ AUX)
    Blend: AUG-CC-PVTZ-RI
    Molecular point group: c1

    Geometry (in Angstrom), charge = 0, multiplicity = 1:

       Center              X                  Y                   Z               Mass
    ------------   -----------------  -----------------  -----------------  -----------------
         O           -0.368612026775    -0.671919966347    -0.203713513519    15.994914619570
         O            0.779620973225     1.295253033653    -0.285509513519    15.994914619570
         C           -1.558176026775     0.074031033653    -0.438268513519    12.000000000000
         C           -2.319772026775     0.558741033653     0.750520486481    12.000000000000
         C           -2.813674026775    -0.626910966347    -0.049987513519    12.000000000000
         C            0.764828973225     0.087067033653    -0.131719513519    12.000000000000
         C            1.963754973225    -0.786420966347     0.145799486481    12.000000000000
         C            3.256640973225     0.013851033653     0.214798486481    12.000000000000
         H           -1.523004026775     0.683967033653    -1.334827513519     1.007825032230
         H           -2.841946026775     1.506416033653     0.673474486481     1.007825032230
         H           -1.885763026775     0.351264033653     1.722522486481     1.007825032230
         H           -2.701304026775    -1.607817966347     0.398476486481     1.007825032230
         H           -3.686179026775    -0.509023966347    -0.683615513519     1.007825032230
         H            2.005018973225    -1.552832966347    -0.636084513519     1.007825032230
         H            1.773070973225    -1.325109966347     1.080889486481     1.007825032230
         H            3.440358973225     0.534664033653    -0.726891513519     1.007825032230
         H            3.205108973225     0.765876033653     1.004460486481     1.007825032230
         H            4.102577973225    -0.647771966347     0.417965486481     1.007825032230

  Basis Set: AUG-CC-PVTZ
    Blend: AUG-CC-PVTZ
  Basis Set: (AUG-CC-PVTZ AUX)
    Blend: AUG-CC-PVTZ-JKFIT
	 Reference Energy          =    -382.8771731462454113 [Eh]
	 Singles Energy            =      -0.0000000000000000 [Eh]
	 Same-Spin Energy          =      -0.3844017510372952 [Eh]
	 Opposite-Spin Energy      =      -1.2542137266007569 [Eh]
	 Correlation Energy        =      -1.6386154776380522 [Eh]
	 Total Energy              =    -384.5157886238834521 [Eh]

	 ================> DF-SCS-MP2 Energies <==================
	-----------------------------------------------------------
	 SCS Same-Spin Scale       =       0.3333333333333333 [-]
	 SCS Opposite-Spin Scale   =       1.2000000000000000 [-]
	 SCS Same-Spin Energy      =      -0.1281339170124317 [Eh]
	 SCS Opposite-Spin Energy  =      -1.5050564719209083 [Eh]
	 SCS Correlation Energy    =      -1.6331903889333401 [Eh]
	 SCS Total Energy          =    -384.5103635351787261 [Eh]
	-----------------------------------------------------------

  Dipole Moment: [D]
     X:    -0.4611      Y:    -1.5043      Z:     0.3025     Total:     1.6022

*** Psi4 exiting successfully. Buy a developer a beer!
