                               Psi4 1.3.2 release

  ==> Input File <==

--------------------------------------------------------------------------
#psi4
#
memory 32 gb

molecule  {
0 1
  O       -0.3837350    -0.6575400    -0.2190270
  O        0.7644980     1.3096330    -0.3008230
  C       -1.5863729     0.0672882    -0.4531376
  C       -2.3348950     0.5731210     0.7352070
  C       -2.8287970    -0.6125310    -0.0653010
  C        0.7497060     0.1014470    -0.1470330
  C        1.9486320    -0.7720410     0.1304860
  C        3.2415180     0.0282310     0.1994850
  H       -1.5381270     0.6983470    -1.3501410
  H       -2.8570690     1.5207960     0.6581610
  H       -1.9008860     0.3656440     1.7072090
  H       -2.7164270    -1.5934380     0.3831630
  H       -3.7013020    -0.4946440    -0.6989290
  H        1.9898960    -1.5384530    -0.6513980
  H        1.7579480    -1.3107300     1.0655760
  H        3.4252360     0.5490440    -0.7422050
  H        3.1899860     0.7802560     0.9891470
  H        4.0874550    -0.6333920     0.4026520
units angstrom
no_reorient  #important for SAPT in psi4, default
symmetry c1  #important for SAPT in psi4, default
}

set PROPERTIES_ORIGIN ["COM"]
properties('MP2/aug-cc-pvtz', properties = ['dipole'])
--------------------------------------------------------------------------

    Molecular point group: c1
  Charge       = 0
  Multiplicity = 1
  Basis Set: AUG-CC-PVTZ
    Blend: AUG-CC-PVTZ
  Basis Set: (AUG-CC-PVTZ AUX)
    Blend: AUG-CC-PVTZ-JKFIT

    Orbital Energies [Eh]
    ---------------------

    Doubly Occupied:

       1A    -20.604896     2A    -20.545371     3A    -11.380627
       4A    -11.293577     5A    -11.246309     6A    -11.233644
       7A    -11.230937     8A    -11.220898     9A     -1.453851
      10A     -1.355902    11A     -1.149756    12A     -1.060336
      13A     -0.916531    14A     -0.839654    15A     -0.824907
      16A     -0.763710    17A     -0.703391    18A     -0.676399
      19A     -0.674037    20A     -0.641849    21A     -0.608733
      22A     -0.589251    23A     -0.557090    24A     -0.524745
      25A     -0.522905    26A     -0.518915    27A     -0.502036
      28A     -0.482284    29A     -0.453999    30A     -0.432582
      31A     -0.413005

  @DF-RHF Final Energy:  -382.87685323088260

   => Energetics <=

    Nuclear Repulsion Energy =            377.0539525473647018
    One-Electron Energy =               -1269.0173590321676329
    Two-Electron Energy =                 509.0865532539203286
    Total Energy =                       -382.8768532308826025
  Basis Set: (AUG-CC-PVTZ AUX)
    Blend: AUG-CC-PVTZ-RI
    Molecular point group: c1

    Geometry (in Angstrom), charge = 0, multiplicity = 1:

       Center              X                  Y                   Z               Mass
    ------------   -----------------  -----------------  -----------------  -----------------
         O           -0.367236648137    -0.669697840745    -0.203760264547    15.994914619570
         O            0.780996351863     1.297475159255    -0.285556264547    15.994914619570
         C           -1.569874548137     0.055130359255    -0.437870864547    12.000000000000
         C           -2.318396648137     0.560963159255     0.750473735453    12.000000000000
         C           -2.812298648137    -0.624688840745    -0.050034264547    12.000000000000
         C            0.766204351863     0.089289159255    -0.131766264547    12.000000000000
         C            1.965130351863    -0.784198840745     0.145752735453    12.000000000000
         C            3.258016351863     0.016073159255     0.214751735453    12.000000000000
         H           -1.521628648137     0.686189159255    -1.334874264547     1.007825032230
         H           -2.840570648137     1.508638159255     0.673427735453     1.007825032230
         H           -1.884387648137     0.353486159255     1.722475735453     1.007825032230
         H           -2.699928648137    -1.605595840745     0.398429735453     1.007825032230
         H           -3.684803648137    -0.506801840745    -0.683662264547     1.007825032230
         H            2.006394351863    -1.550610840745    -0.636131264547     1.007825032230
         H            1.774446351863    -1.322887840745     1.080842735453     1.007825032230
         H            3.441734351863     0.536886159255    -0.726938264547     1.007825032230
         H            3.206484351863     0.768098159255     1.004413735453     1.007825032230
         H            4.103953351863    -0.645549840745     0.417918735453     1.007825032230

  Basis Set: AUG-CC-PVTZ
    Blend: AUG-CC-PVTZ
  Basis Set: (AUG-CC-PVTZ AUX)
    Blend: AUG-CC-PVTZ-JKFIT
	 Reference Energy          =    -382.8768532308826025 [Eh]
	 Singles Energy            =      -0.0000000000000000 [Eh]
	 Same-Spin Energy          =      -0.3844202529013481 [Eh]
	 Opposite-Spin Energy      =      -1.2540234834931543 [Eh]
	 Correlation Energy        =      -1.6384437363945024 [Eh]
	 Total Energy              =    -384.5152969672770951 [Eh]

	 ================> DF-SCS-MP2 Energies <==================
	-----------------------------------------------------------
	 SCS Same-Spin Scale       =       0.3333333333333333 [-]
	 SCS Opposite-Spin Scale   =       1.2000000000000000 [-]
	 SCS Same-Spin Energy      =      -0.1281400843004493 [Eh]
	 SCS Opposite-Spin Energy  =      -1.5048281801917851 [Eh]
	 SCS Correlation Energy    =      -1.6329682644922345 [Eh]
	 SCS Total Energy          =    -384.5098214953748652 [Eh]
	-----------------------------------------------------------

  Dipole Moment: [D]
     X:    -0.4850      Y:    -1.5320      Z:     0.2946     Total:     1.6338

*** Psi4 exiting successfully. Buy a developer a beer!
