                               Psi4 1.3.2 release

  ==> Input File <==

--------------------------------------------------------------------------
#psi4
#
memory 32 gb

molecule  {
0 1
  O       -0.3837350    -0.6575400    -0.2190270
  O        0.7644980     1.3096330    -0.3008230
  C       -1.4873934     0.2101561    -0.4547450
  C       -2.3348950     0.5731210     0.7352070
  C       -2.8287970    -0.6125310    -0.0653010
  C        0.7497060     0.1014470    -0.1470330
  C        1.9486320    -0.7720410     0.1304860
  C        3.2415180     0.0282310     0.1994850
  H       -1.5381270     0.6983470    -1.3501410
  H       -2.8570690     1.5207960     0.6581610
  H       -1.9008860     0.3656440     1.7072090
  H       -2.7164270    -1.5934380     0.3831630
  H       -3.7013020    -0.4946440    -0.6989290
  H        1.9898960    -1.5384530    -0.6513980
  H        1.7579480    -1.3107300     1.0655760
  H        3.4252360     0.5490440    -0.7422050
  H        3.1899860     0.7802560     0.9891470
  H        4.0874550    -0.6333920     0.4026520
units angstrom
no_reorient  #important for SAPT in psi4, default
symmetry c1  #important for SAPT in psi4, default
}

set PROPERTIES_ORIGIN ["COM"]
properties('MP2/aug-cc-pvtz', properties = ['dipole'])
--------------------------------------------------------------------------

    Molecular point group: c1
  Charge       = 0
  Multiplicity = 1
  Basis Set: AUG-CC-PVTZ
    Blend: AUG-CC-PVTZ
  Basis Set: (AUG-CC-PVTZ AUX)
    Blend: AUG-CC-PVTZ-JKFIT

    Orbital Energies [Eh]
    ---------------------

    Doubly Occupied:

       1A    -20.611233     2A    -20.547911     3A    -11.380656
       4A    -11.294296     5A    -11.246508     6A    -11.239867
       7A    -11.231645     8A    -11.221365     9A     -1.460949
      10A     -1.358492    11A     -1.122132    12A     -1.059924
      13A     -0.915861    14A     -0.834346    15A     -0.830260
      16A     -0.771582    17A     -0.704007    18A     -0.683046
      19A     -0.666772    20A     -0.636091    21A     -0.612043
      22A     -0.589717    23A     -0.568721    24A     -0.527379
      25A     -0.523979    26A     -0.519453    27A     -0.504373
      28A     -0.486287    29A     -0.451770    30A     -0.437279
      31A     -0.384824

  @DF-RHF Final Energy:  -382.85857828232213

   => Energetics <=

    Nuclear Repulsion Energy =            376.9063173659475865
    One-Electron Energy =               -1268.6842537993636597
    Two-Electron Energy =                 508.9193581510938884
    Total Energy =                       -382.8585782823221280
  Basis Set: (AUG-CC-PVTZ AUX)
    Blend: AUG-CC-PVTZ-RI
    Molecular point group: c1

    Geometry (in Angstrom), charge = 0, multiplicity = 1:

       Center              X                  Y                   Z               Mass
    ------------   -----------------  -----------------  -----------------  -----------------
         O           -0.377649324536    -0.684727591457    -0.203591165531    15.994914619570
         O            0.770583675464     1.282445408543    -0.285387165531    15.994914619570
         C           -1.481307724536     0.182968508543    -0.439309165531    12.000000000000
         C           -2.328809324536     0.545933408543     0.750642834469    12.000000000000
         C           -2.822711324536    -0.639718591457    -0.049865165531    12.000000000000
         C            0.755791675464     0.074259408543    -0.131597165531    12.000000000000
         C            1.954717675464    -0.799228591457     0.145921834469    12.000000000000
         C            3.247603675464     0.001043408543     0.214920834469    12.000000000000
         H           -1.532041324536     0.671159408543    -1.334705165531     1.007825032230
         H           -2.850983324536     1.493608408543     0.673596834469     1.007825032230
         H           -1.894800324536     0.338456408543     1.722644834469     1.007825032230
         H           -2.710341324536    -1.620625591457     0.398598834469     1.007825032230
         H           -3.695216324536    -0.521831591457    -0.683493165531     1.007825032230
         H            1.995981675464    -1.565640591457    -0.635962165531     1.007825032230
         H            1.764033675464    -1.337917591457     1.081011834469     1.007825032230
         H            3.431321675464     0.521856408543    -0.726769165531     1.007825032230
         H            3.196071675464     0.753068408543     1.004582834469     1.007825032230
         H            4.093540675464    -0.660579591457     0.418087834469     1.007825032230

  Basis Set: AUG-CC-PVTZ
    Blend: AUG-CC-PVTZ
  Basis Set: (AUG-CC-PVTZ AUX)
    Blend: AUG-CC-PVTZ-JKFIT
	 Reference Energy          =    -382.8585782823221280 [Eh]
	 Singles Energy            =      -0.0000000000000000 [Eh]
	 Same-Spin Energy          =      -0.3852118794902181 [Eh]
	 Opposite-Spin Energy      =      -1.2572652001538052 [Eh]
	 Correlation Energy        =      -1.6424770796440233 [Eh]
	 Total Energy              =    -384.5010553619661664 [Eh]

	 ================> DF-SCS-MP2 Energies <==================
	-----------------------------------------------------------
	 SCS Same-Spin Scale       =       0.3333333333333333 [-]
	 SCS Opposite-Spin Scale   =       1.2000000000000000 [-]
	 SCS Same-Spin Energy      =      -0.1284039598300727 [Eh]
	 SCS Opposite-Spin Energy  =      -1.5087182401845662 [Eh]
	 SCS Correlation Energy    =      -1.6371222000146388 [Eh]
	 SCS Total Energy          =    -384.4957004823367583 [Eh]
	-----------------------------------------------------------

  Dipole Moment: [D]
     X:    -0.2817      Y:    -1.3664      Z:     0.3491     Total:     1.4381

*** Psi4 exiting successfully. Buy a developer a beer!
