                               Psi4 1.3.2 release

  ==> Input File <==

--------------------------------------------------------------------------
#psi4
#
memory 32 gb

molecule  {
0 1
  O       -0.4045365    -0.6761277    -0.1779077
  O        0.7644980     1.3096330    -0.3008230
  C       -1.5732990     0.0884110    -0.4535820
  C       -2.3348950     0.5731210     0.7352070
  C       -2.8287970    -0.6125310    -0.0653010
  C        0.7497060     0.1014470    -0.1470330
  C        1.9486320    -0.7720410     0.1304860
  C        3.2415180     0.0282310     0.1994850
  H       -1.5381270     0.6983470    -1.3501410
  H       -2.8570690     1.5207960     0.6581610
  H       -1.9008860     0.3656440     1.7072090
  H       -2.7164270    -1.5934380     0.3831630
  H       -3.7013020    -0.4946440    -0.6989290
  H        1.9898960    -1.5384530    -0.6513980
  H        1.7579480    -1.3107300     1.0655760
  H        3.4252360     0.5490440    -0.7422050
  H        3.1899860     0.7802560     0.9891470
  H        4.0874550    -0.6333920     0.4026520
units angstrom
no_reorient  #important for SAPT in psi4, default
symmetry c1  #important for SAPT in psi4, default
}

set PROPERTIES_ORIGIN ["COM"]
properties('MP2/aug-cc-pvtz', properties = ['dipole'])
--------------------------------------------------------------------------

    Molecular point group: c1
  Charge       = 0
  Multiplicity = 1
  Basis Set: AUG-CC-PVTZ
    Blend: AUG-CC-PVTZ
  Basis Set: (AUG-CC-PVTZ AUX)
    Blend: AUG-CC-PVTZ-JKFIT

    Orbital Energies [Eh]
    ---------------------

    Doubly Occupied:

       1A    -20.604979     2A    -20.550905     3A    -11.384090
       4A    -11.291385     5A    -11.247515     6A    -11.231383
       7A    -11.229944     8A    -11.221923     9A     -1.447822
      10A     -1.358101    11A     -1.142651    12A     -1.061032
      13A     -0.914153    14A     -0.836286    15A     -0.822253
      16A     -0.765244    17A     -0.704413    18A     -0.674881
      19A     -0.669527    20A     -0.639983    21A     -0.610265
      22A     -0.587237    23A     -0.558597    24A     -0.525634
      25A     -0.524165    26A     -0.519807    27A     -0.503371
      28A     -0.486492    29A     -0.454458    30A     -0.426154
      31A     -0.412709

  @DF-RHF Final Energy:  -382.87410553735191

   => Energetics <=

    Nuclear Repulsion Energy =            376.5994875185631940
    One-Electron Energy =               -1268.1324603890554954
    Two-Electron Energy =                 508.6588673331404493
    Total Energy =                       -382.8741055373519089
  Basis Set: (AUG-CC-PVTZ AUX)
    Blend: AUG-CC-PVTZ-RI
    Molecular point group: c1

    Geometry (in Angstrom), charge = 0, multiplicity = 1:

       Center              X                  Y                   Z               Mass
    ------------   -----------------  -----------------  -----------------  -----------------
         O           -0.386496687834    -0.687901252041    -0.168360065765    15.994914619570
         O            0.782537812166     1.297859447959    -0.291275365765    15.994914619570
         C           -1.555259187834     0.076637447959    -0.444034365765    12.000000000000
         C           -2.316855187834     0.561347447959     0.744754634235    12.000000000000
         C           -2.810757187834    -0.624304552041    -0.055753365765    12.000000000000
         C            0.767745812166     0.089673447959    -0.137485365765    12.000000000000
         C            1.966671812166    -0.783814552041     0.140033634235    12.000000000000
         C            3.259557812166     0.016457447959     0.209032634235    12.000000000000
         H           -1.520087187834     0.686573447959    -1.340593365765     1.007825032230
         H           -2.839029187834     1.509022447959     0.667708634235     1.007825032230
         H           -1.882846187834     0.353870447959     1.716756634235     1.007825032230
         H           -2.698387187834    -1.605211552041     0.392710634235     1.007825032230
         H           -3.683262187834    -0.506417552041    -0.689381365765     1.007825032230
         H            2.007935812166    -1.550226552041    -0.641850365765     1.007825032230
         H            1.775987812166    -1.322503552041     1.075123634235     1.007825032230
         H            3.443275812166     0.537270447959    -0.732657365765     1.007825032230
         H            3.208025812166     0.768482447959     0.998694634235     1.007825032230
         H            4.105494812166    -0.645165552041     0.412199634235     1.007825032230

  Basis Set: AUG-CC-PVTZ
    Blend: AUG-CC-PVTZ
  Basis Set: (AUG-CC-PVTZ AUX)
    Blend: AUG-CC-PVTZ-JKFIT
	 Reference Energy          =    -382.8741055373519089 [Eh]
	 Singles Energy            =      -0.0000000000000000 [Eh]
	 Same-Spin Energy          =      -0.3849233671152151 [Eh]
	 Opposite-Spin Energy      =      -1.2555333684438368 [Eh]
	 Correlation Energy        =      -1.6404567355590518 [Eh]
	 Total Energy              =    -384.5145622729109505 [Eh]

	 ================> DF-SCS-MP2 Energies <==================
	-----------------------------------------------------------
	 SCS Same-Spin Scale       =       0.3333333333333333 [-]
	 SCS Opposite-Spin Scale   =       1.2000000000000000 [-]
	 SCS Same-Spin Energy      =      -0.1283077890384050 [Eh]
	 SCS Opposite-Spin Energy  =      -1.5066400421326041 [Eh]
	 SCS Correlation Energy    =      -1.6349478311710091 [Eh]
	 SCS Total Energy          =    -384.5090533685229275 [Eh]
	-----------------------------------------------------------

  Dipole Moment: [D]
     X:    -0.2878      Y:    -1.4201      Z:     0.2432     Total:     1.4693

*** Psi4 exiting successfully. Buy a developer a beer!
