                               Psi4 1.3.2 release

  ==> Input File <==

--------------------------------------------------------------------------
#psi4
#
memory 32 gb

molecule  {
0 1
  O       -0.3837350    -0.6575400    -0.2190270
  O        0.7644980     1.3096330    -0.3008230
  C       -1.4061737    -0.0163898    -0.4206287
  C       -2.3348950     0.5731210     0.7352070
  C       -2.8287970    -0.6125310    -0.0653010
  C        0.7497060     0.1014470    -0.1470330
  C        1.9486320    -0.7720410     0.1304860
  C        3.2415180     0.0282310     0.1994850
  H       -1.5381270     0.6983470    -1.3501410
  H       -2.8570690     1.5207960     0.6581610
  H       -1.9008860     0.3656440     1.7072090
  H       -2.7164270    -1.5934380     0.3831630
  H       -3.7013020    -0.4946440    -0.6989290
  H        1.9898960    -1.5384530    -0.6513980
  H        1.7579480    -1.3107300     1.0655760
  H        3.4252360     0.5490440    -0.7422050
  H        3.1899860     0.7802560     0.9891470
  H        4.0874550    -0.6333920     0.4026520
units angstrom
no_reorient  #important for SAPT in psi4, default
symmetry c1  #important for SAPT in psi4, default
}

set PROPERTIES_ORIGIN ["COM"]
properties('MP2/aug-cc-pvtz', properties = ['dipole'])
--------------------------------------------------------------------------

    Molecular point group: c1
  Charge       = 0
  Multiplicity = 1
  Basis Set: AUG-CC-PVTZ
    Blend: AUG-CC-PVTZ
  Basis Set: (AUG-CC-PVTZ AUX)
    Blend: AUG-CC-PVTZ-JKFIT

    Orbital Energies [Eh]
    ---------------------

    Doubly Occupied:

       1A    -20.625079     2A    -20.560709     3A    -11.394305
       4A    -11.296528     5A    -11.255021     6A    -11.229280
       7A    -11.227070     8A    -11.225919     9A     -1.528471
      10A     -1.386144    11A     -1.109466    12A     -1.067826
      13A     -0.951423    14A     -0.851074    15A     -0.821061
      16A     -0.768921    17A     -0.717699    18A     -0.702465
      19A     -0.687294    20A     -0.639842    21A     -0.617734
      22A     -0.605854    23A     -0.547574    24A     -0.538068
      25A     -0.530529    26A     -0.515138    27A     -0.510865
      28A     -0.496432    29A     -0.463473    30A     -0.404225
      31A     -0.363352

  @DF-RHF Final Energy:  -382.82714145599687

   => Energetics <=

    Nuclear Repulsion Energy =            379.4956491339382865
    One-Electron Energy =               -1273.3679006501108688
    Two-Electron Energy =                 511.0451100601757162
    Total Energy =                       -382.8271414559968662
  Basis Set: (AUG-CC-PVTZ AUX)
    Blend: AUG-CC-PVTZ-RI
    Molecular point group: c1

    Geometry (in Angstrom), charge = 0, multiplicity = 1:

       Center              X                  Y                   Z               Mass
    ------------   -----------------  -----------------  -----------------  -----------------
         O           -0.386193664055    -0.660894887247    -0.207180211666    15.994914619570
         O            0.762039335945     1.306278112753    -0.288976211666    15.994914619570
         C           -1.408632364055    -0.019744687247    -0.408781911666    12.000000000000
         C           -2.337353664055     0.569766112753     0.747053788334    12.000000000000
         C           -2.831255664055    -0.615885887247    -0.053454211666    12.000000000000
         C            0.747247335945     0.098092112753    -0.135186211666    12.000000000000
         C            1.946173335945    -0.775395887247     0.142332788334    12.000000000000
         C            3.239059335945     0.024876112753     0.211331788334    12.000000000000
         H           -1.540585664055     0.694992112753    -1.338294211666     1.007825032230
         H           -2.859527664055     1.517441112753     0.670007788334     1.007825032230
         H           -1.903344664055     0.362289112753     1.719055788334     1.007825032230
         H           -2.718885664055    -1.596792887247     0.395009788334     1.007825032230
         H           -3.703760664055    -0.497998887247    -0.687082211666     1.007825032230
         H            1.987437335945    -1.541807887247    -0.639551211666     1.007825032230
         H            1.755489335945    -1.314084887247     1.077422788334     1.007825032230
         H            3.422777335945     0.545689112753    -0.730358211666     1.007825032230
         H            3.187527335945     0.776901112753     1.000993788334     1.007825032230
         H            4.084996335945    -0.636746887247     0.414498788334     1.007825032230

  Basis Set: AUG-CC-PVTZ
    Blend: AUG-CC-PVTZ
  Basis Set: (AUG-CC-PVTZ AUX)
    Blend: AUG-CC-PVTZ-JKFIT
	 Reference Energy          =    -382.8271414559968662 [Eh]
	 Singles Energy            =      -0.0000000000000000 [Eh]
	 Same-Spin Energy          =      -0.3861355318419130 [Eh]
	 Opposite-Spin Energy      =      -1.2563247784264826 [Eh]
	 Correlation Energy        =      -1.6424603102683957 [Eh]
	 Total Energy              =    -384.4696017662652707 [Eh]

	 ================> DF-SCS-MP2 Energies <==================
	-----------------------------------------------------------
	 SCS Same-Spin Scale       =       0.3333333333333333 [-]
	 SCS Opposite-Spin Scale   =       1.2000000000000000 [-]
	 SCS Same-Spin Energy      =      -0.1287118439473043 [Eh]
	 SCS Opposite-Spin Energy  =      -1.5075897341117790 [Eh]
	 SCS Correlation Energy    =      -1.6363015780590833 [Eh]
	 SCS Total Energy          =    -384.4634430340559561 [Eh]
	-----------------------------------------------------------

  Dipole Moment: [D]
     X:     0.5074      Y:    -1.7029      Z:     0.3346     Total:     1.8081

*** Psi4 exiting successfully. Buy a developer a beer!
