                               Psi4 1.3.2 release

  ==> Input File <==

--------------------------------------------------------------------------
#psi4
#
memory 32 gb

molecule  {
0 1
  O       -0.3837350    -0.6575400    -0.2190270
  O        0.7644980     1.3096330    -0.3008230
  C       -1.4897363     0.0360106    -0.4371053
  C       -2.3348950     0.5731210     0.7352070
  C       -2.8287970    -0.6125310    -0.0653010
  C        0.7497060     0.1014470    -0.1470330
  C        1.9486320    -0.7720410     0.1304860
  C        3.2415180     0.0282310     0.1994850
  H       -1.5381270     0.6983470    -1.3501410
  H       -2.8570690     1.5207960     0.6581610
  H       -1.9008860     0.3656440     1.7072090
  H       -2.7164270    -1.5934380     0.3831630
  H       -3.7013020    -0.4946440    -0.6989290
  H        1.9898960    -1.5384530    -0.6513980
  H        1.7579480    -1.3107300     1.0655760
  H        3.4252360     0.5490440    -0.7422050
  H        3.1899860     0.7802560     0.9891470
  H        4.0874550    -0.6333920     0.4026520
units angstrom
no_reorient  #important for SAPT in psi4, default
symmetry c1  #important for SAPT in psi4, default
}

set PROPERTIES_ORIGIN ["COM"]
properties('MP2/aug-cc-pvtz', properties = ['dipole'])
--------------------------------------------------------------------------

    Molecular point group: c1
  Charge       = 0
  Multiplicity = 1
  Basis Set: AUG-CC-PVTZ
    Blend: AUG-CC-PVTZ
  Basis Set: (AUG-CC-PVTZ AUX)
    Blend: AUG-CC-PVTZ-JKFIT

    Orbital Energies [Eh]
    ---------------------

    Doubly Occupied:

       1A    -20.615441     2A    -20.552644     3A    -11.387168
       4A    -11.293325     5A    -11.250458     6A    -11.231397
       7A    -11.229248     8A    -11.223876     9A     -1.484834
      10A     -1.371565    11A     -1.125819    12A     -1.064749
      13A     -0.931571    14A     -0.840532    15A     -0.825212
      16A     -0.766294    17A     -0.709286    18A     -0.687616
      19A     -0.679800    20A     -0.640008    21A     -0.609455
      22A     -0.599299    23A     -0.555310    24A     -0.531339
      25A     -0.526764    26A     -0.518355    27A     -0.506858
      28A     -0.489565    29A     -0.456743    30A     -0.419374
      31A     -0.391694

  @DF-RHF Final Energy:  -382.86661620933876

   => Energetics <=

    Nuclear Repulsion Energy =            378.1604277292015581
    One-Electron Energy =               -1271.0228872089699053
    Two-Electron Energy =                 509.9958432704296456
    Total Energy =                       -382.8666162093387584
  Basis Set: (AUG-CC-PVTZ AUX)
    Blend: AUG-CC-PVTZ-RI
    Molecular point group: c1

    Geometry (in Angstrom), charge = 0, multiplicity = 1:

       Center              X                  Y                   Z               Mass
    ------------   -----------------  -----------------  -----------------  -----------------
         O           -0.377402850675    -0.666407426797    -0.205446867852    15.994914619570
         O            0.770830149325     1.300765573203    -0.287242867852    15.994914619570
         C           -1.483404150675     0.027143173203    -0.423525167852    12.000000000000
         C           -2.328562850675     0.564253573203     0.748787132148    12.000000000000
         C           -2.822464850675    -0.621398426797    -0.051720867852    12.000000000000
         C            0.756038149325     0.092579573203    -0.133452867852    12.000000000000
         C            1.954964149325    -0.780908426797     0.144066132148    12.000000000000
         C            3.247850149325     0.019363573203     0.213065132148    12.000000000000
         H           -1.531794850675     0.689479573203    -1.336560867852     1.007825032230
         H           -2.850736850675     1.511928573203     0.671741132148     1.007825032230
         H           -1.894553850675     0.356776573203     1.720789132148     1.007825032230
         H           -2.710094850675    -1.602305426797     0.396743132148     1.007825032230
         H           -3.694969850675    -0.503511426797    -0.685348867852     1.007825032230
         H            1.996228149325    -1.547320426797    -0.637817867852     1.007825032230
         H            1.764280149325    -1.319597426797     1.079156132148     1.007825032230
         H            3.431568149325     0.540176573203    -0.728624867852     1.007825032230
         H            3.196318149325     0.771388573203     1.002727132148     1.007825032230
         H            4.093787149325    -0.642259426797     0.416232132148     1.007825032230

  Basis Set: AUG-CC-PVTZ
    Blend: AUG-CC-PVTZ
  Basis Set: (AUG-CC-PVTZ AUX)
    Blend: AUG-CC-PVTZ-JKFIT
	 Reference Energy          =    -382.8666162093387584 [Eh]
	 Singles Energy            =      -0.0000000000000000 [Eh]
	 Same-Spin Energy          =      -0.3847864435364234 [Eh]
	 Opposite-Spin Energy      =      -1.2544046613953146 [Eh]
	 Correlation Energy        =      -1.6391911049317380 [Eh]
	 Total Energy              =    -384.5058073142704984 [Eh]

	 ================> DF-SCS-MP2 Energies <==================
	-----------------------------------------------------------
	 SCS Same-Spin Scale       =       0.3333333333333333 [-]
	 SCS Opposite-Spin Scale   =       1.2000000000000000 [-]
	 SCS Same-Spin Energy      =      -0.1282621478454745 [Eh]
	 SCS Opposite-Spin Energy  =      -1.5052855936743774 [Eh]
	 SCS Correlation Energy    =      -1.6335477415198518 [Eh]
	 SCS Total Energy          =    -384.5001639508586209 [Eh]
	-----------------------------------------------------------

  Dipole Moment: [D]
     X:    -0.0109      Y:    -1.5916      Z:     0.3124     Total:     1.6221

*** Psi4 exiting successfully. Buy a developer a beer!
