                               Psi4 1.3.2 release

  ==> Input File <==

--------------------------------------------------------------------------
#psi4
#
memory 32 gb

molecule  {
0 1
  O       -0.3643828    -0.6380435    -0.2604321
  O        0.7644980     1.3096330    -0.3008230
  C       -1.5732990     0.0884110    -0.4535820
  C       -2.3348950     0.5731210     0.7352070
  C       -2.8287970    -0.6125310    -0.0653010
  C        0.7497060     0.1014470    -0.1470330
  C        1.9486320    -0.7720410     0.1304860
  C        3.2415180     0.0282310     0.1994850
  H       -1.5381270     0.6983470    -1.3501410
  H       -2.8570690     1.5207960     0.6581610
  H       -1.9008860     0.3656440     1.7072090
  H       -2.7164270    -1.5934380     0.3831630
  H       -3.7013020    -0.4946440    -0.6989290
  H        1.9898960    -1.5384530    -0.6513980
  H        1.7579480    -1.3107300     1.0655760
  H        3.4252360     0.5490440    -0.7422050
  H        3.1899860     0.7802560     0.9891470
  H        4.0874550    -0.6333920     0.4026520
units angstrom
no_reorient  #important for SAPT in psi4, default
symmetry c1  #important for SAPT in psi4, default
}

set PROPERTIES_ORIGIN ["COM"]
properties('MP2/aug-cc-pvtz', properties = ['dipole'])
--------------------------------------------------------------------------

    Molecular point group: c1
  Charge       = 0
  Multiplicity = 1
  Basis Set: AUG-CC-PVTZ
    Blend: AUG-CC-PVTZ
  Basis Set: (AUG-CC-PVTZ AUX)
    Blend: AUG-CC-PVTZ-JKFIT

    Orbital Energies [Eh]
    ---------------------

    Doubly Occupied:

       1A    -20.605982     2A    -20.540466     3A    -11.376991
       4A    -11.294893     5A    -11.245225     6A    -11.235420
       7A    -11.234026     8A    -11.220033     9A     -1.461851
      10A     -1.353731    11A     -1.148220    12A     -1.059620
      13A     -0.918845    14A     -0.840436    15A     -0.828968
      16A     -0.764579    17A     -0.702527    18A     -0.679627
      19A     -0.675475    20A     -0.642558    21A     -0.608363
      22A     -0.591125    23A     -0.558583    24A     -0.525472
      25A     -0.522351    26A     -0.517113    27A     -0.501520
      28A     -0.479093    29A     -0.450234    30A     -0.430845
      31A     -0.418125

  @DF-RHF Final Energy:  -382.87841750779023

   => Energetics <=

    Nuclear Repulsion Energy =            377.4434780150343727
    One-Electron Energy =               -1269.7791964682869548
    Two-Electron Energy =                 509.4573009454624071
    Total Energy =                       -382.8784175077902319
  Basis Set: (AUG-CC-PVTZ AUX)
    Blend: AUG-CC-PVTZ-RI
    Molecular point group: c1

    Geometry (in Angstrom), charge = 0, multiplicity = 1:

       Center              X                  Y                   Z               Mass
    ------------   -----------------  -----------------  -----------------  -----------------
         O           -0.351973441205    -0.655157314888    -0.239312685674    15.994914619570
         O            0.776907358795     1.292519185112    -0.279703585674    15.994914619570
         C           -1.560889641205     0.071297185112    -0.432462585674    12.000000000000
         C           -2.322485641205     0.556007185112     0.756326414326    12.000000000000
         C           -2.816387641205    -0.629644814888    -0.044181585674    12.000000000000
         C            0.762115358795     0.084333185112    -0.125913585674    12.000000000000
         C            1.961041358795    -0.789154814888     0.151605414326    12.000000000000
         C            3.253927358795     0.011117185112     0.220604414326    12.000000000000
         H           -1.525717641205     0.681233185112    -1.329021585674     1.007825032230
         H           -2.844659641205     1.503682185112     0.679280414326     1.007825032230
         H           -1.888476641205     0.348530185112     1.728328414326     1.007825032230
         H           -2.704017641205    -1.610551814888     0.404282414326     1.007825032230
         H           -3.688892641205    -0.511757814888    -0.677809585674     1.007825032230
         H            2.002305358795    -1.555566814888    -0.630278585674     1.007825032230
         H            1.770357358795    -1.327843814888     1.086695414326     1.007825032230
         H            3.437645358795     0.531930185112    -0.721085585674     1.007825032230
         H            3.202395358795     0.763142185112     1.010266414326     1.007825032230
         H            4.099864358795    -0.650505814888     0.423771414326     1.007825032230

  Basis Set: AUG-CC-PVTZ
    Blend: AUG-CC-PVTZ
  Basis Set: (AUG-CC-PVTZ AUX)
    Blend: AUG-CC-PVTZ-JKFIT
	 Reference Energy          =    -382.8784175077902319 [Eh]
	 Singles Energy            =      -0.0000000000000000 [Eh]
	 Same-Spin Energy          =      -0.3839509806474421 [Eh]
	 Opposite-Spin Energy      =      -1.2530736541025957 [Eh]
	 Correlation Energy        =      -1.6370246347500379 [Eh]
	 Total Energy              =    -384.5154421425402802 [Eh]

	 ================> DF-SCS-MP2 Energies <==================
	-----------------------------------------------------------
	 SCS Same-Spin Scale       =       0.3333333333333333 [-]
	 SCS Opposite-Spin Scale   =       1.2000000000000000 [-]
	 SCS Same-Spin Energy      =      -0.1279836602158140 [Eh]
	 SCS Opposite-Spin Energy  =      -1.5036883849231149 [Eh]
	 SCS Correlation Energy    =      -1.6316720451389288 [Eh]
	 SCS Total Energy          =    -384.5100895529291734 [Eh]
	-----------------------------------------------------------

  Dipole Moment: [D]
     X:    -0.6196      Y:    -1.5872      Z:     0.3605     Total:     1.7416

*** Psi4 exiting successfully. Buy a developer a beer!
