                               Psi4 1.3.2 release

  ==> Input File <==

--------------------------------------------------------------------------
#psi4
#
memory 32 gb

molecule  {
0 1
  O       -0.4106615    -0.6398521    -0.0735447
  O        0.7644980     1.3096330    -0.3008230
  C       -1.5732990     0.0884110    -0.4535820
  C       -2.3348950     0.5731210     0.7352070
  C       -2.8287970    -0.6125310    -0.0653010
  C        0.7497060     0.1014470    -0.1470330
  C        1.9486320    -0.7720410     0.1304860
  C        3.2415180     0.0282310     0.1994850
  H       -1.5381270     0.6983470    -1.3501410
  H       -2.8570690     1.5207960     0.6581610
  H       -1.9008860     0.3656440     1.7072090
  H       -2.7164270    -1.5934380     0.3831630
  H       -3.7013020    -0.4946440    -0.6989290
  H        1.9898960    -1.5384530    -0.6513980
  H        1.7579480    -1.3107300     1.0655760
  H        3.4252360     0.5490440    -0.7422050
  H        3.1899860     0.7802560     0.9891470
  H        4.0874550    -0.6333920     0.4026520
units angstrom
no_reorient  #important for SAPT in psi4, default
symmetry c1  #important for SAPT in psi4, default
}

set PROPERTIES_ORIGIN ["COM"]
properties('MP2/aug-cc-pvtz', properties = ['dipole'])
--------------------------------------------------------------------------

    Molecular point group: c1
  Charge       = 0
  Multiplicity = 1
  Basis Set: AUG-CC-PVTZ
    Blend: AUG-CC-PVTZ
  Basis Set: (AUG-CC-PVTZ AUX)
    Blend: AUG-CC-PVTZ-JKFIT

    Orbital Energies [Eh]
    ---------------------

    Doubly Occupied:

       1A    -20.604415     2A    -20.548203     3A    -11.382517
       4A    -11.292381     5A    -11.247401     6A    -11.232156
       7A    -11.227318     8A    -11.221724     9A     -1.451763
      10A     -1.357209    11A     -1.143189    12A     -1.060634
      13A     -0.913881    14A     -0.835440    15A     -0.823824
      16A     -0.769941    17A     -0.704054    18A     -0.674704
      19A     -0.668570    20A     -0.638111    21A     -0.608592
      22A     -0.589009    23A     -0.561127    24A     -0.526435
      25A     -0.523986    26A     -0.518874    27A     -0.503559
      28A     -0.486674    29A     -0.453326    30A     -0.427152
      31A     -0.408249

  @DF-RHF Final Energy:  -382.87251876425825

   => Energetics <=

    Nuclear Repulsion Energy =            377.2889669081750981
    One-Electron Energy =               -1269.5141340101854439
    Two-Electron Energy =                 509.3526483377521004
    Total Energy =                       -382.8725187642582455
  Basis Set: (AUG-CC-PVTZ AUX)
    Blend: AUG-CC-PVTZ-RI
    Molecular point group: c1

    Geometry (in Angstrom), charge = 0, multiplicity = 1:

       Center              X                  Y                   Z               Mass
    ------------   -----------------  -----------------  -----------------  -----------------
         O           -0.391762824842    -0.656712308422    -0.078631109582    15.994914619570
         O            0.783396675158     1.292772791578    -0.305909409582    15.994914619570
         C           -1.554400324842     0.071550791578    -0.458668409582    12.000000000000
         C           -2.315996324842     0.556260791578     0.730120590418    12.000000000000
         C           -2.809898324842    -0.629391208422    -0.070387409582    12.000000000000
         C            0.768604675158     0.084586791578    -0.152119409582    12.000000000000
         C            1.967530675158    -0.788901208422     0.125399590418    12.000000000000
         C            3.260416675158     0.011370791578     0.194398590418    12.000000000000
         H           -1.519228324842     0.681486791578    -1.355227409582     1.007825032230
         H           -2.838170324842     1.503935791578     0.653074590418     1.007825032230
         H           -1.881987324842     0.348783791578     1.702122590418     1.007825032230
         H           -2.697528324842    -1.610298208422     0.378076590418     1.007825032230
         H           -3.682403324842    -0.511504208422    -0.704015409582     1.007825032230
         H            2.008794675158    -1.555313208422    -0.656484409582     1.007825032230
         H            1.776846675158    -1.327590208422     1.060489590418     1.007825032230
         H            3.444134675158     0.532183791578    -0.747291409582     1.007825032230
         H            3.208884675158     0.763395791578     0.984060590418     1.007825032230
         H            4.106353675158    -0.650252208422     0.397565590418     1.007825032230

  Basis Set: AUG-CC-PVTZ
    Blend: AUG-CC-PVTZ
  Basis Set: (AUG-CC-PVTZ AUX)
    Blend: AUG-CC-PVTZ-JKFIT
	 Reference Energy          =    -382.8725187642582455 [Eh]
	 Singles Energy            =      -0.0000000000000000 [Eh]
	 Same-Spin Energy          =      -0.3848725141826638 [Eh]
	 Opposite-Spin Energy      =      -1.2551425105887382 [Eh]
	 Correlation Energy        =      -1.6400150247714018 [Eh]
	 Total Energy              =    -384.5125337890296464 [Eh]

	 ================> DF-SCS-MP2 Energies <==================
	-----------------------------------------------------------
	 SCS Same-Spin Scale       =       0.3333333333333333 [-]
	 SCS Opposite-Spin Scale   =       1.2000000000000000 [-]
	 SCS Same-Spin Energy      =      -0.1282908380608879 [Eh]
	 SCS Opposite-Spin Energy  =      -1.5061710127064858 [Eh]
	 SCS Correlation Energy    =      -1.6344618507673738 [Eh]
	 SCS Total Energy          =    -384.5069806150256113 [Eh]
	-----------------------------------------------------------

  Dipole Moment: [D]
     X:    -0.3125      Y:    -1.4943      Z:     0.1097     Total:     1.5305

*** Psi4 exiting successfully. Buy a developer a beer!
