                               Psi4 1.4a3.dev225

  ==> Input File <==

--------------------------------------------------------------------------
#psi4
#
memory 32 gb

molecule  {
0 1
  O       -0.3837350    -0.6575400    -0.2190270
  O        0.7644980     1.3096330    -0.3008230
  C       -1.5565865     0.0779309    -0.4502867
  C       -2.3348950     0.5731210     0.7352070
  C       -2.8287970    -0.6125310    -0.0653010
  C        0.7497060     0.1014470    -0.1470330
  C        1.9486320    -0.7720410     0.1304860
  C        3.2415180     0.0282310     0.1994850
  H       -1.5381270     0.6983470    -1.3501410
  H       -2.8570690     1.5207960     0.6581610
  H       -1.9008860     0.3656440     1.7072090
  H       -2.7164270    -1.5934380     0.3831630
  H       -3.7013020    -0.4946440    -0.6989290
  H        1.9898960    -1.5384530    -0.6513980
  H        1.7579480    -1.3107300     1.0655760
  H        3.4252360     0.5490440    -0.7422050
  H        3.1899860     0.7802560     0.9891470
  H        4.0874550    -0.6333920     0.4026520
units angstrom
no_reorient  #important for SAPT in psi4, default
symmetry c1  #important for SAPT in psi4, default
}

set PROPERTIES_ORIGIN ["COM"]
properties('MP2/aug-cc-pvtz', properties = ['dipole'])
--------------------------------------------------------------------------

    Molecular point group: c1
  Charge       = 0
  Multiplicity = 1
  Basis Set: AUG-CC-PVTZ
    Blend: AUG-CC-PVTZ
  Basis Set: (AUG-CC-PVTZ AUX)
    Blend: AUG-CC-PVTZ-JKFIT

    Orbital Energies [Eh]
    ---------------------

    Doubly Occupied:

       1A    -20.607725     2A    -20.546985     3A    -11.381819
       4A    -11.292960     5A    -11.247113     6A    -11.232998
       7A    -11.231459     8A    -11.221516     9A     -1.459854
      10A     -1.359288    11A     -1.141493    12A     -1.061193
      13A     -0.919044    14A     -0.837814    15A     -0.826042
      16A     -0.765498    17A     -0.704399    18A     -0.678994
      19A     -0.673858    20A     -0.640996    21A     -0.608914
      22A     -0.591280    23A     -0.558601    24A     -0.525073
      25A     -0.524135    26A     -0.520090    27A     -0.503280
      28A     -0.484101    29A     -0.452990    30A     -0.427267
      31A     -0.411279

  @DF-RHF Final Energy:  -382.87693323777927

   => Energetics <=

    Nuclear Repulsion Energy =            377.2445499013346080
    One-Electron Energy =               -1269.3668483262624704
    Two-Electron Energy =                 509.2453651871485931
    Total Energy =                       -382.8769332377792693
  Basis Set: (AUG-CC-PVTZ AUX)
    Blend: AUG-CC-PVTZ-RI
    Molecular point group: c1

    Geometry (in Angstrom), charge = 0, multiplicity = 1:

       Center              X                  Y                   Z               Mass
    ------------   -----------------  -----------------  -----------------  -----------------
         O           -0.370370187347    -0.670817456333    -0.204060180178    15.994914619570
         O            0.777862812653     1.296355543667    -0.285856180178    15.994914619570
         C           -1.543221687347     0.064653443667    -0.435319880178    12.000000000000
         C           -2.321530187347     0.559843543667     0.750173819822    12.000000000000
         C           -2.815432187347    -0.625808456333    -0.050334180178    12.000000000000
         C            0.763070812653     0.088169543667    -0.132066180178    12.000000000000
         C            1.961996812653    -0.785318456333     0.145452819822    12.000000000000
         C            3.254882812653     0.014953543667     0.214451819822    12.000000000000
         H           -1.524762187347     0.685069543667    -1.335174180178     1.007825032230
         H           -2.843704187347     1.507518543667     0.673127819822     1.007825032230
         H           -1.887521187347     0.352366543667     1.722175819822     1.007825032230
         H           -2.703062187347    -1.606715456333     0.398129819822     1.007825032230
         H           -3.687937187347    -0.507921456333    -0.683962180178     1.007825032230
         H            2.003260812653    -1.551730456333    -0.636431180178     1.007825032230
         H            1.771312812653    -1.324007456333     1.080542819822     1.007825032230
         H            3.438600812653     0.535766543667    -0.727238180178     1.007825032230
         H            3.203350812653     0.766978543667     1.004113819822     1.007825032230
         H            4.100819812653    -0.646669456333     0.417618819822     1.007825032230

  Basis Set: AUG-CC-PVTZ
    Blend: AUG-CC-PVTZ
  Basis Set: (AUG-CC-PVTZ AUX)
    Blend: AUG-CC-PVTZ-JKFIT
	 Reference Energy          =    -382.8769332377792693 [Eh]
	 Singles Energy            =      -0.0000000000000000 [Eh]
	 Same-Spin Energy          =      -0.3844083712724049 [Eh]
	 Opposite-Spin Energy      =      -1.2541336580391147 [Eh]
	 Correlation Energy        =      -1.6385420293115196 [Eh]
	 Total Energy              =    -384.5154752670907783 [Eh]

	 ================> DF-SCS-MP2 Energies <==================
	-----------------------------------------------------------
	 SCS Same-Spin Scale       =       0.3333333333333333 [-]
	 SCS Opposite-Spin Scale   =       1.2000000000000000 [-]
	 SCS Same-Spin Energy      =      -0.1281361237574683 [Eh]
	 SCS Opposite-Spin Energy  =      -1.5049603896469377 [Eh]
	 SCS Correlation Energy    =      -1.6330965134044060 [Eh]
	 SCS Total Energy          =    -384.5100297511836516 [Eh]
	-----------------------------------------------------------

  Dipole Moment: [D]
     X:    -0.3740      Y:    -1.5205      Z:     0.3035     Total:     1.5949

*** Psi4 exiting successfully. Buy a developer a beer!
