                               Psi4 1.3.2 release

  ==> Input File <==

--------------------------------------------------------------------------
#psi4
#
memory 32 gb

molecule  {
0 1
  O       -0.3837350    -0.6575400    -0.2190270
  O        0.7644980     1.3096330    -0.3008230
  C       -1.6461715    -0.0415069    -0.4498492
  C       -2.3348950     0.5731210     0.7352070
  C       -2.8287970    -0.6125310    -0.0653010
  C        0.7497060     0.1014470    -0.1470330
  C        1.9486320    -0.7720410     0.1304860
  C        3.2415180     0.0282310     0.1994850
  H       -1.5381270     0.6983470    -1.3501410
  H       -2.8570690     1.5207960     0.6581610
  H       -1.9008860     0.3656440     1.7072090
  H       -2.7164270    -1.5934380     0.3831630
  H       -3.7013020    -0.4946440    -0.6989290
  H        1.9898960    -1.5384530    -0.6513980
  H        1.7579480    -1.3107300     1.0655760
  H        3.4252360     0.5490440    -0.7422050
  H        3.1899860     0.7802560     0.9891470
  H        4.0874550    -0.6333920     0.4026520
units angstrom
no_reorient  #important for SAPT in psi4, default
symmetry c1  #important for SAPT in psi4, default
}

set PROPERTIES_ORIGIN ["COM"]
properties('MP2/aug-cc-pvtz', properties = ['dipole'])
--------------------------------------------------------------------------

    Molecular point group: c1
  Charge       = 0
  Multiplicity = 1
  Basis Set: AUG-CC-PVTZ
    Blend: AUG-CC-PVTZ
  Basis Set: (AUG-CC-PVTZ AUX)
    Blend: AUG-CC-PVTZ-JKFIT

    Orbital Energies [Eh]
    ---------------------

    Doubly Occupied:

       1A    -20.601935     2A    -20.544673     3A    -11.382118
       4A    -11.298376     5A    -11.246783     6A    -11.234752
       7A    -11.226214     8A    -11.220973     9A     -1.450618
      10A     -1.355348    11A     -1.171624    12A     -1.060917
      13A     -0.917971    14A     -0.847103    15A     -0.822766
      16A     -0.756613    17A     -0.704158    18A     -0.680747
      19A     -0.673822    20A     -0.644434    21A     -0.604983
      22A     -0.589815    23A     -0.551408    24A     -0.526168
      25A     -0.522349    26A     -0.516203    27A     -0.500232
      28A     -0.479726    29A     -0.470773    30A     -0.443042
      31A     -0.392604

  @DF-RHF Final Energy:  -382.85696826570501

   => Energetics <=

    Nuclear Repulsion Energy =            377.1614461872287620
    One-Electron Energy =               -1269.1583337422432578
    Two-Electron Energy =                 509.1399192893094892
    Total Energy =                       -382.8569682657050066
  Basis Set: (AUG-CC-PVTZ AUX)
    Blend: AUG-CC-PVTZ-RI
    Molecular point group: c1

    Geometry (in Angstrom), charge = 0, multiplicity = 1:

       Center              X                  Y                   Z               Mass
    ------------   -----------------  -----------------  -----------------  -----------------
         O           -0.360945815480    -0.658252559953    -0.204106205323    15.994914619570
         O            0.787287184520     1.308920440047    -0.285902205323    15.994914619570
         C           -1.623382315480    -0.042219459953    -0.434928405323    12.000000000000
         C           -2.312105815480     0.572408440047     0.750127794677    12.000000000000
         C           -2.806007815480    -0.613243559953    -0.050380205323    12.000000000000
         C            0.772495184520     0.100734440047    -0.132112205323    12.000000000000
         C            1.971421184520    -0.772753559953     0.145406794677    12.000000000000
         C            3.264307184520     0.027518440047     0.214405794677    12.000000000000
         H           -1.515337815480     0.697634440047    -1.335220205323     1.007825032230
         H           -2.834279815480     1.520083440047     0.673081794677     1.007825032230
         H           -1.878096815480     0.364931440047     1.722129794677     1.007825032230
         H           -2.693637815480    -1.594150559953     0.398083794677     1.007825032230
         H           -3.678512815480    -0.495356559953    -0.684008205323     1.007825032230
         H            2.012685184520    -1.539165559953    -0.636477205323     1.007825032230
         H            1.780737184520    -1.311442559953     1.080496794677     1.007825032230
         H            3.448025184520     0.548331440047    -0.727284205323     1.007825032230
         H            3.212775184520     0.779543440047     1.004067794677     1.007825032230
         H            4.110244184520    -0.634104559953     0.417572794677     1.007825032230

  Basis Set: AUG-CC-PVTZ
    Blend: AUG-CC-PVTZ
  Basis Set: (AUG-CC-PVTZ AUX)
    Blend: AUG-CC-PVTZ-JKFIT
	 Reference Energy          =    -382.8569682657050066 [Eh]
	 Singles Energy            =      -0.0000000000000000 [Eh]
	 Same-Spin Energy          =      -0.3851794143788528 [Eh]
	 Opposite-Spin Energy      =      -1.2544939181833885 [Eh]
	 Correlation Energy        =      -1.6396733325622415 [Eh]
	 Total Energy              =    -384.4966415982672743 [Eh]

	 ================> DF-SCS-MP2 Energies <==================
	-----------------------------------------------------------
	 SCS Same-Spin Scale       =       0.3333333333333333 [-]
	 SCS Opposite-Spin Scale   =       1.2000000000000000 [-]
	 SCS Same-Spin Energy      =      -0.1283931381262843 [Eh]
	 SCS Opposite-Spin Energy  =      -1.5053927018200661 [Eh]
	 SCS Correlation Energy    =      -1.6337858399463503 [Eh]
	 SCS Total Energy          =    -384.4907541056513764 [Eh]
	-----------------------------------------------------------

  Dipole Moment: [D]
     X:    -0.5720      Y:    -1.6904      Z:     0.2566     Total:     1.8029

*** Psi4 exiting successfully. Buy a developer a beer!
