                               Psi4 1.4a3.dev225

  ==> Input File <==

--------------------------------------------------------------------------
#psi4
#
memory 32 gb

molecule  {
0 1
  O        0.3703410     1.7406370     0.1509160
  O       -2.1946130     0.9173750    -0.9921890
  N       -2.7109060    -0.4412560     0.7761490
  C       -0.4510660    -0.4506100    -0.0514270
  C        0.6599990     0.4108460     0.0342650
  C       -0.2027934    -1.8237504    -0.1135148
  C        1.9527030    -0.1242260     0.0401840
  C        1.0395390    -2.3670290    -0.1196300
  C        2.1335050    -1.5087060    -0.0439110
  C       -1.8406380     0.1093760    -0.1384300
  C        1.4719710     2.6442150     0.1686120
  H       -1.1182000    -2.4830940    -0.1949200
  H        2.8227340     0.5195950     0.1104450
  H        1.1860280    -3.4416730    -0.1864270
  H        3.1441970    -1.9102760    -0.0447980
  H        2.0722720     2.5548100    -0.7428660
  H        2.1083110     2.4835370     1.0460470
  H        1.0258210     3.6366650     0.2171830
  H       -2.3391320    -0.8271260     1.6334900
  H       -3.6232280    -0.0028870     0.8299490
units angstrom
no_reorient  #important for SAPT in psi4, default
symmetry c1  #important for SAPT in psi4, default
}

set PROPERTIES_ORIGIN ["COM"]
properties('MP2/aug-cc-pvtz', properties = ['dipole'])
--------------------------------------------------------------------------

    Molecular point group: c1
  Charge       = 0
  Multiplicity = 1
  Basis Set: AUG-CC-PVTZ
    Blend: AUG-CC-PVTZ
  Basis Set: (AUG-CC-PVTZ AUX)
    Blend: AUG-CC-PVTZ-JKFIT

    Orbital Energies [Eh]
    ---------------------

    Doubly Occupied:

       1A    -20.590190     2A    -20.517877     3A    -15.582857
       4A    -11.355994     5A    -11.317258     6A    -11.287553
       7A    -11.254815     8A    -11.253730     9A    -11.246809
      10A    -11.242508    11A    -11.233798    12A     -1.413834
      13A     -1.369959    14A     -1.207843    15A     -1.162288
      16A     -1.042325    17A     -1.027945    18A     -0.950161
      19A     -0.878687    20A     -0.819822    21A     -0.791466
      22A     -0.735588    23A     -0.707856    24A     -0.683347
      25A     -0.667169    26A     -0.657413    27A     -0.641056
      28A     -0.616607    29A     -0.595967    30A     -0.582515
      31A     -0.557618    32A     -0.548269    33A     -0.530658
      34A     -0.514233    35A     -0.497098    36A     -0.478482
      37A     -0.425211    38A     -0.411748    39A     -0.352340
      40A     -0.325171

  @DF-RHF Final Energy:  -512.54253017889755

   => Energetics <=

    Nuclear Repulsion Energy =            593.1867518412598201
    One-Electron Energy =               -1875.3064328536215726
    Two-Electron Energy =                 769.5771508334642022
    Total Energy =                       -512.5425301788975503
  Basis Set: (AUG-CC-PVTZ AUX)
    Blend: AUG-CC-PVTZ-RI
    Molecular point group: c1

    Geometry (in Angstrom), charge = 0, multiplicity = 1:

       Center              X                  Y                   Z               Mass
    ------------   -----------------  -----------------  -----------------  -----------------
         O            0.401197907905     1.743610477917     0.168027092112    15.994914619570
         O           -2.163756092095     0.920348477917    -0.975077907888    15.994914619570
         N           -2.680049092095    -0.438282522083     0.793260092112    14.003074004430
         C           -0.420209092095    -0.447636522083    -0.034315907888    12.000000000000
         C            0.690855907905     0.413819477917     0.051376092112    12.000000000000
         C           -0.171936492095    -1.820776922083    -0.096403707888    12.000000000000
         C            1.983559907905    -0.121252522083     0.057295092112    12.000000000000
         C            1.070395907905    -2.364055522083    -0.102518907888    12.000000000000
         C            2.164361907905    -1.505732522083    -0.026799907888    12.000000000000
         C           -1.809781092095     0.112349477917    -0.121318907888    12.000000000000
         C            1.502827907905     2.647188477917     0.185723092112    12.000000000000
         H           -1.087343092095    -2.480120522083    -0.177808907888     1.007825032230
         H            2.853590907905     0.522568477917     0.127556092112     1.007825032230
         H            1.216884907905    -3.438699522083    -0.169315907888     1.007825032230
         H            3.175053907905    -1.907302522083    -0.027686907888     1.007825032230
         H            2.103128907905     2.557783477917    -0.725754907888     1.007825032230
         H            2.139167907905     2.486510477917     1.063158092112     1.007825032230
         H            1.056677907905     3.639638477917     0.234294092112     1.007825032230
         H           -2.308275092095    -0.824152522083     1.650601092112     1.007825032230
         H           -3.592371092095     0.000086477917     0.847060092112     1.007825032230

  Basis Set: AUG-CC-PVTZ
    Blend: AUG-CC-PVTZ
  Basis Set: (AUG-CC-PVTZ AUX)
    Blend: AUG-CC-PVTZ-JKFIT
	 Reference Energy          =    -512.5425301788975503 [Eh]
	 Singles Energy            =      -0.0000000000000000 [Eh]
	 Same-Spin Energy          =      -0.5358099872621296 [Eh]
	 Opposite-Spin Energy      =      -1.6452868698098517 [Eh]
	 Correlation Energy        =      -2.1810968570719815 [Eh]
	 Total Energy              =    -514.7236270359695709 [Eh]

	 ================> DF-SCS-MP2 Energies <==================
	-----------------------------------------------------------
	 SCS Same-Spin Scale       =       0.3333333333333333 [-]
	 SCS Opposite-Spin Scale   =       1.2000000000000000 [-]
	 SCS Same-Spin Energy      =      -0.1786033290873765 [Eh]
	 SCS Opposite-Spin Energy  =      -1.9743442437718219 [Eh]
	 SCS Correlation Energy    =      -2.1529475728591985 [Eh]
	 SCS Total Energy          =    -514.6954777517566981 [Eh]
	-----------------------------------------------------------

  Dipole Moment: [D]
     X:     2.0084      Y:    -0.9050      Z:     2.8998     Total:     3.6416

*** Psi4 exiting successfully. Buy a developer a beer!
