                               Psi4 1.4a3.dev225

  ==> Input File <==

--------------------------------------------------------------------------
#psi4
#
memory 32 gb

molecule  {
0 1
  O        0.3703410     1.7406370     0.1509160
  O       -2.1946130     0.9173750    -0.9921890
  N       -2.7109060    -0.4412560     0.7761490
  C       -0.4510660    -0.4506100    -0.0514270
  C        0.6599990     0.4108460     0.0342650
  C       -0.2507290    -1.8313420    -0.1181570
  C        1.9527030    -0.1242260     0.0401840
  C        1.0395390    -2.3670290    -0.1196300
  C        2.1335050    -1.5087060    -0.0439110
  C       -1.8406380     0.1093760    -0.1384300
  C        1.4719710     2.6442150     0.1686120
  H       -1.1182000    -2.4830940    -0.1949200
  H        2.8227340     0.5195950     0.1104450
  H        1.1860280    -3.4416730    -0.1864270
  H        3.1441970    -1.9102760    -0.0447980
  H        2.0722720     2.5548100    -0.7428660
  H        2.1125710     2.4660626     1.0395491
  H        1.0258210     3.6366650     0.2171830
  H       -2.3391320    -0.8271260     1.6334900
  H       -3.6232280    -0.0028870     0.8299490
units angstrom
no_reorient  #important for SAPT in psi4, default
symmetry c1  #important for SAPT in psi4, default
}

set PROPERTIES_ORIGIN ["COM"]
properties('MP2/aug-cc-pvtz', properties = ['dipole'])
--------------------------------------------------------------------------

    Molecular point group: c1
  Charge       = 0
  Multiplicity = 1
  Basis Set: AUG-CC-PVTZ
    Blend: AUG-CC-PVTZ
  Basis Set: (AUG-CC-PVTZ AUX)
    Blend: AUG-CC-PVTZ-JKFIT

    Orbital Energies [Eh]
    ---------------------

    Doubly Occupied:

       1A    -20.590152     2A    -20.517390     3A    -15.582804
       4A    -11.355047     5A    -11.317414     6A    -11.287717
       7A    -11.255360     8A    -11.254126     9A    -11.248286
      10A    -11.242747    11A    -11.238426    12A     -1.413859
      13A     -1.369658    14A     -1.207872    15A     -1.157897
      16A     -1.042838    17A     -1.024672    18A     -0.949497
      19A     -0.877214    20A     -0.824224    21A     -0.789346
      22A     -0.735592    23A     -0.708988    24A     -0.681876
      25A     -0.665538    26A     -0.656986    27A     -0.639554
      28A     -0.623599    29A     -0.596540    30A     -0.582423
      31A     -0.558222    32A     -0.543887    33A     -0.530225
      34A     -0.518634    35A     -0.500591    36A     -0.475556
      37A     -0.424099    38A     -0.411614    39A     -0.352337
      40A     -0.322785

  @DF-RHF Final Energy:  -512.54534348360608

   => Energetics <=

    Nuclear Repulsion Energy =            592.6939467888175841
    One-Electron Energy =               -1874.3273924237464598
    Two-Electron Energy =                 769.0881021513228006
    Total Energy =                       -512.5453434836060751
  Basis Set: (AUG-CC-PVTZ AUX)
    Blend: AUG-CC-PVTZ-RI
    Molecular point group: c1

    Geometry (in Angstrom), charge = 0, multiplicity = 1:

       Center              X                  Y                   Z               Mass
    ------------   -----------------  -----------------  -----------------  -----------------
         O            0.404977341808     1.744330112118     0.168439205011    15.994914619570
         O           -2.159976658192     0.921068112118    -0.974665794989    15.994914619570
         N           -2.676269658192    -0.437562887882     0.793672205011    14.003074004430
         C           -0.416429658192    -0.446916887882    -0.033903794989    12.000000000000
         C            0.694635341808     0.414539112118     0.051788205011    12.000000000000
         C           -0.216092658192    -1.827648887882    -0.100633794989    12.000000000000
         C            1.987339341808    -0.120532887882     0.057707205011    12.000000000000
         C            1.074175341808    -2.363335887882    -0.102106794989    12.000000000000
         C            2.168141341808    -1.505012887882    -0.026387794989    12.000000000000
         C           -1.806001658192     0.113069112118    -0.120906794989    12.000000000000
         C            1.506607341808     2.647908112118     0.186135205011    12.000000000000
         H           -1.083563658192    -2.479400887882    -0.177396794989     1.007825032230
         H            2.857370341808     0.523288112118     0.127968205011     1.007825032230
         H            1.220664341808    -3.437979887882    -0.168903794989     1.007825032230
         H            3.178833341808    -1.906582887882    -0.027274794989     1.007825032230
         H            2.106908341808     2.558503112118    -0.725342794989     1.007825032230
         H            2.147207341808     2.469755712118     1.057072305011     1.007825032230
         H            1.060457341808     3.640358112118     0.234706205011     1.007825032230
         H           -2.304495658192    -0.823432887882     1.651013205011     1.007825032230
         H           -3.588591658192     0.000806112118     0.847472205011     1.007825032230

  Basis Set: AUG-CC-PVTZ
    Blend: AUG-CC-PVTZ
  Basis Set: (AUG-CC-PVTZ AUX)
    Blend: AUG-CC-PVTZ-JKFIT
	 Reference Energy          =    -512.5453434836060751 [Eh]
	 Singles Energy            =      -0.0000000000000000 [Eh]
	 Same-Spin Energy          =      -0.5357193507000695 [Eh]
	 Opposite-Spin Energy      =      -1.6453062680828099 [Eh]
	 Correlation Energy        =      -2.1810256187828791 [Eh]
	 Total Energy              =    -514.7263691023889578 [Eh]

	 ================> DF-SCS-MP2 Energies <==================
	-----------------------------------------------------------
	 SCS Same-Spin Scale       =       0.3333333333333333 [-]
	 SCS Opposite-Spin Scale   =       1.2000000000000000 [-]
	 SCS Same-Spin Energy      =      -0.1785731169000231 [Eh]
	 SCS Opposite-Spin Energy  =      -1.9743675216993717 [Eh]
	 SCS Correlation Energy    =      -2.1529406385993948 [Eh]
	 SCS Total Energy          =    -514.6982841222054503 [Eh]
	-----------------------------------------------------------

  Dipole Moment: [D]
     X:     1.9960      Y:    -0.9172      Z:     2.8950     Total:     3.6341

*** Psi4 exiting successfully. Buy a developer a beer!
