                               Psi4 1.4a3.dev225

  ==> Input File <==

--------------------------------------------------------------------------
#psi4
#
memory 32 gb

molecule  {
0 1
  O        0.3703410     1.7406370     0.1509160
  O       -2.1946130     0.9173750    -0.9921890
  N       -2.7109060    -0.4412560     0.7761490
  C       -0.4510660    -0.4506100    -0.0514270
  C        0.5972682     0.4864723     0.0309575
  C       -0.2507290    -1.8313420    -0.1181570
  C        1.9527030    -0.1242260     0.0401840
  C        1.0395390    -2.3670290    -0.1196300
  C        2.1335050    -1.5087060    -0.0439110
  C       -1.8406380     0.1093760    -0.1384300
  C        1.4719710     2.6442150     0.1686120
  H       -1.1182000    -2.4830940    -0.1949200
  H        2.8227340     0.5195950     0.1104450
  H        1.1860280    -3.4416730    -0.1864270
  H        3.1441970    -1.9102760    -0.0447980
  H        2.0722720     2.5548100    -0.7428660
  H        2.1083110     2.4835370     1.0460470
  H        1.0258210     3.6366650     0.2171830
  H       -2.3391320    -0.8271260     1.6334900
  H       -3.6232280    -0.0028870     0.8299490
units angstrom
no_reorient  #important for SAPT in psi4, default
symmetry c1  #important for SAPT in psi4, default
}

set PROPERTIES_ORIGIN ["COM"]
properties('MP2/aug-cc-pvtz', properties = ['dipole'])
--------------------------------------------------------------------------

    Molecular point group: c1
  Charge       = 0
  Multiplicity = 1
  Basis Set: AUG-CC-PVTZ
    Blend: AUG-CC-PVTZ
  Basis Set: (AUG-CC-PVTZ AUX)
    Blend: AUG-CC-PVTZ-JKFIT

    Orbital Energies [Eh]
    ---------------------

    Doubly Occupied:

       1A    -20.605344     2A    -20.515498     3A    -15.580298
       4A    -11.350539     5A    -11.326408     6A    -11.299214
       7A    -11.252855     8A    -11.250501     9A    -11.245046
      10A    -11.241709    11A    -11.232263    12A     -1.459039
      13A     -1.368482    14A     -1.205373    15A     -1.147137
      16A     -1.044152    17A     -1.016542    18A     -0.962525
      19A     -0.869591    20A     -0.825107    21A     -0.786742
      22A     -0.738120    23A     -0.714107    24A     -0.689594
      25A     -0.678836    26A     -0.668113    27A     -0.640669
      28A     -0.616837    29A     -0.594882    30A     -0.584210
      31A     -0.555828    32A     -0.545918    33A     -0.538669
      34A     -0.526355    35A     -0.490348    36A     -0.477996
      37A     -0.420096    38A     -0.409418    39A     -0.348206
      40A     -0.308907

  @DF-RHF Final Energy:  -512.53519520021780

   => Energetics <=

    Nuclear Repulsion Energy =            593.0041722939809006
    One-Electron Energy =               -1874.8157831544917826
    Two-Electron Energy =                 769.2764156602930825
    Total Energy =                       -512.5351952002177995
  Basis Set: (AUG-CC-PVTZ AUX)
    Blend: AUG-CC-PVTZ-RI
    Molecular point group: c1

    Geometry (in Angstrom), charge = 0, multiplicity = 1:

       Center              X                  Y                   Z               Mass
    ------------   -----------------  -----------------  -----------------  -----------------
         O            0.409988901807     1.738206013393     0.168658591503    15.994914619570
         O           -2.154965098193     0.914944013393    -0.974446408497    15.994914619570
         N           -2.671258098193    -0.443686986607     0.793891591503    14.003074004430
         C           -0.411418098193    -0.453040986607    -0.033684408497    12.000000000000
         C            0.636916101807     0.484041313393     0.048700091503    12.000000000000
         C           -0.211081098193    -1.833772986607    -0.100414408497    12.000000000000
         C            1.992350901807    -0.126656986607     0.057926591503    12.000000000000
         C            1.079186901807    -2.369459986607    -0.101887408497    12.000000000000
         C            2.173152901807    -1.511136986607    -0.026168408497    12.000000000000
         C           -1.800990098193     0.106945013393    -0.120687408497    12.000000000000
         C            1.511618901807     2.641784013393     0.186354591503    12.000000000000
         H           -1.078552098193    -2.485524986607    -0.177177408497     1.007825032230
         H            2.862381901807     0.517164013393     0.128187591503     1.007825032230
         H            1.225675901807    -3.444103986607    -0.168684408497     1.007825032230
         H            3.183844901807    -1.912706986607    -0.027055408497     1.007825032230
         H            2.111919901807     2.552379013393    -0.725123408497     1.007825032230
         H            2.147958901807     2.481106013393     1.063789591503     1.007825032230
         H            1.065468901807     3.634234013393     0.234925591503     1.007825032230
         H           -2.299484098193    -0.829556986607     1.651232591503     1.007825032230
         H           -3.583580098193    -0.005317986607     0.847691591503     1.007825032230

  Basis Set: AUG-CC-PVTZ
    Blend: AUG-CC-PVTZ
  Basis Set: (AUG-CC-PVTZ AUX)
    Blend: AUG-CC-PVTZ-JKFIT
	 Reference Energy          =    -512.5351952002177995 [Eh]
	 Singles Energy            =      -0.0000000000000000 [Eh]
	 Same-Spin Energy          =      -0.5358334803897418 [Eh]
	 Opposite-Spin Energy      =      -1.6446384429458469 [Eh]
	 Correlation Energy        =      -2.1804719233355887 [Eh]
	 Total Energy              =    -514.7156671235534304 [Eh]

	 ================> DF-SCS-MP2 Energies <==================
	-----------------------------------------------------------
	 SCS Same-Spin Scale       =       0.3333333333333333 [-]
	 SCS Opposite-Spin Scale   =       1.2000000000000000 [-]
	 SCS Same-Spin Energy      =      -0.1786111601299139 [Eh]
	 SCS Opposite-Spin Energy  =      -1.9735661315350161 [Eh]
	 SCS Correlation Energy    =      -2.1521772916649300 [Eh]
	 SCS Total Energy          =    -514.6873724918826838 [Eh]
	-----------------------------------------------------------

  Dipole Moment: [D]
     X:     2.0318      Y:    -0.2421      Z:     2.9497     Total:     3.5899

*** Psi4 exiting successfully. Buy a developer a beer!
