                               Psi4 1.4a3.dev225

  ==> Input File <==

--------------------------------------------------------------------------
#psi4
#
memory 32 gb

molecule  {
0 1
  O        0.3703410     1.7406370     0.1509160
  O       -2.1946130     0.9173750    -0.9921890
  N       -2.7109060    -0.4412560     0.7761490
  C       -0.4510660    -0.4506100    -0.0514270
  C        0.6599990     0.4108460     0.0342650
  C       -0.2507290    -1.8313420    -0.1181570
  C        1.9527030    -0.1242260     0.0401840
  C        1.0395390    -2.3670290    -0.1196300
  C        2.1335050    -1.5087060    -0.0439110
  C       -1.8406380     0.1093760    -0.1384300
  C        1.4719710     2.6442150     0.1686120
  H       -1.1182000    -2.4830940    -0.1949200
  H        2.8227340     0.5195950     0.1104450
  H        1.1860280    -3.4416730    -0.1864270
  H        3.1441970    -1.9102760    -0.0447980
  H        2.0722720     2.5548100    -0.7428660
  H        2.1083110     2.4835370     1.0460470
  H        1.0258210     3.6366650     0.2171830
  H       -2.3391320    -0.8271260     1.6334900
  H       -3.6682319     0.0187373     0.8326029
units angstrom
no_reorient  #important for SAPT in psi4, default
symmetry c1  #important for SAPT in psi4, default
}

set PROPERTIES_ORIGIN ["COM"]
properties('MP2/aug-cc-pvtz', properties = ['dipole'])
--------------------------------------------------------------------------

    Molecular point group: c1
  Charge       = 0
  Multiplicity = 1
  Basis Set: AUG-CC-PVTZ
    Blend: AUG-CC-PVTZ
  Basis Set: (AUG-CC-PVTZ AUX)
    Blend: AUG-CC-PVTZ-JKFIT

    Orbital Energies [Eh]
    ---------------------

    Doubly Occupied:

       1A    -20.590262     2A    -20.516871     3A    -15.586980
       4A    -11.354760     5A    -11.317353     6A    -11.287588
       7A    -11.255243     8A    -11.254025     9A    -11.248334
      10A    -11.242637    11A    -11.238310    12A     -1.413797
      13A     -1.368779    14A     -1.202594    15A     -1.157289
      16A     -1.042153    17A     -1.024573    18A     -0.949265
      19A     -0.875358    20A     -0.823743    21A     -0.787139
      22A     -0.734394    23A     -0.705483    24A     -0.679919
      25A     -0.662114    26A     -0.655981    27A     -0.638727
      28A     -0.623330    29A     -0.595248    30A     -0.581681
      31A     -0.557384    32A     -0.543407    33A     -0.530054
      34A     -0.518509    35A     -0.500292    36A     -0.475666
      37A     -0.423657    38A     -0.410670    39A     -0.352184
      40A     -0.322688

  @DF-RHF Final Energy:  -512.54173459725450

   => Energetics <=

    Nuclear Repulsion Energy =            592.3794294395062252
    One-Electron Energy =               -1873.7454517718188072
    Two-Electron Energy =                 768.8242877350581921
    Total Energy =                       -512.5417345972545036
  Basis Set: (AUG-CC-PVTZ AUX)
    Blend: AUG-CC-PVTZ-RI
    Molecular point group: c1

    Geometry (in Angstrom), charge = 0, multiplicity = 1:

       Center              X                  Y                   Z               Mass
    ------------   -----------------  -----------------  -----------------  -----------------
         O            0.405306007885     1.744069263579     0.168378148412    15.994914619570
         O           -2.159647992115     0.920807263579    -0.974726851588    15.994914619570
         N           -2.675940992115    -0.437823736421     0.793611148412    14.003074004430
         C           -0.416100992115    -0.447177736421    -0.033964851588    12.000000000000
         C            0.694964007885     0.414278263579     0.051727148412    12.000000000000
         C           -0.215763992115    -1.827909736421    -0.100694851588    12.000000000000
         C            1.987668007885    -0.120793736421     0.057646148412    12.000000000000
         C            1.074504007885    -2.363596736421    -0.102167851588    12.000000000000
         C            2.168470007885    -1.505273736421    -0.026448851588    12.000000000000
         C           -1.805672992115     0.112808263579    -0.120967851588    12.000000000000
         C            1.506936007885     2.647647263579     0.186074148412    12.000000000000
         H           -1.083234992115    -2.479661736421    -0.177457851588     1.007825032230
         H            2.857699007885     0.523027263579     0.127907148412     1.007825032230
         H            1.220993007885    -3.438240736421    -0.168964851588     1.007825032230
         H            3.179162007885    -1.906843736421    -0.027335851588     1.007825032230
         H            2.107237007885     2.558242263579    -0.725403851588     1.007825032230
         H            2.143276007885     2.486969263579     1.063509148412     1.007825032230
         H            1.060786007885     3.640097263579     0.234645148412     1.007825032230
         H           -2.304166992115    -0.823693736421     1.650952148412     1.007825032230
         H           -3.633266892115     0.022169563579     0.850065048412     1.007825032230

  Basis Set: AUG-CC-PVTZ
    Blend: AUG-CC-PVTZ
  Basis Set: (AUG-CC-PVTZ AUX)
    Blend: AUG-CC-PVTZ-JKFIT
	 Reference Energy          =    -512.5417345972545036 [Eh]
	 Singles Energy            =      -0.0000000000000000 [Eh]
	 Same-Spin Energy          =      -0.5360440755329856 [Eh]
	 Opposite-Spin Energy      =      -1.6461537890925113 [Eh]
	 Correlation Energy        =      -2.1821978646254969 [Eh]
	 Total Energy              =    -514.7239324618800538 [Eh]

	 ================> DF-SCS-MP2 Energies <==================
	-----------------------------------------------------------
	 SCS Same-Spin Scale       =       0.3333333333333333 [-]
	 SCS Opposite-Spin Scale   =       1.2000000000000000 [-]
	 SCS Same-Spin Energy      =      -0.1786813585109952 [Eh]
	 SCS Opposite-Spin Energy  =      -1.9753845469110134 [Eh]
	 SCS Correlation Energy    =      -2.1540659054220086 [Eh]
	 SCS Total Energy          =    -514.6958005026765477 [Eh]
	-----------------------------------------------------------

  Dipole Moment: [D]
     X:     1.9558      Y:    -0.8978      Z:     2.9020     Total:     3.6129

*** Psi4 exiting successfully. Buy a developer a beer!
