                               Psi4 1.4a3.dev225

  ==> Input File <==

--------------------------------------------------------------------------
#psi4
#
memory 32 gb

molecule  {
0 1
  O        0.3703410     1.7406370     0.1509160
  O       -2.1946130     0.9173750    -0.9921890
  N       -2.7109060    -0.4412560     0.7761490
  C       -0.4510660    -0.4506100    -0.0514270
  C        0.6599990     0.4108460     0.0342650
  C       -0.2507290    -1.8313420    -0.1181570
  C        1.9527030    -0.1242260     0.0401840
  C        1.0395390    -2.3670290    -0.1196300
  C        2.1335050    -1.5087060    -0.0439110
  C       -1.8406380     0.1093760    -0.1384300
  C        1.4719710     2.6442150     0.1686120
  H       -1.1182000    -2.4830940    -0.1949200
  H        2.8227340     0.5195950     0.1104450
  H        1.1860280    -3.4416730    -0.1864270
  H        3.1441970    -1.9102760    -0.0447980
  H        2.1328612     2.5409078    -0.6983935
  H        2.1083110     2.4835370     1.0460470
  H        1.0258210     3.6366650     0.2171830
  H       -2.3391320    -0.8271260     1.6334900
  H       -3.6232280    -0.0028870     0.8299490
units angstrom
no_reorient  #important for SAPT in psi4, default
symmetry c1  #important for SAPT in psi4, default
}

set PROPERTIES_ORIGIN ["COM"]
properties('MP2/aug-cc-pvtz', properties = ['dipole'])
--------------------------------------------------------------------------

    Molecular point group: c1
  Charge       = 0
  Multiplicity = 1
  Basis Set: AUG-CC-PVTZ
    Blend: AUG-CC-PVTZ
  Basis Set: (AUG-CC-PVTZ AUX)
    Blend: AUG-CC-PVTZ-JKFIT

    Orbital Energies [Eh]
    ---------------------

    Doubly Occupied:

       1A    -20.591530     2A    -20.517533     3A    -15.582920
       4A    -11.355188     5A    -11.317712     6A    -11.287776
       7A    -11.255521     8A    -11.254309     9A    -11.248516
      10A    -11.243054    11A    -11.238628    12A     -1.414357
      13A     -1.369802    14A     -1.207997    15A     -1.158085
      16A     -1.043026    17A     -1.024801    18A     -0.950058
      19A     -0.877424    20A     -0.824872    21A     -0.789694
      22A     -0.736287    23A     -0.710221    24A     -0.682128
      25A     -0.665993    26A     -0.653913    27A     -0.639895
      28A     -0.624074    29A     -0.596714    30A     -0.582469
      31A     -0.558214    32A     -0.545332    33A     -0.528029
      34A     -0.519306    35A     -0.502461    36A     -0.474824
      37A     -0.424251    38A     -0.411733    39A     -0.352503
      40A     -0.323058

  @DF-RHF Final Energy:  -512.54466125575652

   => Energetics <=

    Nuclear Repulsion Energy =            592.6296230423866973
    One-Electron Energy =               -1874.1801527577911202
    Two-Electron Energy =                 769.0058684596480134
    Total Energy =                       -512.5446612557565231
  Basis Set: (AUG-CC-PVTZ AUX)
    Blend: AUG-CC-PVTZ-RI
    Molecular point group: c1

    Geometry (in Angstrom), charge = 0, multiplicity = 1:

       Center              X                  Y                   Z               Mass
    ------------   -----------------  -----------------  -----------------  -----------------
         O            0.404601539299     1.744306280043     0.168099153951    15.994914619570
         O           -2.160352460701     0.921044280043    -0.975005846049    15.994914619570
         N           -2.676645460701    -0.437586719957     0.793332153951    14.003074004430
         C           -0.416805460701    -0.446940719957    -0.034243846049    12.000000000000
         C            0.694259539299     0.414515280043     0.051448153951    12.000000000000
         C           -0.216468460701    -1.827672719957    -0.100973846049    12.000000000000
         C            1.986963539299    -0.120556719957     0.057367153951    12.000000000000
         C            1.073799539299    -2.363359719957    -0.102446846049    12.000000000000
         C            2.167765539299    -1.505036719957    -0.026727846049    12.000000000000
         C           -1.806377460701     0.113045280043    -0.121246846049    12.000000000000
         C            1.506231539299     2.647884280043     0.185795153951    12.000000000000
         H           -1.083939460701    -2.479424719957    -0.177736846049     1.007825032230
         H            2.856994539299     0.523264280043     0.127628153951     1.007825032230
         H            1.220288539299    -3.438003719957    -0.169243846049     1.007825032230
         H            3.178457539299    -1.906606719957    -0.027614846049     1.007825032230
         H            2.167121739299     2.544577080043    -0.681210346049     1.007825032230
         H            2.142571539299     2.487206280043     1.063230153951     1.007825032230
         H            1.060081539299     3.640334280043     0.234366153951     1.007825032230
         H           -2.304871460701    -0.823456719957     1.650673153951     1.007825032230
         H           -3.588967460701     0.000782280043     0.847132153951     1.007825032230

  Basis Set: AUG-CC-PVTZ
    Blend: AUG-CC-PVTZ
  Basis Set: (AUG-CC-PVTZ AUX)
    Blend: AUG-CC-PVTZ-JKFIT
	 Reference Energy          =    -512.5446612557565231 [Eh]
	 Singles Energy            =      -0.0000000000000000 [Eh]
	 Same-Spin Energy          =      -0.5357674683104349 [Eh]
	 Opposite-Spin Energy      =      -1.6453649274441728 [Eh]
	 Correlation Energy        =      -2.1811323957546076 [Eh]
	 Total Energy              =    -514.7257936515111396 [Eh]

	 ================> DF-SCS-MP2 Energies <==================
	-----------------------------------------------------------
	 SCS Same-Spin Scale       =       0.3333333333333333 [-]
	 SCS Opposite-Spin Scale   =       1.2000000000000000 [-]
	 SCS Same-Spin Energy      =      -0.1785891561034783 [Eh]
	 SCS Opposite-Spin Energy  =      -1.9744379129330074 [Eh]
	 SCS Correlation Energy    =      -2.1530270690364857 [Eh]
	 SCS Total Energy          =    -514.6976883247930346 [Eh]
	-----------------------------------------------------------

  Dipole Moment: [D]
     X:     2.0023      Y:    -0.9448      Z:     2.9037     Total:     3.6515

*** Psi4 exiting successfully. Buy a developer a beer!
