                               Psi4 1.4a3.dev225

  ==> Input File <==

--------------------------------------------------------------------------
#psi4
#
memory 32 gb

molecule  {
0 1
  O        0.3703410     1.7406370     0.1509160
  O       -2.1946130     0.9173750    -0.9921890
  N       -2.7109060    -0.4412560     0.7761490
  C       -0.4510660    -0.4506100    -0.0514270
  C        0.6599990     0.4108460     0.0342650
  C       -0.2507290    -1.8313420    -0.1181570
  C        1.9527030    -0.1242260     0.0401840
  C        1.0395390    -2.3670290    -0.1196300
  C        2.1628966    -1.5473704    -0.0458687
  C       -1.8406380     0.1093760    -0.1384300
  C        1.4719710     2.6442150     0.1686120
  H       -1.1182000    -2.4830940    -0.1949200
  H        2.8227340     0.5195950     0.1104450
  H        1.1860280    -3.4416730    -0.1864270
  H        3.1441970    -1.9102760    -0.0447980
  H        2.0722720     2.5548100    -0.7428660
  H        2.1083110     2.4835370     1.0460470
  H        1.0258210     3.6366650     0.2171830
  H       -2.3391320    -0.8271260     1.6334900
  H       -3.6232280    -0.0028870     0.8299490
units angstrom
no_reorient  #important for SAPT in psi4, default
symmetry c1  #important for SAPT in psi4, default
}

set PROPERTIES_ORIGIN ["COM"]
properties('MP2/aug-cc-pvtz', properties = ['dipole'])
--------------------------------------------------------------------------

    Molecular point group: c1
  Charge       = 0
  Multiplicity = 1
  Basis Set: AUG-CC-PVTZ
    Blend: AUG-CC-PVTZ
  Basis Set: (AUG-CC-PVTZ AUX)
    Blend: AUG-CC-PVTZ-JKFIT

    Orbital Energies [Eh]
    ---------------------

    Doubly Occupied:

       1A    -20.589807     2A    -20.517939     3A    -15.583251
       4A    -11.355601     5A    -11.316703     6A    -11.287074
       7A    -11.255990     8A    -11.255309     9A    -11.250026
      10A    -11.246094    11A    -11.239732    12A     -1.413340
      13A     -1.370153    14A     -1.208270    15A     -1.154277
      16A     -1.041421    17A     -1.022370    18A     -0.948983
      19A     -0.880688    20A     -0.822380    21A     -0.789583
      22A     -0.735379    23A     -0.712240    24A     -0.680944
      25A     -0.664797    26A     -0.656382    27A     -0.641780
      28A     -0.623299    29A     -0.601005    30A     -0.579849
      31A     -0.558500    32A     -0.545727    33A     -0.528467
      34A     -0.513370    35A     -0.503606    36A     -0.474100
      37A     -0.424711    38A     -0.411994    39A     -0.348019
      40A     -0.324331

  @DF-RHF Final Energy:  -512.54176605691487

   => Energetics <=

    Nuclear Repulsion Energy =            591.7541302156871552
    One-Electron Energy =               -1872.4368191338960514
    Two-Electron Energy =                 768.1409228612940296
    Total Energy =                       -512.5417660569148666
  Basis Set: (AUG-CC-PVTZ AUX)
    Blend: AUG-CC-PVTZ-RI
    Molecular point group: c1

    Geometry (in Angstrom), charge = 0, multiplicity = 1:

       Center              X                  Y                   Z               Mass
    ------------   -----------------  -----------------  -----------------  -----------------
         O            0.402670985468     1.747284910391     0.168551367598    15.994914619570
         O           -2.162283014532     0.924022910391    -0.974553632402    15.994914619570
         N           -2.678576014532    -0.434608089609     0.793784367598    14.003074004430
         C           -0.418736014532    -0.443962089609    -0.033791632402    12.000000000000
         C            0.692328985468     0.417493910391     0.051900367598    12.000000000000
         C           -0.218399014532    -1.824694089609    -0.100521632402    12.000000000000
         C            1.985032985468    -0.117578089609     0.057819367598    12.000000000000
         C            1.071868985468    -2.360381089609    -0.101994632402    12.000000000000
         C            2.195226585468    -1.540722489609    -0.028233332402    12.000000000000
         C           -1.808308014532     0.116023910391    -0.120794632402    12.000000000000
         C            1.504300985468     2.650862910391     0.186247367598    12.000000000000
         H           -1.085870014532    -2.476446089609    -0.177284632402     1.007825032230
         H            2.855063985468     0.526242910391     0.128080367598     1.007825032230
         H            1.218357985468    -3.435025089609    -0.168791632402     1.007825032230
         H            3.176526985468    -1.903628089609    -0.027162632402     1.007825032230
         H            2.104601985468     2.561457910391    -0.725230632402     1.007825032230
         H            2.140640985468     2.490184910391     1.063682367598     1.007825032230
         H            1.058150985468     3.643312910391     0.234818367598     1.007825032230
         H           -2.306802014532    -0.820478089609     1.651125367598     1.007825032230
         H           -3.590898014532     0.003760910391     0.847584367598     1.007825032230

  Basis Set: AUG-CC-PVTZ
    Blend: AUG-CC-PVTZ
  Basis Set: (AUG-CC-PVTZ AUX)
    Blend: AUG-CC-PVTZ-JKFIT
	 Reference Energy          =    -512.5417660569148666 [Eh]
	 Singles Energy            =      -0.0000000000000000 [Eh]
	 Same-Spin Energy          =      -0.5357279043114427 [Eh]
	 Opposite-Spin Energy      =      -1.6457940964841513 [Eh]
	 Correlation Energy        =      -2.1815220007955940 [Eh]
	 Total Energy              =    -514.7232880577104197 [Eh]

	 ================> DF-SCS-MP2 Energies <==================
	-----------------------------------------------------------
	 SCS Same-Spin Scale       =       0.3333333333333333 [-]
	 SCS Opposite-Spin Scale   =       1.2000000000000000 [-]
	 SCS Same-Spin Energy      =      -0.1785759681038142 [Eh]
	 SCS Opposite-Spin Energy  =      -1.9749529157809815 [Eh]
	 SCS Correlation Energy    =      -2.1535288838847957 [Eh]
	 SCS Total Energy          =    -514.6952949407996130 [Eh]
	-----------------------------------------------------------

  Dipole Moment: [D]
     X:     1.9856      Y:    -0.9359      Z:     2.8978     Total:     3.6354

*** Psi4 exiting successfully. Buy a developer a beer!
