                               Psi4 1.4a3.dev225

  ==> Input File <==

--------------------------------------------------------------------------
#psi4
#
memory 32 gb

molecule  {
0 1
  O        0.3703410     1.7406370     0.1509160
  O       -2.1946130     0.9173750    -0.9921890
  N       -2.7109060    -0.4412560     0.7761490
  C       -0.4510660    -0.4506100    -0.0514270
  C        0.6599990     0.4108460     0.0342650
  C       -0.2507290    -1.8313420    -0.1181570
  C        1.9527030    -0.1242260     0.0401840
  C        1.0395390    -2.3670290    -0.1196300
  C        2.1335050    -1.5087060    -0.0439110
  C       -1.8406380     0.1093760    -0.1384300
  C        1.4719710     2.6442150     0.1686120
  H       -1.1182000    -2.4830940    -0.1949200
  H        2.8227340     0.5195950     0.1104450
  H        1.1860280    -3.4416730    -0.1864270
  H        3.1441970    -1.9102760    -0.0447980
  H        2.0722720     2.5548100    -0.7428660
  H        2.1083110     2.4835370     1.0460470
  H        1.0667821     3.5455480     0.2127237
  H       -2.3391320    -0.8271260     1.6334900
  H       -3.6232280    -0.0028870     0.8299490
units angstrom
no_reorient  #important for SAPT in psi4, default
symmetry c1  #important for SAPT in psi4, default
}

set PROPERTIES_ORIGIN ["COM"]
properties('MP2/aug-cc-pvtz', properties = ['dipole'])
--------------------------------------------------------------------------

    Molecular point group: c1
  Charge       = 0
  Multiplicity = 1
  Basis Set: AUG-CC-PVTZ
    Blend: AUG-CC-PVTZ
  Basis Set: (AUG-CC-PVTZ AUX)
    Blend: AUG-CC-PVTZ-JKFIT

    Orbital Energies [Eh]
    ---------------------

    Doubly Occupied:

       1A    -20.589531     2A    -20.517212     3A    -15.582644
       4A    -11.354847     5A    -11.316853     6A    -11.275725
       7A    -11.255008     8A    -11.253743     9A    -11.247875
      10A    -11.242243    11A    -11.238064    12A     -1.413469
      13A     -1.369486    14A     -1.207702    15A     -1.157669
      16A     -1.043128    17A     -1.026107    18A     -0.958545
      19A     -0.876915    20A     -0.826088    21A     -0.789107
      22A     -0.735307    23A     -0.708621    24A     -0.683712
      25A     -0.667661    26A     -0.656487    27A     -0.641155
      28A     -0.624827    29A     -0.599904    30A     -0.586711
      31A     -0.558080    32A     -0.546991    33A     -0.530619
      34A     -0.519903    35A     -0.501832    36A     -0.475326
      37A     -0.423943    38A     -0.411454    39A     -0.351958
      40A     -0.322363

  @DF-RHF Final Energy:  -512.53923321101843

   => Energetics <=

    Nuclear Repulsion Energy =            593.1755216982880938
    One-Electron Energy =               -1875.2518685749698761
    Two-Electron Energy =                 769.5371136656633553
    Total Energy =                       -512.5392332110184270
  Basis Set: (AUG-CC-PVTZ AUX)
    Blend: AUG-CC-PVTZ-RI
    Molecular point group: c1

    Geometry (in Angstrom), charge = 0, multiplicity = 1:

       Center              X                  Y                   Z               Mass
    ------------   -----------------  -----------------  -----------------  -----------------
         O            0.404732488952     1.744821421666     0.168425604410    15.994914619570
         O           -2.160221511048     0.921559421666    -0.974679395590    15.994914619570
         N           -2.676514511048    -0.437071578334     0.793658604410    14.003074004430
         C           -0.416674511048    -0.446425578334    -0.033917395590    12.000000000000
         C            0.694390488952     0.415030421666     0.051774604410    12.000000000000
         C           -0.216337511048    -1.827157578334    -0.100647395590    12.000000000000
         C            1.987094488952    -0.120041578334     0.057693604410    12.000000000000
         C            1.073930488952    -2.362844578334    -0.102120395590    12.000000000000
         C            2.167896488952    -1.504521578334    -0.026401395590    12.000000000000
         C           -1.806246511048     0.113560421666    -0.120920395590    12.000000000000
         C            1.506362488952     2.648399421666     0.186121604410    12.000000000000
         H           -1.083808511048    -2.478909578334    -0.177410395590     1.007825032230
         H            2.857125488952     0.523779421666     0.127954604410     1.007825032230
         H            1.220419488952    -3.437488578334    -0.168917395590     1.007825032230
         H            3.178588488952    -1.906091578334    -0.027288395590     1.007825032230
         H            2.106663488952     2.558994421666    -0.725356395590     1.007825032230
         H            2.142702488952     2.487721421666     1.063556604410     1.007825032230
         H            1.101173588952     3.549732421666     0.230233304410     1.007825032230
         H           -2.304740511048    -0.822941578334     1.650999604410     1.007825032230
         H           -3.588836511048     0.001297421666     0.847458604410     1.007825032230

  Basis Set: AUG-CC-PVTZ
    Blend: AUG-CC-PVTZ
  Basis Set: (AUG-CC-PVTZ AUX)
    Blend: AUG-CC-PVTZ-JKFIT
	 Reference Energy          =    -512.5392332110184270 [Eh]
	 Singles Energy            =      -0.0000000000000000 [Eh]
	 Same-Spin Energy          =      -0.5356884038735583 [Eh]
	 Opposite-Spin Energy      =      -1.6447322966239972 [Eh]
	 Correlation Energy        =      -2.1804207004975558 [Eh]
	 Total Energy              =    -514.7196539115159339 [Eh]

	 ================> DF-SCS-MP2 Energies <==================
	-----------------------------------------------------------
	 SCS Same-Spin Scale       =       0.3333333333333333 [-]
	 SCS Opposite-Spin Scale   =       1.2000000000000000 [-]
	 SCS Same-Spin Energy      =      -0.1785628012911861 [Eh]
	 SCS Opposite-Spin Energy  =      -1.9736787559487965 [Eh]
	 SCS Correlation Energy    =      -2.1522415572399827 [Eh]
	 SCS Total Energy          =    -514.6914747682584448 [Eh]
	-----------------------------------------------------------

  Dipole Moment: [D]
     X:     2.0072      Y:    -0.8690      Z:     2.9025     Total:     3.6344

*** Psi4 exiting successfully. Buy a developer a beer!
