                               Psi4 1.4a3.dev225

  ==> Input File <==

--------------------------------------------------------------------------
#psi4
#
memory 32 gb

molecule  {
0 1
  O        0.3703410     1.7406370     0.1509160
  O       -2.1946130     0.9173750    -0.9921890
  N       -2.7109060    -0.4412560     0.7761490
  C       -0.4510660    -0.4506100    -0.0514270
  C        0.6292917     0.4492073     0.0326625
  C       -0.2507290    -1.8313420    -0.1181570
  C        1.9527030    -0.1242260     0.0401840
  C        1.0395390    -2.3670290    -0.1196300
  C        2.1335050    -1.5087060    -0.0439110
  C       -1.8406380     0.1093760    -0.1384300
  C        1.4719710     2.6442150     0.1686120
  H       -1.1182000    -2.4830940    -0.1949200
  H        2.8227340     0.5195950     0.1104450
  H        1.1860280    -3.4416730    -0.1864270
  H        3.1441970    -1.9102760    -0.0447980
  H        2.0722720     2.5548100    -0.7428660
  H        2.1083110     2.4835370     1.0460470
  H        1.0258210     3.6366650     0.2171830
  H       -2.3391320    -0.8271260     1.6334900
  H       -3.6232280    -0.0028870     0.8299490
units angstrom
no_reorient  #important for SAPT in psi4, default
symmetry c1  #important for SAPT in psi4, default
}

set PROPERTIES_ORIGIN ["COM"]
properties('MP2/aug-cc-pvtz', properties = ['dipole'])
--------------------------------------------------------------------------

    Molecular point group: c1
  Charge       = 0
  Multiplicity = 1
  Basis Set: AUG-CC-PVTZ
    Blend: AUG-CC-PVTZ
  Basis Set: (AUG-CC-PVTZ AUX)
    Blend: AUG-CC-PVTZ-JKFIT

    Orbital Energies [Eh]
    ---------------------

    Doubly Occupied:

       1A    -20.597667     2A    -20.516494     3A    -15.581605
       4A    -11.352854     5A    -11.321870     6A    -11.293244
       7A    -11.254111     8A    -11.252348     9A    -11.245068
      10A    -11.244182    11A    -11.235487    12A     -1.435494
      13A     -1.369165    14A     -1.206668    15A     -1.152317
      16A     -1.042756    17A     -1.020221    18A     -0.956548
      19A     -0.873431    20A     -0.824646    21A     -0.787533
      22A     -0.736099    23A     -0.711714    24A     -0.685420
      25A     -0.670170    26A     -0.664328    27A     -0.640442
      28A     -0.619809    29A     -0.595838    30A     -0.583642
      31A     -0.556893    32A     -0.543802    33A     -0.533979
      34A     -0.523362    35A     -0.496267    36A     -0.477796
      37A     -0.422273    38A     -0.410634    39A     -0.350002
      40A     -0.316032

  @DF-RHF Final Energy:  -512.54330115719836

   => Energetics <=

    Nuclear Repulsion Energy =            592.8061743558967009
    One-Electron Energy =               -1874.4945277028853070
    Two-Electron Energy =                 769.1450521897902490
    Total Energy =                       -512.5433011571983570
  Basis Set: (AUG-CC-PVTZ AUX)
    Blend: AUG-CC-PVTZ-RI
    Molecular point group: c1

    Geometry (in Angstrom), charge = 0, multiplicity = 1:

       Center              X                  Y                   Z               Mass
    ------------   -----------------  -----------------  -----------------  -----------------
         O            0.407445054774     1.741166228849     0.168523151617    15.994914619570
         O           -2.157508945226     0.917904228849    -0.974581848383    15.994914619570
         N           -2.673801945226    -0.440726771151     0.793756151617    14.003074004430
         C           -0.413961945226    -0.450080771151    -0.033819848383    12.000000000000
         C            0.666395754774     0.449736528849     0.050269651617    12.000000000000
         C           -0.213624945226    -1.830812771151    -0.100549848383    12.000000000000
         C            1.989807054774    -0.123696771151     0.057791151617    12.000000000000
         C            1.076643054774    -2.366499771151    -0.102022848383    12.000000000000
         C            2.170609054774    -1.508176771151    -0.026303848383    12.000000000000
         C           -1.803533945226     0.109905228849    -0.120822848383    12.000000000000
         C            1.509075054774     2.644744228849     0.186219151617    12.000000000000
         H           -1.081095945226    -2.482564771151    -0.177312848383     1.007825032230
         H            2.859838054774     0.520124228849     0.128052151617     1.007825032230
         H            1.223132054774    -3.441143771151    -0.168819848383     1.007825032230
         H            3.181301054774    -1.909746771151    -0.027190848383     1.007825032230
         H            2.109376054774     2.555339228849    -0.725258848383     1.007825032230
         H            2.145415054774     2.484066228849     1.063654151617     1.007825032230
         H            1.062925054774     3.637194228849     0.234790151617     1.007825032230
         H           -2.302027945226    -0.826596771151     1.651097151617     1.007825032230
         H           -3.586123945226    -0.002357771151     0.847556151617     1.007825032230

  Basis Set: AUG-CC-PVTZ
    Blend: AUG-CC-PVTZ
  Basis Set: (AUG-CC-PVTZ AUX)
    Blend: AUG-CC-PVTZ-JKFIT
	 Reference Energy          =    -512.5433011571983570 [Eh]
	 Singles Energy            =      -0.0000000000000000 [Eh]
	 Same-Spin Energy          =      -0.5357448118961168 [Eh]
	 Opposite-Spin Energy      =      -1.6448373937786320 [Eh]
	 Correlation Energy        =      -2.1805822056747486 [Eh]
	 Total Energy              =    -514.7238833628731527 [Eh]

	 ================> DF-SCS-MP2 Energies <==================
	-----------------------------------------------------------
	 SCS Same-Spin Scale       =       0.3333333333333333 [-]
	 SCS Opposite-Spin Scale   =       1.2000000000000000 [-]
	 SCS Same-Spin Energy      =      -0.1785816039653723 [Eh]
	 SCS Opposite-Spin Energy  =      -1.9738048725343584 [Eh]
	 SCS Correlation Energy    =      -2.1523864764997307 [Eh]
	 SCS Total Energy          =    -514.6956876336980713 [Eh]
	-----------------------------------------------------------

  Dipole Moment: [D]
     X:     2.0131      Y:    -0.5870      Z:     2.9241     Total:     3.5983

*** Psi4 exiting successfully. Buy a developer a beer!
