                               Psi4 1.4a3.dev225

  ==> Input File <==

--------------------------------------------------------------------------
#psi4
#
memory 32 gb

molecule  {
0 1
  O        0.3703410     1.7406370     0.1509160
  O       -2.1946130     0.9173750    -0.9921890
  N       -2.7109060    -0.4412560     0.7761490
  C       -0.4510660    -0.4506100    -0.0514270
  C        0.5639674     0.5225956     0.0291522
  C       -0.2507290    -1.8313420    -0.1181570
  C        1.9527030    -0.1242260     0.0401840
  C        1.0395390    -2.3670290    -0.1196300
  C        2.1335050    -1.5087060    -0.0439110
  C       -1.8406380     0.1093760    -0.1384300
  C        1.4719710     2.6442150     0.1686120
  H       -1.1182000    -2.4830940    -0.1949200
  H        2.8227340     0.5195950     0.1104450
  H        1.1860280    -3.4416730    -0.1864270
  H        3.1441970    -1.9102760    -0.0447980
  H        2.0722720     2.5548100    -0.7428660
  H        2.1083110     2.4835370     1.0460470
  H        1.0258210     3.6366650     0.2171830
  H       -2.3391320    -0.8271260     1.6334900
  H       -3.6232280    -0.0028870     0.8299490
units angstrom
no_reorient  #important for SAPT in psi4, default
symmetry c1  #important for SAPT in psi4, default
}

set PROPERTIES_ORIGIN ["COM"]
properties('MP2/aug-cc-pvtz', properties = ['dipole'])
--------------------------------------------------------------------------

    Molecular point group: c1
  Charge       = 0
  Multiplicity = 1
  Basis Set: AUG-CC-PVTZ
    Blend: AUG-CC-PVTZ
  Basis Set: (AUG-CC-PVTZ AUX)
    Blend: AUG-CC-PVTZ-JKFIT

    Orbital Energies [Eh]
    ---------------------

    Doubly Occupied:

       1A    -20.613414     2A    -20.514429     3A    -15.578897
       4A    -11.348128     5A    -11.330947     6A    -11.305553
       7A    -11.251568     8A    -11.248517     9A    -11.245192
      10A    -11.238266    11A    -11.228785    12A     -1.484293
      13A     -1.367706    14A     -1.203999    15A     -1.142296
      16A     -1.047088    17A     -1.014360    18A     -0.966608
      19A     -0.865846    20A     -0.825713    21A     -0.787369
      22A     -0.741308    23A     -0.715258    24A     -0.694908
      25A     -0.689958    26A     -0.669890    27A     -0.640222
      28A     -0.614683    29A     -0.593941    30A     -0.583965
      31A     -0.556049    32A     -0.549892    33A     -0.543152
      34A     -0.527052    35A     -0.483692    36A     -0.476182
      37A     -0.417604    38A     -0.407806    39A     -0.346675
      40A     -0.301733

  @DF-RHF Final Energy:  -512.52098174919433

   => Energetics <=

    Nuclear Repulsion Energy =            593.2525871131977055
    One-Electron Energy =               -1875.2212491173640956
    Two-Electron Energy =                 769.4476802549720560
    Total Energy =                       -512.5209817491943340
  Basis Set: (AUG-CC-PVTZ AUX)
    Blend: AUG-CC-PVTZ-RI
    Molecular point group: c1

    Geometry (in Angstrom), charge = 0, multiplicity = 1:

       Center              X                  Y                   Z               Mass
    ------------   -----------------  -----------------  -----------------  -----------------
         O            0.412634213570     1.735336491026     0.168801998909    15.994914619570
         O           -2.152319786430     0.912074491026    -0.974303001091    15.994914619570
         N           -2.668612786430    -0.446556508974     0.794034998909    14.003074004430
         C           -0.408772786430    -0.455910508974    -0.033541001091    12.000000000000
         C            0.606260613570     0.517295091026     0.047038198909    12.000000000000
         C           -0.208435786430    -1.836642508974    -0.100271001091    12.000000000000
         C            1.994996213570    -0.129526508974     0.058069998909    12.000000000000
         C            1.081832213570    -2.372329508974    -0.101744001091    12.000000000000
         C            2.175798213570    -1.514006508974    -0.026025001091    12.000000000000
         C           -1.798344786430     0.104075491026    -0.120544001091    12.000000000000
         C            1.514264213570     2.638914491026     0.186497998909    12.000000000000
         H           -1.075906786430    -2.488394508974    -0.177034001091     1.007825032230
         H            2.865027213570     0.514294491026     0.128330998909     1.007825032230
         H            1.228321213570    -3.446973508974    -0.168541001091     1.007825032230
         H            3.186490213570    -1.915576508974    -0.026912001091     1.007825032230
         H            2.114565213570     2.549509491026    -0.724980001091     1.007825032230
         H            2.150604213570     2.478236491026     1.063932998909     1.007825032230
         H            1.068114213570     3.631364491026     0.235068998909     1.007825032230
         H           -2.296838786430    -0.832426508974     1.651375998909     1.007825032230
         H           -3.580934786430    -0.008187508974     0.847834998909     1.007825032230

  Basis Set: AUG-CC-PVTZ
    Blend: AUG-CC-PVTZ
  Basis Set: (AUG-CC-PVTZ AUX)
    Blend: AUG-CC-PVTZ-JKFIT
	 Reference Energy          =    -512.5209817491943340 [Eh]
	 Singles Energy            =      -0.0000000000000000 [Eh]
	 Same-Spin Energy          =      -0.5359571598406012 [Eh]
	 Opposite-Spin Energy      =      -1.6446731606209424 [Eh]
	 Correlation Energy        =      -2.1806303204615434 [Eh]
	 Total Energy              =    -514.7016120696558801 [Eh]

	 ================> DF-SCS-MP2 Energies <==================
	-----------------------------------------------------------
	 SCS Same-Spin Scale       =       0.3333333333333333 [-]
	 SCS Opposite-Spin Scale   =       1.2000000000000000 [-]
	 SCS Same-Spin Energy      =      -0.1786523866135337 [Eh]
	 SCS Opposite-Spin Energy  =      -1.9736077927451308 [Eh]
	 SCS Correlation Energy    =      -2.1522601793586644 [Eh]
	 SCS Total Energy          =    -514.6732419285530113 [Eh]
	-----------------------------------------------------------

  Dipole Moment: [D]
     X:     2.0517      Y:     0.1193      Z:     2.9759     Total:     3.6166

*** Psi4 exiting successfully. Buy a developer a beer!
