                               Psi4 1.4a3.dev225

  ==> Input File <==

--------------------------------------------------------------------------
#psi4
#
memory 32 gb

molecule  {
0 1
  O        0.3703410     1.7406370     0.1509160
  O       -2.1946130     0.9173750    -0.9921890
  N       -2.7109060    -0.4412560     0.7761490
  C       -0.4510660    -0.4506100    -0.0514270
  C        0.6599990     0.4108460     0.0342650
  C       -0.2507290    -1.8313420    -0.1181570
  C        1.9527030    -0.1242260     0.0401840
  C        1.0395390    -2.3670290    -0.1196300
  C        2.1335050    -1.5087060    -0.0439110
  C       -1.6554467     0.0347454    -0.1268349
  C        1.4719710     2.6442150     0.1686120
  H       -1.1182000    -2.4830940    -0.1949200
  H        2.8227340     0.5195950     0.1104450
  H        1.1860280    -3.4416730    -0.1864270
  H        3.1441970    -1.9102760    -0.0447980
  H        2.0722720     2.5548100    -0.7428660
  H        2.1083110     2.4835370     1.0460470
  H        1.0258210     3.6366650     0.2171830
  H       -2.3391320    -0.8271260     1.6334900
  H       -3.6232280    -0.0028870     0.8299490
units angstrom
no_reorient  #important for SAPT in psi4, default
symmetry c1  #important for SAPT in psi4, default
}

set PROPERTIES_ORIGIN ["COM"]
properties('MP2/aug-cc-pvtz', properties = ['dipole'])
--------------------------------------------------------------------------

    Molecular point group: c1
  Charge       = 0
  Multiplicity = 1
  Basis Set: AUG-CC-PVTZ
    Blend: AUG-CC-PVTZ
  Basis Set: (AUG-CC-PVTZ AUX)
    Blend: AUG-CC-PVTZ-JKFIT

    Orbital Energies [Eh]
    ---------------------

    Doubly Occupied:

       1A    -20.599738     2A    -20.503467     3A    -15.572852
       4A    -11.359145     5A    -11.335013     6A    -11.293262
       7A    -11.272820     8A    -11.270137     9A    -11.253146
      10A    -11.249021    11A    -11.244931    12A     -1.423330
      13A     -1.300867    14A     -1.183917    15A     -1.155626
      16A     -1.077941    17A     -1.037220    18A     -0.962271
      19A     -0.914231    20A     -0.838487    21A     -0.790323
      22A     -0.727027    23A     -0.697621    24A     -0.689722
      25A     -0.675736    26A     -0.664098    27A     -0.647906
      28A     -0.626319    29A     -0.599866    30A     -0.572935
      31A     -0.555164    32A     -0.545106    33A     -0.530069
      34A     -0.507117    35A     -0.499708    36A     -0.481988
      37A     -0.408519    38A     -0.384627    39A     -0.361386
      40A     -0.334115

  @DF-RHF Final Energy:  -512.47204338143683

   => Energetics <=

    Nuclear Repulsion Energy =            594.1249908429898596
    One-Electron Energy =               -1876.9005255066540485
    Two-Electron Energy =                 770.3034912822272418
    Total Energy =                       -512.4720433814368334
  Basis Set: (AUG-CC-PVTZ AUX)
    Blend: AUG-CC-PVTZ-RI
    Molecular point group: c1

    Geometry (in Angstrom), charge = 0, multiplicity = 1:

       Center              X                  Y                   Z               Mass
    ------------   -----------------  -----------------  -----------------  -----------------
         O            0.390294742881     1.750141953223     0.167474775406    15.994914619570
         O           -2.174659257119     0.926879953223    -0.975630224594    15.994914619570
         N           -2.690952257119    -0.431751046777     0.792707775406    14.003074004430
         C           -0.431112257119    -0.441105046777    -0.034868224594    12.000000000000
         C            0.679952742881     0.420350953223     0.050823775406    12.000000000000
         C           -0.230775257119    -1.821837046777    -0.101598224594    12.000000000000
         C            1.972656742881    -0.114721046777     0.056742775406    12.000000000000
         C            1.059492742881    -2.357524046777    -0.103071224594    12.000000000000
         C            2.153458742881    -1.499201046777    -0.027352224594    12.000000000000
         C           -1.635492957119     0.044250353223    -0.110276124594    12.000000000000
         C            1.491924742881     2.653719953223     0.185170775406    12.000000000000
         H           -1.098246257119    -2.473589046777    -0.178361224594     1.007825032230
         H            2.842687742881     0.529099953223     0.127003775406     1.007825032230
         H            1.205981742881    -3.432168046777    -0.169868224594     1.007825032230
         H            3.164150742881    -1.900771046777    -0.028239224594     1.007825032230
         H            2.092225742881     2.564314953223    -0.726307224594     1.007825032230
         H            2.128264742881     2.493041953223     1.062605775406     1.007825032230
         H            1.045774742881     3.646169953223     0.233741775406     1.007825032230
         H           -2.319178257119    -0.817621046777     1.650048775406     1.007825032230
         H           -3.603274257119     0.006617953223     0.846507775406     1.007825032230

  Basis Set: AUG-CC-PVTZ
    Blend: AUG-CC-PVTZ
  Basis Set: (AUG-CC-PVTZ AUX)
    Blend: AUG-CC-PVTZ-JKFIT
	 Reference Energy          =    -512.4720433814368334 [Eh]
	 Singles Energy            =      -0.0000000000000000 [Eh]
	 Same-Spin Energy          =      -0.5416953979723675 [Eh]
	 Opposite-Spin Energy      =      -1.6571092040907964 [Eh]
	 Correlation Energy        =      -2.1988046020631637 [Eh]
	 Total Energy              =    -514.6708479835000389 [Eh]

	 ================> DF-SCS-MP2 Energies <==================
	-----------------------------------------------------------
	 SCS Same-Spin Scale       =       0.3333333333333333 [-]
	 SCS Opposite-Spin Scale   =       1.2000000000000000 [-]
	 SCS Same-Spin Energy      =      -0.1805651326574558 [Eh]
	 SCS Opposite-Spin Energy  =      -1.9885310449089557 [Eh]
	 SCS Correlation Energy    =      -2.1690961775664115 [Eh]
	 SCS Total Energy          =    -514.6411395590032498 [Eh]
	-----------------------------------------------------------

  Dipole Moment: [D]
     X:     3.3647      Y:    -1.2075      Z:     2.8189     Total:     4.5525

*** Psi4 exiting successfully. Buy a developer a beer!
