                               Psi4 1.4a3.dev225

  ==> Input File <==

--------------------------------------------------------------------------
#psi4
#
memory 32 gb

molecule  {
0 1
  O        0.3703410     1.7406370     0.1509160
  O       -2.1946130     0.9173750    -0.9921890
  N       -2.7109060    -0.4412560     0.7761490
  C       -0.4510660    -0.4506100    -0.0514270
  C        0.6599990     0.4108460     0.0342650
  C       -0.2507290    -1.8313420    -0.1181570
  C        1.9527030    -0.1242260     0.0401840
  C        1.0395390    -2.3670290    -0.1196300
  C        2.1335050    -1.5087060    -0.0439110
  C       -1.8406380     0.1093760    -0.1384300
  C        1.4719710     2.6442150     0.1686120
  H       -1.1182000    -2.4830940    -0.1949200
  H        2.8227340     0.5195950     0.1104450
  H        1.1792875    -3.3922249    -0.1833534
  H        3.1441970    -1.9102760    -0.0447980
  H        2.0722720     2.5548100    -0.7428660
  H        2.1083110     2.4835370     1.0460470
  H        1.0258210     3.6366650     0.2171830
  H       -2.3391320    -0.8271260     1.6334900
  H       -3.6232280    -0.0028870     0.8299490
units angstrom
no_reorient  #important for SAPT in psi4, default
symmetry c1  #important for SAPT in psi4, default
}

set PROPERTIES_ORIGIN ["COM"]
properties('MP2/aug-cc-pvtz', properties = ['dipole'])
--------------------------------------------------------------------------

    Molecular point group: c1
  Charge       = 0
  Multiplicity = 1
  Basis Set: AUG-CC-PVTZ
    Blend: AUG-CC-PVTZ
  Basis Set: (AUG-CC-PVTZ AUX)
    Blend: AUG-CC-PVTZ-JKFIT

    Orbital Energies [Eh]
    ---------------------

    Doubly Occupied:

       1A    -20.590246     2A    -20.517243     3A    -15.582688
       4A    -11.354865     5A    -11.317266     6A    -11.287564
       7A    -11.254929     8A    -11.253691     9A    -11.247972
      10A    -11.242404    11A    -11.232497    12A     -1.413785
      13A     -1.369519    14A     -1.207746    15A     -1.157950
      16A     -1.042899    17A     -1.025734    18A     -0.950178
      19A     -0.876982    20A     -0.825371    21A     -0.791646
      22A     -0.736324    23A     -0.708988    24A     -0.683040
      25A     -0.666893    26A     -0.657526    27A     -0.642005
      28A     -0.623422    29A     -0.596323    30A     -0.582059
      31A     -0.558514    32A     -0.546121    33A     -0.530193
      34A     -0.520459    35A     -0.500273    36A     -0.475562
      37A     -0.424014    38A     -0.411489    39A     -0.352045
      40A     -0.322616

  @DF-RHF Final Energy:  -512.54460931279596

   => Energetics <=

    Nuclear Repulsion Energy =            592.9340000432342777
    One-Electron Energy =               -1874.7951360282709174
    Two-Electron Energy =                 769.3165266722405704
    Total Energy =                       -512.5446093127959557
  Basis Set: (AUG-CC-PVTZ AUX)
    Blend: AUG-CC-PVTZ-RI
    Molecular point group: c1

    Geometry (in Angstrom), charge = 0, multiplicity = 1:

       Center              X                  Y                   Z               Mass
    ------------   -----------------  -----------------  -----------------  -----------------
         O            0.405050732083     1.743883635985     0.168375348367    15.994914619570
         O           -2.159903267917     0.920621635985    -0.974729651633    15.994914619570
         N           -2.676196267917    -0.438009364015     0.793608348367    14.003074004430
         C           -0.416356267917    -0.447363364015    -0.033967651633    12.000000000000
         C            0.694708732083     0.414092635985     0.051724348367    12.000000000000
         C           -0.216019267917    -1.828095364015    -0.100697651633    12.000000000000
         C            1.987412732083    -0.120979364015     0.057643348367    12.000000000000
         C            1.074248732083    -2.363782364015    -0.102170651633    12.000000000000
         C            2.168214732083    -1.505459364015    -0.026451651633    12.000000000000
         C           -1.805928267917     0.112622635985    -0.120970651633    12.000000000000
         C            1.506680732083     2.647461635985     0.186071348367    12.000000000000
         H           -1.083490267917    -2.479847364015    -0.177460651633     1.007825032230
         H            2.857443732083     0.522841635985     0.127904348367     1.007825032230
         H            1.213997232083    -3.388978264015    -0.165894051633     1.007825032230
         H            3.178906732083    -1.907029364015    -0.027338651633     1.007825032230
         H            2.106981732083     2.558056635985    -0.725406651633     1.007825032230
         H            2.143020732083     2.486783635985     1.063506348367     1.007825032230
         H            1.060530732083     3.639911635985     0.234642348367     1.007825032230
         H           -2.304422267917    -0.823879364015     1.650949348367     1.007825032230
         H           -3.588518267917     0.000359635985     0.847408348367     1.007825032230

  Basis Set: AUG-CC-PVTZ
    Blend: AUG-CC-PVTZ
  Basis Set: (AUG-CC-PVTZ AUX)
    Blend: AUG-CC-PVTZ-JKFIT
	 Reference Energy          =    -512.5446093127959557 [Eh]
	 Singles Energy            =      -0.0000000000000000 [Eh]
	 Same-Spin Energy          =      -0.5356277738641398 [Eh]
	 Opposite-Spin Energy      =      -1.6449755696709274 [Eh]
	 Correlation Energy        =      -2.1806033435350671 [Eh]
	 Total Energy              =    -514.7252126563309957 [Eh]

	 ================> DF-SCS-MP2 Energies <==================
	-----------------------------------------------------------
	 SCS Same-Spin Scale       =       0.3333333333333333 [-]
	 SCS Opposite-Spin Scale   =       1.2000000000000000 [-]
	 SCS Same-Spin Energy      =      -0.1785425912880466 [Eh]
	 SCS Opposite-Spin Energy  =      -1.9739706836051127 [Eh]
	 SCS Correlation Energy    =      -2.1525132748931592 [Eh]
	 SCS Total Energy          =    -514.6971225876891367 [Eh]
	-----------------------------------------------------------

  Dipole Moment: [D]
     X:     2.0019      Y:    -0.9302      Z:     2.8988     Total:     3.6436

*** Psi4 exiting successfully. Buy a developer a beer!
