                               Psi4 1.4a3.dev225

  ==> Input File <==

--------------------------------------------------------------------------
#psi4
#
memory 32 gb

molecule  {
0 1
  O        0.3703410     1.7406370     0.1509160
  O       -2.1946130     0.9173750    -0.9921890
  N       -2.7109060    -0.4412560     0.7761490
  C       -0.4510660    -0.4506100    -0.0514270
  C        0.6599990     0.4108460     0.0342650
  C       -0.2535975    -1.8115719    -0.1172015
  C        1.9527030    -0.1242260     0.0401840
  C        1.0395390    -2.3670290    -0.1196300
  C        2.1335050    -1.5087060    -0.0439110
  C       -1.8406380     0.1093760    -0.1384300
  C        1.4719710     2.6442150     0.1686120
  H       -1.1182000    -2.4830940    -0.1949200
  H        2.8227340     0.5195950     0.1104450
  H        1.1860280    -3.4416730    -0.1864270
  H        3.1441970    -1.9102760    -0.0447980
  H        2.0722720     2.5548100    -0.7428660
  H        2.1083110     2.4835370     1.0460470
  H        1.0258210     3.6366650     0.2171830
  H       -2.3391320    -0.8271260     1.6334900
  H       -3.6232280    -0.0028870     0.8299490
units angstrom
no_reorient  #important for SAPT in psi4, default
symmetry c1  #important for SAPT in psi4, default
}

set PROPERTIES_ORIGIN ["COM"]
properties('MP2/aug-cc-pvtz', properties = ['dipole'])
--------------------------------------------------------------------------

    Molecular point group: c1
  Charge       = 0
  Multiplicity = 1
  Basis Set: AUG-CC-PVTZ
    Blend: AUG-CC-PVTZ
  Basis Set: (AUG-CC-PVTZ AUX)
    Blend: AUG-CC-PVTZ-JKFIT

    Orbital Energies [Eh]
    ---------------------

    Doubly Occupied:

       1A    -20.590616     2A    -20.517705     3A    -15.582993
       4A    -11.355312     5A    -11.317580     6A    -11.287669
       7A    -11.255013     8A    -11.253648     9A    -11.246901
      10A    -11.241966    11A    -11.238946    12A     -1.414085
      13A     -1.369984    14A     -1.208274    15A     -1.158897
      16A     -1.044743    17A     -1.023237    18A     -0.949802
      19A     -0.876191    20A     -0.824439    21A     -0.790147
      22A     -0.735786    23A     -0.708602    24A     -0.682073
      25A     -0.666409    26A     -0.657272    27A     -0.638695
      28A     -0.622393    29A     -0.596687    30A     -0.582994
      31A     -0.558311    32A     -0.542986    33A     -0.530083
      34A     -0.519832    35A     -0.499743    36A     -0.475759
      37A     -0.424328    38A     -0.411668    39A     -0.354541
      40A     -0.321668

  @DF-RHF Final Energy:  -512.54512028756881

   => Energetics <=

    Nuclear Repulsion Energy =            592.9838029784432365
    One-Electron Energy =               -1874.9018872612080031
    Two-Electron Energy =                 769.3729639951959598
    Total Energy =                       -512.5451202875688068
  Basis Set: (AUG-CC-PVTZ AUX)
    Blend: AUG-CC-PVTZ-RI
    Molecular point group: c1

    Geometry (in Angstrom), charge = 0, multiplicity = 1:

       Center              X                  Y                   Z               Mass
    ------------   -----------------  -----------------  -----------------  -----------------
         O            0.405233627268     1.742643055834     0.168319952070    15.994914619570
         O           -2.159720372732     0.919381055834    -0.974785047930    15.994914619570
         N           -2.676013372732    -0.439249944166     0.793552952070    14.003074004430
         C           -0.416173372732    -0.448603944166    -0.034023047930    12.000000000000
         C            0.694891627268     0.412852055834     0.051668952070    12.000000000000
         C           -0.218704872732    -1.809565844166    -0.099797547930    12.000000000000
         C            1.987595627268    -0.122219944166     0.057587952070    12.000000000000
         C            1.074431627268    -2.365022944166    -0.102226047930    12.000000000000
         C            2.168397627268    -1.506699944166    -0.026507047930    12.000000000000
         C           -1.805745372732     0.111382055834    -0.121026047930    12.000000000000
         C            1.506863627268     2.646221055834     0.186015952070    12.000000000000
         H           -1.083307372732    -2.481087944166    -0.177516047930     1.007825032230
         H            2.857626627268     0.521601055834     0.127848952070     1.007825032230
         H            1.220920627268    -3.439666944166    -0.169023047930     1.007825032230
         H            3.179089627268    -1.908269944166    -0.027394047930     1.007825032230
         H            2.107164627268     2.556816055834    -0.725462047930     1.007825032230
         H            2.143203627268     2.485543055834     1.063450952070     1.007825032230
         H            1.060713627268     3.638671055834     0.234586952070     1.007825032230
         H           -2.304239372732    -0.825119944166     1.650893952070     1.007825032230
         H           -3.588335372732    -0.000880944166     0.847352952070     1.007825032230

  Basis Set: AUG-CC-PVTZ
    Blend: AUG-CC-PVTZ
  Basis Set: (AUG-CC-PVTZ AUX)
    Blend: AUG-CC-PVTZ-JKFIT
	 Reference Energy          =    -512.5451202875688068 [Eh]
	 Singles Energy            =      -0.0000000000000000 [Eh]
	 Same-Spin Energy          =      -0.5356385465706401 [Eh]
	 Opposite-Spin Energy      =      -1.6452307284520011 [Eh]
	 Correlation Energy        =      -2.1808692750226415 [Eh]
	 Total Energy              =    -514.7259895625913941 [Eh]

	 ================> DF-SCS-MP2 Energies <==================
	-----------------------------------------------------------
	 SCS Same-Spin Scale       =       0.3333333333333333 [-]
	 SCS Opposite-Spin Scale   =       1.2000000000000000 [-]
	 SCS Same-Spin Energy      =      -0.1785461821902134 [Eh]
	 SCS Opposite-Spin Energy  =      -1.9742768741424013 [Eh]
	 SCS Correlation Energy    =      -2.1528230563326147 [Eh]
	 SCS Total Energy          =    -514.6979433439014429 [Eh]
	-----------------------------------------------------------

  Dipole Moment: [D]
     X:     1.9834      Y:    -0.9087      Z:     2.9009     Total:     3.6297

*** Psi4 exiting successfully. Buy a developer a beer!
