                               Psi4 1.4a3.dev225

  ==> Input File <==

--------------------------------------------------------------------------
#psi4
#
memory 32 gb

molecule  {
0 1
  O        0.3703410     1.7406370     0.1509160
  O       -2.1946130     0.9173750    -0.9921890
  N       -2.7109060    -0.4412560     0.7761490
  C       -0.4510660    -0.4506100    -0.0514270
  C        0.6599990     0.4108460     0.0342650
  C       -0.2220436    -2.0290434    -0.1277118
  C        1.9527030    -0.1242260     0.0401840
  C        1.0395390    -2.3670290    -0.1196300
  C        2.1335050    -1.5087060    -0.0439110
  C       -1.8406380     0.1093760    -0.1384300
  C        1.4719710     2.6442150     0.1686120
  H       -1.1182000    -2.4830940    -0.1949200
  H        2.8227340     0.5195950     0.1104450
  H        1.1860280    -3.4416730    -0.1864270
  H        3.1441970    -1.9102760    -0.0447980
  H        2.0722720     2.5548100    -0.7428660
  H        2.1083110     2.4835370     1.0460470
  H        1.0258210     3.6366650     0.2171830
  H       -2.3391320    -0.8271260     1.6334900
  H       -3.6232280    -0.0028870     0.8299490
units angstrom
no_reorient  #important for SAPT in psi4, default
symmetry c1  #important for SAPT in psi4, default
}

set PROPERTIES_ORIGIN ["COM"]
properties('MP2/aug-cc-pvtz', properties = ['dipole'])
--------------------------------------------------------------------------

    Molecular point group: c1
  Charge       = 0
  Multiplicity = 1
  Basis Set: AUG-CC-PVTZ
    Blend: AUG-CC-PVTZ
  Basis Set: (AUG-CC-PVTZ AUX)
    Blend: AUG-CC-PVTZ-JKFIT

    Orbital Energies [Eh]
    ---------------------

    Doubly Occupied:

       1A    -20.588000     2A    -20.514318     3A    -15.580807
       4A    -11.352222     5A    -11.315510     6A    -11.287622
       7A    -11.258090     8A    -11.257387     9A    -11.255956
      10A    -11.250546    11A    -11.234549    12A     -1.412194
      13A     -1.366509    14A     -1.204509    15A     -1.153509
      16A     -1.042148    17A     -1.026568    18A     -0.945287
      19A     -0.886763    20A     -0.825284    21A     -0.782522
      22A     -0.733353    23A     -0.714843    24A     -0.685943
      25A     -0.663149    26A     -0.656489    27A     -0.648386
      28A     -0.623876    29A     -0.598045    30A     -0.575316
      31A     -0.563748    32A     -0.548538    33A     -0.528213
      34A     -0.504594    35A     -0.486583    36A     -0.478243
      37A     -0.418458    38A     -0.410084    39A     -0.350941
      40A     -0.320714

  @DF-RHF Final Energy:  -512.50301318993797

   => Energetics <=

    Nuclear Repulsion Energy =            589.7118586814216314
    One-Electron Energy =               -1868.3301122012269389
    Two-Electron Energy =                 766.1152403298674471
    Total Energy =                       -512.5030131899379739
  Basis Set: (AUG-CC-PVTZ AUX)
    Blend: AUG-CC-PVTZ-RI
    Molecular point group: c1

    Geometry (in Angstrom), charge = 0, multiplicity = 1:

       Center              X                  Y                   Z               Mass
    ------------   -----------------  -----------------  -----------------  -----------------
         O            0.402727083795     1.759918314001     0.169154857544    15.994914619570
         O           -2.162226916205     0.936656314001    -0.973950142456    15.994914619570
         N           -2.678519916205    -0.421974685999     0.794387857544    14.003074004430
         C           -0.418679916205    -0.431328685999    -0.033188142456    12.000000000000
         C            0.692385083795     0.430127314001     0.052503857544    12.000000000000
         C           -0.189657516205    -2.009762085999    -0.109472942456    12.000000000000
         C            1.985089083795    -0.104944685999     0.058422857544    12.000000000000
         C            1.071925083795    -2.347747685999    -0.101391142456    12.000000000000
         C            2.165891083795    -1.489424685999    -0.025672142456    12.000000000000
         C           -1.808251916205     0.128657314001    -0.120191142456    12.000000000000
         C            1.504357083795     2.663496314001     0.186850857544    12.000000000000
         H           -1.085813916205    -2.463812685999    -0.176681142456     1.007825032230
         H            2.855120083795     0.538876314001     0.128683857544     1.007825032230
         H            1.218414083795    -3.422391685999    -0.168188142456     1.007825032230
         H            3.176583083795    -1.890994685999    -0.026559142456     1.007825032230
         H            2.104658083795     2.574091314001    -0.724627142456     1.007825032230
         H            2.140697083795     2.502818314001     1.064285857544     1.007825032230
         H            1.058207083795     3.655946314001     0.235421857544     1.007825032230
         H           -2.306745916205    -0.807844685999     1.651728857544     1.007825032230
         H           -3.590841916205     0.016394314001     0.848187857544     1.007825032230

  Basis Set: AUG-CC-PVTZ
    Blend: AUG-CC-PVTZ
  Basis Set: (AUG-CC-PVTZ AUX)
    Blend: AUG-CC-PVTZ-JKFIT
	 Reference Energy          =    -512.5030131899379739 [Eh]
	 Singles Energy            =      -0.0000000000000000 [Eh]
	 Same-Spin Energy          =      -0.5360178955556816 [Eh]
	 Opposite-Spin Energy      =      -1.6481798753137773 [Eh]
	 Correlation Energy        =      -2.1841977708694591 [Eh]
	 Total Energy              =    -514.6872109608074197 [Eh]

	 ================> DF-SCS-MP2 Energies <==================
	-----------------------------------------------------------
	 SCS Same-Spin Scale       =       0.3333333333333333 [-]
	 SCS Opposite-Spin Scale   =       1.2000000000000000 [-]
	 SCS Same-Spin Energy      =      -0.1786726318518939 [Eh]
	 SCS Opposite-Spin Energy  =      -1.9778158503765326 [Eh]
	 SCS Correlation Energy    =      -2.1564884822284265 [Eh]
	 SCS Total Energy          =    -514.6595016721663569 [Eh]
	-----------------------------------------------------------

  Dipole Moment: [D]
     X:     2.1342      Y:    -0.9878      Z:     2.8852     Total:     3.7222

*** Psi4 exiting successfully. Buy a developer a beer!
