                               Psi4 1.4a3.dev225

  ==> Input File <==

--------------------------------------------------------------------------
#psi4
#
memory 32 gb

molecule  {
0 1
  O        0.3703410     1.7406370     0.1509160
  O       -2.1946130     0.9173750    -0.9921890
  N       -2.7109060    -0.4412560     0.7761490
  C       -0.4510660    -0.4506100    -0.0514270
  C        0.6599990     0.4108460     0.0342650
  C       -0.2747920    -1.8345075    -0.1204480
  C        1.9527030    -0.1242260     0.0401840
  C        1.0395390    -2.3670290    -0.1196300
  C        2.1335050    -1.5087060    -0.0439110
  C       -1.8406380     0.1093760    -0.1384300
  C        1.4719710     2.6442150     0.1686120
  H       -1.1182000    -2.4830940    -0.1949200
  H        2.8227340     0.5195950     0.1104450
  H        1.1860280    -3.4416730    -0.1864270
  H        3.1441970    -1.9102760    -0.0447980
  H        2.0722720     2.5548100    -0.7428660
  H        2.1083110     2.4835370     1.0460470
  H        1.0258210     3.6366650     0.2171830
  H       -2.3391320    -0.8271260     1.6334900
  H       -3.6232280    -0.0028870     0.8299490
units angstrom
no_reorient  #important for SAPT in psi4, default
symmetry c1  #important for SAPT in psi4, default
}

set PROPERTIES_ORIGIN ["COM"]
properties('MP2/aug-cc-pvtz', properties = ['dipole'])
--------------------------------------------------------------------------

    Molecular point group: c1
  Charge       = 0
  Multiplicity = 1
  Basis Set: AUG-CC-PVTZ
    Blend: AUG-CC-PVTZ
  Basis Set: (AUG-CC-PVTZ AUX)
    Blend: AUG-CC-PVTZ-JKFIT

    Orbital Energies [Eh]
    ---------------------

    Doubly Occupied:

       1A    -20.590466     2A    -20.517148     3A    -15.582766
       4A    -11.354585     5A    -11.317533     6A    -11.287740
       7A    -11.256195     8A    -11.253794     9A    -11.249152
      10A    -11.242856    11A    -11.240680    12A     -1.413965
      13A     -1.369515    14A     -1.207895    15A     -1.155931
      16A     -1.043300    17A     -1.023068    18A     -0.949186
      19A     -0.876543    20A     -0.826621    21A     -0.788278
      22A     -0.735538    23A     -0.709584    24A     -0.681050
      25A     -0.665578    26A     -0.657073    27A     -0.638527
      28A     -0.627209    29A     -0.596714    30A     -0.582130
      31A     -0.558576    32A     -0.541265    33A     -0.530486
      34A     -0.520487    35A     -0.501176    36A     -0.474530
      37A     -0.423523    38A     -0.411486    39A     -0.352531
      40A     -0.321524

  @DF-RHF Final Energy:  -512.54440386179624

   => Energetics <=

    Nuclear Repulsion Energy =            592.4158660166666550
    One-Electron Energy =               -1873.7681345030914599
    Two-Electron Energy =                 768.8078646246284507
    Total Energy =                       -512.5444038617962406
  Basis Set: (AUG-CC-PVTZ AUX)
    Blend: AUG-CC-PVTZ-RI
    Molecular point group: c1

    Geometry (in Angstrom), charge = 0, multiplicity = 1:

       Center              X                  Y                   Z               Mass
    ------------   -----------------  -----------------  -----------------  -----------------
         O            0.406917252291     1.744464988414     0.168577843912    15.994914619570
         O           -2.158036747709     0.921202988414    -0.974527156088    15.994914619570
         N           -2.674329747709    -0.437428011586     0.793810843912    14.003074004430
         C           -0.414489747709    -0.446782011586    -0.033765156088    12.000000000000
         C            0.696575252291     0.414673988414     0.051926843912    12.000000000000
         C           -0.238215747709    -1.830679511586    -0.102786156088    12.000000000000
         C            1.989279252291    -0.120398011586     0.057845843912    12.000000000000
         C            1.076115252291    -2.363201011586    -0.101968156088    12.000000000000
         C            2.170081252291    -1.504878011586    -0.026249156088    12.000000000000
         C           -1.804061747709     0.113203988414    -0.120768156088    12.000000000000
         C            1.508547252291     2.648042988414     0.186273843912    12.000000000000
         H           -1.081623747709    -2.479266011586    -0.177258156088     1.007825032230
         H            2.859310252291     0.523422988414     0.128106843912     1.007825032230
         H            1.222604252291    -3.437845011586    -0.168765156088     1.007825032230
         H            3.180773252291    -1.906448011586    -0.027136156088     1.007825032230
         H            2.108848252291     2.558637988414    -0.725204156088     1.007825032230
         H            2.144887252291     2.487364988414     1.063708843912     1.007825032230
         H            1.062397252291     3.640492988414     0.234844843912     1.007825032230
         H           -2.302555747709    -0.823298011586     1.651151843912     1.007825032230
         H           -3.586651747709     0.000940988414     0.847610843912     1.007825032230

  Basis Set: AUG-CC-PVTZ
    Blend: AUG-CC-PVTZ
  Basis Set: (AUG-CC-PVTZ AUX)
    Blend: AUG-CC-PVTZ-JKFIT
	 Reference Energy          =    -512.5444038617962406 [Eh]
	 Singles Energy            =      -0.0000000000000000 [Eh]
	 Same-Spin Energy          =      -0.5356850552259078 [Eh]
	 Opposite-Spin Energy      =      -1.6454262380334255 [Eh]
	 Correlation Energy        =      -2.1811112932593333 [Eh]
	 Total Energy              =    -514.7255151550555183 [Eh]

	 ================> DF-SCS-MP2 Energies <==================
	-----------------------------------------------------------
	 SCS Same-Spin Scale       =       0.3333333333333333 [-]
	 SCS Opposite-Spin Scale   =       1.2000000000000000 [-]
	 SCS Same-Spin Energy      =      -0.1785616850753026 [Eh]
	 SCS Opposite-Spin Energy  =      -1.9745114856401105 [Eh]
	 SCS Correlation Energy    =      -2.1530731707154129 [Eh]
	 SCS Total Energy          =    -514.6974770325116424 [Eh]
	-----------------------------------------------------------

  Dipole Moment: [D]
     X:     1.9946      Y:    -0.9156      Z:     2.8997     Total:     3.6366

*** Psi4 exiting successfully. Buy a developer a beer!
