                               Psi4 1.4a3.dev225

  ==> Input File <==

--------------------------------------------------------------------------
#psi4
#
memory 32 gb

molecule  {
0 1
  O        0.3703410     1.7406370     0.1509160
  O       -2.1946130     0.9173750    -0.9921890
  N       -2.7109060    -0.4412560     0.7761490
  C       -0.4510660    -0.4506100    -0.0514270
  C        0.6599990     0.4108460     0.0342650
  C       -0.2507290    -1.8313420    -0.1181570
  C        1.9527030    -0.1242260     0.0401840
  C        1.0395390    -2.3670290    -0.1196300
  C        2.1335050    -1.5087060    -0.0439110
  C       -1.8406380     0.1093760    -0.1384300
  C        1.4719710     2.6442150     0.1686120
  H       -1.1182000    -2.4830940    -0.1949200
  H        2.8227340     0.5195950     0.1104450
  H        1.1860280    -3.4416730    -0.1864270
  H        3.1441970    -1.9102760    -0.0447980
  H        2.0722720     2.5548100    -0.7428660
  H        2.1083110     2.4835370     1.0460470
  H        1.0053405     3.6822235     0.2194127
  H       -2.3391320    -0.8271260     1.6334900
  H       -3.6232280    -0.0028870     0.8299490
units angstrom
no_reorient  #important for SAPT in psi4, default
symmetry c1  #important for SAPT in psi4, default
}

set PROPERTIES_ORIGIN ["COM"]
properties('MP2/aug-cc-pvtz', properties = ['dipole'])
--------------------------------------------------------------------------

    Molecular point group: c1
  Charge       = 0
  Multiplicity = 1
  Basis Set: AUG-CC-PVTZ
    Blend: AUG-CC-PVTZ
  Basis Set: (AUG-CC-PVTZ AUX)
    Blend: AUG-CC-PVTZ-JKFIT

    Orbital Energies [Eh]
    ---------------------

    Doubly Occupied:

       1A    -20.590881     2A    -20.517512     3A    -15.582905
       4A    -11.355174     5A    -11.317764     6A    -11.293448
       7A    -11.255556     8A    -11.254325     9A    -11.248528
      10A    -11.243009    11A    -11.238629    12A     -1.414254
      13A     -1.369778    14A     -1.207981    15A     -1.158060
      16A     -1.042841    17A     -1.024299    18A     -0.946001
      19A     -0.877373    20A     -0.823644    21A     -0.789417
      22A     -0.735666    23A     -0.709181    24A     -0.681282
      25A     -0.665312    26A     -0.657568    27A     -0.638757
      28A     -0.623068    29A     -0.595686    30A     -0.579433
      31A     -0.558430    32A     -0.541846    33A     -0.529965
      34A     -0.517756    35A     -0.499137    36A     -0.476088
      37A     -0.424211    38A     -0.411717    39A     -0.352536
      40A     -0.323052

  @DF-RHF Final Energy:  -512.54316716847745

   => Energetics <=

    Nuclear Repulsion Energy =            592.4265722789485835
    One-Electron Energy =               -1873.7953346616227464
    Two-Electron Energy =                 768.8255952141965963
    Total Energy =                       -512.5431671684774528
  Basis Set: (AUG-CC-PVTZ AUX)
    Blend: AUG-CC-PVTZ-RI
    Molecular point group: c1

    Geometry (in Angstrom), charge = 0, multiplicity = 1:

       Center              X                  Y                   Z               Mass
    ------------   -----------------  -----------------  -----------------  -----------------
         O            0.405142399042     1.743909585607     0.168380978479    15.994914619570
         O           -2.159811600958     0.920647585607    -0.974724021521    15.994914619570
         N           -2.676104600958    -0.437983414393     0.793613978479    14.003074004430
         C           -0.416264600958    -0.447337414393    -0.033962021521    12.000000000000
         C            0.694800399042     0.414118585607     0.051729978479    12.000000000000
         C           -0.215927600958    -1.828069414393    -0.100692021521    12.000000000000
         C            1.987504399042    -0.120953414393     0.057648978479    12.000000000000
         C            1.074340399042    -2.363756414393    -0.102165021521    12.000000000000
         C            2.168306399042    -1.505433414393    -0.026446021521    12.000000000000
         C           -1.805836600958     0.112648585607    -0.120965021521    12.000000000000
         C            1.506772399042     2.647487585607     0.186076978479    12.000000000000
         H           -1.083398600958    -2.479821414393    -0.177455021521     1.007825032230
         H            2.857535399042     0.522867585607     0.127909978479     1.007825032230
         H            1.220829399042    -3.438400414393    -0.168962021521     1.007825032230
         H            3.178998399042    -1.907003414393    -0.027333021521     1.007825032230
         H            2.107073399042     2.558082585607    -0.725401021521     1.007825032230
         H            2.143112399042     2.486809585607     1.063511978479     1.007825032230
         H            1.040141899042     3.685496085607     0.236877678479     1.007825032230
         H           -2.304330600958    -0.823853414393     1.650954978479     1.007825032230
         H           -3.588426600958     0.000385585607     0.847413978479     1.007825032230

  Basis Set: AUG-CC-PVTZ
    Blend: AUG-CC-PVTZ
  Basis Set: (AUG-CC-PVTZ AUX)
    Blend: AUG-CC-PVTZ-JKFIT
	 Reference Energy          =    -512.5431671684774528 [Eh]
	 Singles Energy            =      -0.0000000000000000 [Eh]
	 Same-Spin Energy          =      -0.5357349631682361 [Eh]
	 Opposite-Spin Energy      =      -1.6456750325972644 [Eh]
	 Correlation Energy        =      -2.1814099957655007 [Eh]
	 Total Energy              =    -514.7245771642429872 [Eh]

	 ================> DF-SCS-MP2 Energies <==================
	-----------------------------------------------------------
	 SCS Same-Spin Scale       =       0.3333333333333333 [-]
	 SCS Opposite-Spin Scale   =       1.2000000000000000 [-]
	 SCS Same-Spin Energy      =      -0.1785783210560787 [Eh]
	 SCS Opposite-Spin Energy  =      -1.9748100391167172 [Eh]
	 SCS Correlation Energy    =      -2.1533883601727957 [Eh]
	 SCS Total Energy          =    -514.6965555286502649 [Eh]
	-----------------------------------------------------------

  Dipole Moment: [D]
     X:     1.9926      Y:    -0.9436      Z:     2.8976     Total:     3.6410

*** Psi4 exiting successfully. Buy a developer a beer!
