                               Psi4 1.4a3.dev225

  ==> Input File <==

--------------------------------------------------------------------------
#psi4
#
memory 32 gb

molecule  {
0 1
  O        0.3703410     1.7406370     0.1509160
  O       -2.1946130     0.9173750    -0.9921890
  N       -2.7109060    -0.4412560     0.7761490
  C       -0.4510660    -0.4506100    -0.0514270
  C        0.6599990     0.4108460     0.0342650
  C       -0.2507290    -1.8313420    -0.1181570
  C        1.9527030    -0.1242260     0.0401840
  C        1.0395390    -2.3670290    -0.1196300
  C        2.1335050    -1.5087060    -0.0439110
  C       -1.8406380     0.1093760    -0.1384300
  C        1.4719710     2.6442150     0.1686120
  H       -1.1182000    -2.4830940    -0.1949200
  H        2.8227340     0.5195950     0.1104450
  H        1.1860280    -3.4416730    -0.1864270
  H        3.0512638    -1.8733516    -0.0447164
  H        2.0722720     2.5548100    -0.7428660
  H        2.1083110     2.4835370     1.0460470
  H        1.0258210     3.6366650     0.2171830
  H       -2.3391320    -0.8271260     1.6334900
  H       -3.6232280    -0.0028870     0.8299490
units angstrom
no_reorient  #important for SAPT in psi4, default
symmetry c1  #important for SAPT in psi4, default
}

set PROPERTIES_ORIGIN ["COM"]
properties('MP2/aug-cc-pvtz', properties = ['dipole'])
--------------------------------------------------------------------------

    Molecular point group: c1
  Charge       = 0
  Multiplicity = 1
  Basis Set: AUG-CC-PVTZ
    Blend: AUG-CC-PVTZ
  Basis Set: (AUG-CC-PVTZ AUX)
    Blend: AUG-CC-PVTZ-JKFIT

    Orbital Energies [Eh]
    ---------------------

    Doubly Occupied:

       1A    -20.589981     2A    -20.517230     3A    -15.582643
       4A    -11.354869     5A    -11.316873     6A    -11.287478
       7A    -11.254777     8A    -11.248050     9A    -11.242720
      10A    -11.241527    11A    -11.237641    12A     -1.413565
      13A     -1.369494    14A     -1.207704    15A     -1.158239
      16A     -1.045929    17A     -1.024147    18A     -0.949482
      19A     -0.883614    20A     -0.824022    21A     -0.790862
      22A     -0.737001    23A     -0.715319    24A     -0.682503
      25A     -0.665722    26A     -0.657008    27A     -0.643512
      28A     -0.623766    29A     -0.601090    30A     -0.581812
      31A     -0.558108    32A     -0.547647    33A     -0.529921
      34A     -0.518287    35A     -0.502228    36A     -0.475387
      37A     -0.424018    38A     -0.411467    39A     -0.351953
      40A     -0.322369

  @DF-RHF Final Energy:  -512.53956190118572

   => Energetics <=

    Nuclear Repulsion Energy =            593.2241808186603294
    One-Electron Energy =               -1875.3475510482792288
    Two-Electron Energy =                 769.5838083284332924
    Total Energy =                       -512.5395619011857207
  Basis Set: (AUG-CC-PVTZ AUX)
    Blend: AUG-CC-PVTZ-RI
    Molecular point group: c1

    Geometry (in Angstrom), charge = 0, multiplicity = 1:

       Center              X                  Y                   Z               Mass
    ------------   -----------------  -----------------  -----------------  -----------------
         O            0.405625770125     1.743967188350     0.168395309614    15.994914619570
         O           -2.159328229875     0.920705188350    -0.974709690386    15.994914619570
         N           -2.675621229875    -0.437925811650     0.793628309614    14.003074004430
         C           -0.415781229875    -0.447279811650    -0.033947690386    12.000000000000
         C            0.695283770125     0.414176188350     0.051744309614    12.000000000000
         C           -0.215444229875    -1.828011811650    -0.100677690386    12.000000000000
         C            1.987987770125    -0.120895811650     0.057663309614    12.000000000000
         C            1.074823770125    -2.363698811650    -0.102150690386    12.000000000000
         C            2.168789770125    -1.505375811650    -0.026431690386    12.000000000000
         C           -1.805353229875     0.112706188350    -0.120950690386    12.000000000000
         C            1.507255770125     2.647545188350     0.186091309614    12.000000000000
         H           -1.082915229875    -2.479763811650    -0.177440690386     1.007825032230
         H            2.858018770125     0.522925188350     0.127924309614     1.007825032230
         H            1.221312770125    -3.438342811650    -0.168947690386     1.007825032230
         H            3.086548570125    -1.870021411650    -0.027237090386     1.007825032230
         H            2.107556770125     2.558140188350    -0.725386690386     1.007825032230
         H            2.143595770125     2.486867188350     1.063526309614     1.007825032230
         H            1.061105770125     3.639995188350     0.234662309614     1.007825032230
         H           -2.303847229875    -0.823795811650     1.650969309614     1.007825032230
         H           -3.587943229875     0.000443188350     0.847428309614     1.007825032230

  Basis Set: AUG-CC-PVTZ
    Blend: AUG-CC-PVTZ
  Basis Set: (AUG-CC-PVTZ AUX)
    Blend: AUG-CC-PVTZ-JKFIT
	 Reference Energy          =    -512.5395619011857207 [Eh]
	 Singles Energy            =      -0.0000000000000000 [Eh]
	 Same-Spin Energy          =      -0.5355713886093081 [Eh]
	 Opposite-Spin Energy      =      -1.6448078707693390 [Eh]
	 Correlation Energy        =      -2.1803792593786469 [Eh]
	 Total Energy              =    -514.7199411605644173 [Eh]

	 ================> DF-SCS-MP2 Energies <==================
	-----------------------------------------------------------
	 SCS Same-Spin Scale       =       0.3333333333333333 [-]
	 SCS Opposite-Spin Scale   =       1.2000000000000000 [-]
	 SCS Same-Spin Energy      =      -0.1785237962031027 [Eh]
	 SCS Opposite-Spin Energy  =      -1.9737694449232066 [Eh]
	 SCS Correlation Energy    =      -2.1522932411263094 [Eh]
	 SCS Total Energy          =    -514.6918551423120789 [Eh]
	-----------------------------------------------------------

  Dipole Moment: [D]
     X:     2.0231      Y:    -0.9289      Z:     2.8993     Total:     3.6554

*** Psi4 exiting successfully. Buy a developer a beer!
