                               Psi4 1.4a3.dev225

  ==> Input File <==

--------------------------------------------------------------------------
#psi4
#
memory 32 gb

molecule  {
0 1
  O        0.3703410     1.7406370     0.1509160
  O       -2.1946130     0.9173750    -0.9921890
  N       -2.7109060    -0.4412560     0.7761490
  C       -0.4510660    -0.4506100    -0.0514270
  C        0.6599990     0.4108460     0.0342650
  C       -0.2507290    -1.8313420    -0.1181570
  C        1.9527030    -0.1242260     0.0401840
  C        1.0395390    -2.3670290    -0.1196300
  C        2.1483697    -1.5279104    -0.0448785
  C       -1.8406380     0.1093760    -0.1384300
  C        1.4719710     2.6442150     0.1686120
  H       -1.1182000    -2.4830940    -0.1949200
  H        2.8227340     0.5195950     0.1104450
  H        1.1860280    -3.4416730    -0.1864270
  H        3.1441970    -1.9102760    -0.0447980
  H        2.0722720     2.5548100    -0.7428660
  H        2.1083110     2.4835370     1.0460470
  H        1.0258210     3.6366650     0.2171830
  H       -2.3391320    -0.8271260     1.6334900
  H       -3.6232280    -0.0028870     0.8299490
units angstrom
no_reorient  #important for SAPT in psi4, default
symmetry c1  #important for SAPT in psi4, default
}

set PROPERTIES_ORIGIN ["COM"]
properties('MP2/aug-cc-pvtz', properties = ['dipole'])
--------------------------------------------------------------------------

    Molecular point group: c1
  Charge       = 0
  Multiplicity = 1
  Basis Set: AUG-CC-PVTZ
    Blend: AUG-CC-PVTZ
  Basis Set: (AUG-CC-PVTZ AUX)
    Blend: AUG-CC-PVTZ-JKFIT

    Orbital Energies [Eh]
    ---------------------

    Doubly Occupied:

       1A    -20.590075     2A    -20.517660     3A    -15.583021
       4A    -11.355316     5A    -11.317048     6A    -11.287364
       7A    -11.255654     8A    -11.254691     9A    -11.249139
      10A    -11.244430    11A    -11.239025    12A     -1.413614
      13A     -1.369901    14A     -1.208062    15A     -1.155994
      16A     -1.041987    17A     -1.023574    18A     -0.949239
      19A     -0.878895    20A     -0.823317    21A     -0.789361
      22A     -0.735437    23A     -0.710496    24A     -0.681356
      25A     -0.665321    26A     -0.656748    27A     -0.640494
      28A     -0.623398    29A     -0.598773    30A     -0.580935
      31A     -0.558279    32A     -0.544747    33A     -0.529371
      34A     -0.516288    35A     -0.502250    36A     -0.474910
      37A     -0.424408    38A     -0.411798    39A     -0.350126
      40A     -0.323546

  @DF-RHF Final Energy:  -512.54435489921218

   => Energetics <=

    Nuclear Repulsion Energy =            592.2030239668675904
    One-Electron Energy =               -1873.3426628962738505
    Two-Electron Energy =                 768.5952840301941933
    Total Energy =                       -512.5443548992121805
  Basis Set: (AUG-CC-PVTZ AUX)
    Blend: AUG-CC-PVTZ-RI
    Molecular point group: c1

    Geometry (in Angstrom), charge = 0, multiplicity = 1:

       Center              X                  Y                   Z               Mass
    ------------   -----------------  -----------------  -----------------  -----------------
         O            0.403824957129     1.745739068642     0.168472709196    15.994914619570
         O           -2.161129042871     0.922477068642    -0.974632290804    15.994914619570
         N           -2.677422042871    -0.436153931358     0.793705709196    14.003074004430
         C           -0.417582042871    -0.445507931358    -0.033870290804    12.000000000000
         C            0.693482957129     0.415948068642     0.051821709196    12.000000000000
         C           -0.217245042871    -1.826239931358    -0.100600290804    12.000000000000
         C            1.986186957129    -0.119123931358     0.057740709196    12.000000000000
         C            1.073022957129    -2.361926931358    -0.102073290804    12.000000000000
         C            2.181853657129    -1.522808331358    -0.027321790804    12.000000000000
         C           -1.807154042871     0.114478068642    -0.120873290804    12.000000000000
         C            1.505454957129     2.649317068642     0.186168709196    12.000000000000
         H           -1.084716042871    -2.477991931358    -0.177363290804     1.007825032230
         H            2.856217957129     0.524697068642     0.128001709196     1.007825032230
         H            1.219511957129    -3.436570931358    -0.168870290804     1.007825032230
         H            3.177680957129    -1.905173931358    -0.027241290804     1.007825032230
         H            2.105755957129     2.559912068642    -0.725309290804     1.007825032230
         H            2.141794957129     2.488639068642     1.063603709196     1.007825032230
         H            1.059304957129     3.641767068642     0.234739709196     1.007825032230
         H           -2.305648042871    -0.822023931358     1.651046709196     1.007825032230
         H           -3.589744042871     0.002215068642     0.847505709196     1.007825032230

  Basis Set: AUG-CC-PVTZ
    Blend: AUG-CC-PVTZ
  Basis Set: (AUG-CC-PVTZ AUX)
    Blend: AUG-CC-PVTZ-JKFIT
	 Reference Energy          =    -512.5443548992121805 [Eh]
	 Singles Energy            =      -0.0000000000000000 [Eh]
	 Same-Spin Energy          =      -0.5357094428334193 [Eh]
	 Opposite-Spin Energy      =      -1.6454954245948019 [Eh]
	 Correlation Energy        =      -2.1812048674282210 [Eh]
	 Total Energy              =    -514.7255597666403446 [Eh]

	 ================> DF-SCS-MP2 Energies <==================
	-----------------------------------------------------------
	 SCS Same-Spin Scale       =       0.3333333333333333 [-]
	 SCS Opposite-Spin Scale   =       1.2000000000000000 [-]
	 SCS Same-Spin Energy      =      -0.1785698142778064 [Eh]
	 SCS Opposite-Spin Energy  =      -1.9745945095137623 [Eh]
	 SCS Correlation Energy    =      -2.1531643237915685 [Eh]
	 SCS Total Energy          =    -514.6975192230037237 [Eh]
	-----------------------------------------------------------

  Dipole Moment: [D]
     X:     1.9926      Y:    -0.9254      Z:     2.8986     Total:     3.6372

*** Psi4 exiting successfully. Buy a developer a beer!
