                               Psi4 1.4a3.dev225

  ==> Input File <==

--------------------------------------------------------------------------
#psi4
#
memory 32 gb

molecule  {
0 1
  O        0.3703410     1.7406370     0.1509160
  O       -2.1946130     0.9173750    -0.9921890
  N       -2.7109060    -0.4412560     0.7761490
  C       -0.4510660    -0.4506100    -0.0514270
  C        0.6748473     0.3912688     0.0350272
  C       -0.2507290    -1.8313420    -0.1181570
  C        1.9527030    -0.1242260     0.0401840
  C        1.0395390    -2.3670290    -0.1196300
  C        2.1335050    -1.5087060    -0.0439110
  C       -1.8406380     0.1093760    -0.1384300
  C        1.4719710     2.6442150     0.1686120
  H       -1.1182000    -2.4830940    -0.1949200
  H        2.8227340     0.5195950     0.1104450
  H        1.1860280    -3.4416730    -0.1864270
  H        3.1441970    -1.9102760    -0.0447980
  H        2.0722720     2.5548100    -0.7428660
  H        2.1083110     2.4835370     1.0460470
  H        1.0258210     3.6366650     0.2171830
  H       -2.3391320    -0.8271260     1.6334900
  H       -3.6232280    -0.0028870     0.8299490
units angstrom
no_reorient  #important for SAPT in psi4, default
symmetry c1  #important for SAPT in psi4, default
}

set PROPERTIES_ORIGIN ["COM"]
properties('MP2/aug-cc-pvtz', properties = ['dipole'])
--------------------------------------------------------------------------

    Molecular point group: c1
  Charge       = 0
  Multiplicity = 1
  Basis Set: AUG-CC-PVTZ
    Blend: AUG-CC-PVTZ
  Basis Set: (AUG-CC-PVTZ AUX)
    Blend: AUG-CC-PVTZ-JKFIT

    Orbital Energies [Eh]
    ---------------------

    Doubly Occupied:

       1A    -20.586813     2A    -20.517810     3A    -15.583364
       4A    -11.356099     5A    -11.315248     6A    -11.285022
       7A    -11.255962     8A    -11.254962     9A    -11.249821
      10A    -11.241794    11A    -11.239757    12A     -1.403925
      13A     -1.369781    14A     -1.208444    15A     -1.160832
      16A     -1.043494    17A     -1.026849    18A     -0.945803
      19A     -0.879007    20A     -0.824189    21A     -0.790402
      22A     -0.735623    23A     -0.707833    24A     -0.680006
      25A     -0.664607    26A     -0.653136    27A     -0.638412
      28A     -0.625531    29A     -0.596808    30A     -0.581151
      31A     -0.559011    32A     -0.544027    33A     -0.529168
      34A     -0.516268    35A     -0.501386    36A     -0.474129
      37A     -0.424898    38A     -0.412045    39A     -0.353769
      40A     -0.325894

  @DF-RHF Final Energy:  -512.54419064040746

   => Energetics <=

    Nuclear Repulsion Energy =            592.6093579705006960
    One-Electron Energy =               -1874.1809333755538773
    Two-Electron Energy =                 769.0273847646457170
    Total Energy =                       -512.5441906404074643
  Basis Set: (AUG-CC-PVTZ AUX)
    Blend: AUG-CC-PVTZ-RI
    Molecular point group: c1

    Geometry (in Angstrom), charge = 0, multiplicity = 1:

       Center              X                  Y                   Z               Mass
    ------------   -----------------  -----------------  -----------------  -----------------
         O            0.403826259893     1.745768682712     0.168335307219    15.994914619570
         O           -2.161127740107     0.922506682712    -0.974769692781    15.994914619570
         N           -2.677420740107    -0.436124317288     0.793568307219    14.003074004430
         C           -0.417580740107    -0.445478317288    -0.034007692781    12.000000000000
         C            0.708332559893     0.396400482712     0.052446507219    12.000000000000
         C           -0.217243740107    -1.826210317288    -0.100737692781    12.000000000000
         C            1.986188259893    -0.119094317288     0.057603307219    12.000000000000
         C            1.073024259893    -2.361897317288    -0.102210692781    12.000000000000
         C            2.166990259893    -1.503574317288    -0.026491692781    12.000000000000
         C           -1.807152740107     0.114507682712    -0.121010692781    12.000000000000
         C            1.505456259893     2.649346682712     0.186031307219    12.000000000000
         H           -1.084714740107    -2.477962317288    -0.177500692781     1.007825032230
         H            2.856219259893     0.524726682712     0.127864307219     1.007825032230
         H            1.219513259893    -3.436541317288    -0.169007692781     1.007825032230
         H            3.177682259893    -1.905144317288    -0.027378692781     1.007825032230
         H            2.105757259893     2.559941682712    -0.725446692781     1.007825032230
         H            2.141796259893     2.488668682712     1.063466307219     1.007825032230
         H            1.059306259893     3.641796682712     0.234602307219     1.007825032230
         H           -2.305646740107    -0.821994317288     1.650909307219     1.007825032230
         H           -3.589742740107     0.002244682712     0.847368307219     1.007825032230

  Basis Set: AUG-CC-PVTZ
    Blend: AUG-CC-PVTZ
  Basis Set: (AUG-CC-PVTZ AUX)
    Blend: AUG-CC-PVTZ-JKFIT
	 Reference Energy          =    -512.5441906404074643 [Eh]
	 Singles Energy            =      -0.0000000000000000 [Eh]
	 Same-Spin Energy          =      -0.5357155863824278 [Eh]
	 Opposite-Spin Energy      =      -1.6456174245923967 [Eh]
	 Correlation Energy        =      -2.1813330109748246 [Eh]
	 Total Energy              =    -514.7255236513823320 [Eh]

	 ================> DF-SCS-MP2 Energies <==================
	-----------------------------------------------------------
	 SCS Same-Spin Scale       =       0.3333333333333333 [-]
	 SCS Opposite-Spin Scale   =       1.2000000000000000 [-]
	 SCS Same-Spin Energy      =      -0.1785718621274759 [Eh]
	 SCS Opposite-Spin Energy  =      -1.9747409095108759 [Eh]
	 SCS Correlation Energy    =      -2.1533127716383520 [Eh]
	 SCS Total Energy          =    -514.6975034120457622 [Eh]
	-----------------------------------------------------------

  Dipole Moment: [D]
     X:     1.9902      Y:    -1.0707      Z:     2.8876     Total:     3.6668

*** Psi4 exiting successfully. Buy a developer a beer!
