                               Psi4 1.4a3.dev225

  ==> Input File <==

--------------------------------------------------------------------------
#psi4
#
memory 32 gb

molecule  {
0 1
  O        0.3703410     1.7406370     0.1509160
  O       -2.1946130     0.9173750    -0.9921890
  N       -2.7109060    -0.4412560     0.7761490
  C       -0.4510660    -0.4506100    -0.0514270
  C        0.6599990     0.4108460     0.0342650
  C       -0.2507290    -1.8313420    -0.1181570
  C        1.9527030    -0.1242260     0.0401840
  C        1.0395390    -2.3670290    -0.1196300
  C        2.1335050    -1.5087060    -0.0439110
  C       -1.8406380     0.1093760    -0.1384300
  C        1.4719710     2.6442150     0.1686120
  H       -1.1182000    -2.4830940    -0.1949200
  H        2.8227340     0.5195950     0.1104450
  H        1.1860280    -3.4416730    -0.1864270
  H        3.1441970    -1.9102760    -0.0447980
  H        1.9760008     2.5764583    -0.8011868
  H        2.1083110     2.4835370     1.0460470
  H        1.0258210     3.6366650     0.2171830
  H       -2.3391320    -0.8271260     1.6334900
  H       -3.6232280    -0.0028870     0.8299490
units angstrom
no_reorient  #important for SAPT in psi4, default
symmetry c1  #important for SAPT in psi4, default
}

set PROPERTIES_ORIGIN ["COM"]
properties('MP2/aug-cc-pvtz', properties = ['dipole'])
--------------------------------------------------------------------------

    Molecular point group: c1
  Charge       = 0
  Multiplicity = 1
  Basis Set: AUG-CC-PVTZ
    Blend: AUG-CC-PVTZ
  Basis Set: (AUG-CC-PVTZ AUX)
    Blend: AUG-CC-PVTZ-JKFIT

    Orbital Energies [Eh]
    ---------------------

    Doubly Occupied:

       1A    -20.588590     2A    -20.517208     3A    -15.582642
       4A    -11.354851     5A    -11.316981     6A    -11.287506
       7A    -11.255090     8A    -11.253804     9A    -11.247923
      10A    -11.242228    11A    -11.238082    12A     -1.413296
      13A     -1.369475    14A     -1.207697    15A     -1.157595
      16A     -1.042517    17A     -1.024544    18A     -0.948930
      19A     -0.876858    20A     -0.823543    21A     -0.788713
      22A     -0.734504    23A     -0.707117    24A     -0.681273
      25A     -0.666649    26A     -0.661307    27A     -0.638450
      28A     -0.622668    29A     -0.596312    30A     -0.581822
      31A     -0.558428    32A     -0.541321    33A     -0.533366
      34A     -0.517635    35A     -0.496802    36A     -0.476554
      37A     -0.423901    38A     -0.411453    39A     -0.352040
      40A     -0.322327

  @DF-RHF Final Energy:  -512.54419027738641

   => Energetics <=

    Nuclear Repulsion Energy =            592.7179855582602386
    One-Electron Energy =               -1874.4003445977627962
    Two-Electron Energy =                 769.1381687621160381
    Total Energy =                       -512.5441902773864058
  Basis Set: (AUG-CC-PVTZ AUX)
    Blend: AUG-CC-PVTZ-RI
    Molecular point group: c1

    Geometry (in Angstrom), charge = 0, multiplicity = 1:

       Center              X                  Y                   Z               Mass
    ------------   -----------------  -----------------  -----------------  -----------------
         O            0.405648039725     1.744069103462     0.168784943559    15.994914619570
         O           -2.159305960275     0.920807103462    -0.974320056441    15.994914619570
         N           -2.675598960275    -0.437823896538     0.794017943559    14.003074004430
         C           -0.415758960275    -0.447177896538    -0.033558056441    12.000000000000
         C            0.695306039725     0.414278103462     0.052133943559    12.000000000000
         C           -0.215421960275    -1.827909896538    -0.100288056441    12.000000000000
         C            1.988010039725    -0.120793896538     0.058052943559    12.000000000000
         C            1.074846039725    -2.363596896538    -0.101761056441    12.000000000000
         C            2.168812039725    -1.505273896538    -0.026042056441    12.000000000000
         C           -1.805330960275     0.112808103462    -0.120561056441    12.000000000000
         C            1.507278039725     2.647647103462     0.186480943559    12.000000000000
         H           -1.082892960275    -2.479661896538    -0.177051056441     1.007825032230
         H            2.858041039725     0.523027103462     0.128313943559     1.007825032230
         H            1.221335039725    -3.438240896538    -0.168558056441     1.007825032230
         H            3.179504039725    -1.906843896538    -0.026929056441     1.007825032230
         H            2.011307839725     2.579890403462    -0.783317856441     1.007825032230
         H            2.143618039725     2.486969103462     1.063915943559     1.007825032230
         H            1.061128039725     3.640097103462     0.235051943559     1.007825032230
         H           -2.303824960275    -0.823693896538     1.651358943559     1.007825032230
         H           -3.587920960275     0.000545103462     0.847817943559     1.007825032230

  Basis Set: AUG-CC-PVTZ
    Blend: AUG-CC-PVTZ
  Basis Set: (AUG-CC-PVTZ AUX)
    Blend: AUG-CC-PVTZ-JKFIT
	 Reference Energy          =    -512.5441902773864058 [Eh]
	 Singles Energy            =      -0.0000000000000000 [Eh]
	 Same-Spin Energy          =      -0.5357124720624138 [Eh]
	 Opposite-Spin Energy      =      -1.6453112055219090 [Eh]
	 Correlation Energy        =      -2.1810236775843226 [Eh]
	 Total Energy              =    -514.7252139549707408 [Eh]

	 ================> DF-SCS-MP2 Energies <==================
	-----------------------------------------------------------
	 SCS Same-Spin Scale       =       0.3333333333333333 [-]
	 SCS Opposite-Spin Scale   =       1.2000000000000000 [-]
	 SCS Same-Spin Energy      =      -0.1785708240208046 [Eh]
	 SCS Opposite-Spin Energy  =      -1.9743734466262908 [Eh]
	 SCS Correlation Energy    =      -2.1529442706470951 [Eh]
	 SCS Total Energy          =    -514.6971345480335458 [Eh]
	-----------------------------------------------------------

  Dipole Moment: [D]
     X:     1.9869      Y:    -0.8672      Z:     2.8977     Total:     3.6189

*** Psi4 exiting successfully. Buy a developer a beer!
