                               Psi4 1.4a3.dev225

  ==> Input File <==

--------------------------------------------------------------------------
#psi4
#
memory 32 gb

molecule  {
0 1
  O        0.3703410     1.7406370     0.1509160
  O       -2.1946130     0.9173750    -0.9921890
  N       -2.7109060    -0.4412560     0.7761490
  C       -0.4510660    -0.4506100    -0.0514270
  C        0.6599990     0.4108460     0.0342650
  C       -0.2507290    -1.8313420    -0.1181570
  C        1.9527030    -0.1242260     0.0401840
  C        1.0395390    -2.3670290    -0.1196300
  C        2.1335050    -1.5087060    -0.0439110
  C       -1.8406380     0.1093760    -0.1384300
  C        1.4719710     2.6442150     0.1686120
  H       -1.1182000    -2.4830940    -0.1949200
  H        2.8227340     0.5195950     0.1104450
  H        1.1860280    -3.4416730    -0.1864270
  H        3.1441970    -1.9102760    -0.0447980
  H        2.0877053     2.5512909    -0.7321561
  H        2.1083110     2.4835370     1.0460470
  H        1.0258210     3.6366650     0.2171830
  H       -2.3391320    -0.8271260     1.6334900
  H       -3.6232280    -0.0028870     0.8299490
units angstrom
no_reorient  #important for SAPT in psi4, default
symmetry c1  #important for SAPT in psi4, default
}

set PROPERTIES_ORIGIN ["COM"]
properties('MP2/aug-cc-pvtz', properties = ['dipole'])
--------------------------------------------------------------------------

    Molecular point group: c1
  Charge       = 0
  Multiplicity = 1
  Basis Set: AUG-CC-PVTZ
    Blend: AUG-CC-PVTZ
  Basis Set: (AUG-CC-PVTZ AUX)
    Blend: AUG-CC-PVTZ-JKFIT

    Orbital Energies [Eh]
    ---------------------

    Doubly Occupied:

       1A    -20.590652     2A    -20.517430     3A    -15.582833
       4A    -11.355083     5A    -11.317486     6A    -11.287694
       7A    -11.255389     8A    -11.254153     9A    -11.248337
      10A    -11.242799    11A    -11.238466    12A     -1.414015
      13A     -1.369698    14A     -1.207904    15A     -1.157933
      16A     -1.042863    17A     -1.024705    18A     -0.949629
      19A     -0.877250    20A     -0.824445    21A     -0.789387
      22A     -0.735700    23A     -0.709271    24A     -0.681857
      25A     -0.665878    26A     -0.656323    27A     -0.639484
      28A     -0.623654    29A     -0.596590    30A     -0.582258
      31A     -0.558271    32A     -0.544075    33A     -0.529696
      34A     -0.518883    35A     -0.500974    36A     -0.475581
      37A     -0.424143    38A     -0.411645    39A     -0.352361
      40A     -0.322857

  @DF-RHF Final Energy:  -512.54532042315066

   => Energetics <=

    Nuclear Repulsion Energy =            592.6529740080674173
    One-Electron Energy =               -1874.2412845618171104
    Two-Electron Energy =                 769.0429901305989233
    Total Energy =                       -512.5453204231506561
  Basis Set: (AUG-CC-PVTZ AUX)
    Blend: AUG-CC-PVTZ-RI
    Molecular point group: c1

    Geometry (in Angstrom), charge = 0, multiplicity = 1:

       Center              X                  Y                   Z               Mass
    ------------   -----------------  -----------------  -----------------  -----------------
         O            0.404902798690     1.744237008777     0.168324402486    15.994914619570
         O           -2.160051201310     0.920975008777    -0.974780597514    15.994914619570
         N           -2.676344201310    -0.437655991223     0.793557402486    14.003074004430
         C           -0.416504201310    -0.447009991223    -0.034018597514    12.000000000000
         C            0.694560798690     0.414446008777     0.051673402486    12.000000000000
         C           -0.216167201310    -1.827741991223    -0.100748597514    12.000000000000
         C            1.987264798690    -0.120625991223     0.057592402486    12.000000000000
         C            1.074100798690    -2.363428991223    -0.102221597514    12.000000000000
         C            2.168066798690    -1.505105991223    -0.026502597514    12.000000000000
         C           -1.806076201310     0.112976008777    -0.121021597514    12.000000000000
         C            1.506532798690     2.647815008777     0.186020402486    12.000000000000
         H           -1.083638201310    -2.479493991223    -0.177511597514     1.007825032230
         H            2.857295798690     0.523195008777     0.127853402486     1.007825032230
         H            1.220589798690    -3.438072991223    -0.169018597514     1.007825032230
         H            3.178758798690    -1.906675991223    -0.027389597514     1.007825032230
         H            2.122267098690     2.554890908777    -0.714747697514     1.007825032230
         H            2.142872798690     2.487137008777     1.063455402486     1.007825032230
         H            1.060382798690     3.640265008777     0.234591402486     1.007825032230
         H           -2.304570201310    -0.823525991223     1.650898402486     1.007825032230
         H           -3.588666201310     0.000713008777     0.847357402486     1.007825032230

  Basis Set: AUG-CC-PVTZ
    Blend: AUG-CC-PVTZ
  Basis Set: (AUG-CC-PVTZ AUX)
    Blend: AUG-CC-PVTZ-JKFIT
	 Reference Energy          =    -512.5453204231506561 [Eh]
	 Singles Energy            =      -0.0000000000000000 [Eh]
	 Same-Spin Energy          =      -0.5357173462581275 [Eh]
	 Opposite-Spin Energy      =      -1.6453018456226824 [Eh]
	 Correlation Energy        =      -2.1810191918808099 [Eh]
	 Total Energy              =    -514.7263396150315202 [Eh]

	 ================> DF-SCS-MP2 Energies <==================
	-----------------------------------------------------------
	 SCS Same-Spin Scale       =       0.3333333333333333 [-]
	 SCS Opposite-Spin Scale   =       1.2000000000000000 [-]
	 SCS Same-Spin Energy      =      -0.1785724487527092 [Eh]
	 SCS Opposite-Spin Energy  =      -1.9743622147472188 [Eh]
	 SCS Correlation Energy    =      -2.1529346634999280 [Eh]
	 SCS Total Energy          =    -514.6982550866505335 [Eh]
	-----------------------------------------------------------

  Dipole Moment: [D]
     X:     1.9985      Y:    -0.9218      Z:     2.9003     Total:     3.6408

*** Psi4 exiting successfully. Buy a developer a beer!
