                               Psi4 1.4a3.dev225

  ==> Input File <==

--------------------------------------------------------------------------
#psi4
#
memory 32 gb

molecule  {
0 1
  O        0.3703410     1.7406370     0.1509160
  O       -2.1946130     0.9173750    -0.9921890
  N       -2.7109060    -0.4412560     0.7761490
  C       -0.4510660    -0.4506100    -0.0514270
  C        0.6599990     0.4108460     0.0342650
  C       -0.2507290    -1.8313420    -0.1181570
  C        1.9527030    -0.1242260     0.0401840
  C        1.0395390    -2.3670290    -0.1196300
  C        2.1335050    -1.5087060    -0.0439110
  C       -1.7943402     0.0907184    -0.1355312
  C        1.4719710     2.6442150     0.1686120
  H       -1.1182000    -2.4830940    -0.1949200
  H        2.8227340     0.5195950     0.1104450
  H        1.1860280    -3.4416730    -0.1864270
  H        3.1441970    -1.9102760    -0.0447980
  H        2.0722720     2.5548100    -0.7428660
  H        2.1083110     2.4835370     1.0460470
  H        1.0258210     3.6366650     0.2171830
  H       -2.3391320    -0.8271260     1.6334900
  H       -3.6232280    -0.0028870     0.8299490
units angstrom
no_reorient  #important for SAPT in psi4, default
symmetry c1  #important for SAPT in psi4, default
}

set PROPERTIES_ORIGIN ["COM"]
properties('MP2/aug-cc-pvtz', properties = ['dipole'])
--------------------------------------------------------------------------

    Molecular point group: c1
  Charge       = 0
  Multiplicity = 1
  Basis Set: AUG-CC-PVTZ
    Blend: AUG-CC-PVTZ
  Basis Set: (AUG-CC-PVTZ AUX)
    Blend: AUG-CC-PVTZ-JKFIT

    Orbital Energies [Eh]
    ---------------------

    Doubly Occupied:

       1A    -20.592521     2A    -20.514260     3A    -15.580465
       4A    -11.356376     5A    -11.321406     6A    -11.288991
       7A    -11.259356     8A    -11.257737     9A    -11.248872
      10A    -11.245182    11A    -11.240923    12A     -1.416019
      13A     -1.351639    14A     -1.197731    15A     -1.161057
      16A     -1.050406    17A     -1.027617    18A     -0.952323
      19A     -0.886285    20A     -0.827583    21A     -0.788300
      22A     -0.731588    23A     -0.707618    24A     -0.684844
      25A     -0.668589    26A     -0.658861    27A     -0.639929
      28A     -0.622594    29A     -0.596170    30A     -0.582092
      31A     -0.552883    32A     -0.545014    33A     -0.531005
      34A     -0.517713    35A     -0.501704    36A     -0.477752
      37A     -0.422997    38A     -0.405036    39A     -0.355222
      40A     -0.325659

  @DF-RHF Final Energy:  -512.53863894897745

   => Energetics <=

    Nuclear Repulsion Energy =            592.9680886553618393
    One-Electron Energy =               -1874.8288174781243924
    Two-Electron Energy =                 769.3220898737852167
    Total Energy =                       -512.5386389489774501
  Basis Set: (AUG-CC-PVTZ AUX)
    Blend: AUG-CC-PVTZ-RI
    Molecular point group: c1

    Geometry (in Angstrom), charge = 0, multiplicity = 1:

       Center              X                  Y                   Z               Mass
    ------------   -----------------  -----------------  -----------------  -----------------
         O            0.401328009632     1.745695632554     0.168165582375    15.994914619570
         O           -2.163625990368     0.922433632554    -0.974939417625    15.994914619570
         N           -2.679918990368    -0.436197367446     0.793398582375    14.003074004430
         C           -0.420078990368    -0.445551367446    -0.034177417625    12.000000000000
         C            0.690986009632     0.415904632554     0.051514582375    12.000000000000
         C           -0.219741990368    -1.826283367446    -0.100907417625    12.000000000000
         C            1.983690009632    -0.119167367446     0.057433582375    12.000000000000
         C            1.070526009632    -2.361970367446    -0.102380417625    12.000000000000
         C            2.164492009632    -1.503647367446    -0.026661417625    12.000000000000
         C           -1.763353190368     0.095777032554    -0.118281617625    12.000000000000
         C            1.502958009632     2.649273632554     0.185861582375    12.000000000000
         H           -1.087212990368    -2.478035367446    -0.177670417625     1.007825032230
         H            2.853721009632     0.524653632554     0.127694582375     1.007825032230
         H            1.217015009632    -3.436614367446    -0.169177417625     1.007825032230
         H            3.175184009632    -1.905217367446    -0.027548417625     1.007825032230
         H            2.103259009632     2.559868632554    -0.725616417625     1.007825032230
         H            2.139298009632     2.488595632554     1.063296582375     1.007825032230
         H            1.056808009632     3.641723632554     0.234432582375     1.007825032230
         H           -2.308144990368    -0.822067367446     1.650739582375     1.007825032230
         H           -3.592240990368     0.002171632554     0.847198582375     1.007825032230

  Basis Set: AUG-CC-PVTZ
    Blend: AUG-CC-PVTZ
  Basis Set: (AUG-CC-PVTZ AUX)
    Blend: AUG-CC-PVTZ-JKFIT
	 Reference Energy          =    -512.5386389489774501 [Eh]
	 Singles Energy            =      -0.0000000000000000 [Eh]
	 Same-Spin Energy          =      -0.5367553768207564 [Eh]
	 Opposite-Spin Energy      =      -1.6475000893826379 [Eh]
	 Correlation Energy        =      -2.1842554662033944 [Eh]
	 Total Energy              =    -514.7228944151808037 [Eh]

	 ================> DF-SCS-MP2 Energies <==================
	-----------------------------------------------------------
	 SCS Same-Spin Scale       =       0.3333333333333333 [-]
	 SCS Opposite-Spin Scale   =       1.2000000000000000 [-]
	 SCS Same-Spin Energy      =      -0.1789184589402521 [Eh]
	 SCS Opposite-Spin Energy  =      -1.9770001072591654 [Eh]
	 SCS Correlation Energy    =      -2.1559185661994174 [Eh]
	 SCS Total Energy          =    -514.6945575151768253 [Eh]
	-----------------------------------------------------------

  Dipole Moment: [D]
     X:     2.3374      Y:    -0.9992      Z:     2.8907     Total:     3.8494

*** Psi4 exiting successfully. Buy a developer a beer!
