                               Psi4 1.4a3.dev225

  ==> Input File <==

--------------------------------------------------------------------------
#psi4
#
memory 32 gb

molecule  {
0 1
  O        0.3703410     1.7406370     0.1509160
  O       -2.1946130     0.9173750    -0.9921890
  N       -2.7109060    -0.4412560     0.7761490
  C       -0.4510660    -0.4506100    -0.0514270
  C        0.6599990     0.4108460     0.0342650
  C       -0.2507290    -1.8313420    -0.1181570
  C        1.9711824    -0.1318749     0.0402686
  C        1.0395390    -2.3670290    -0.1196300
  C        2.1335050    -1.5087060    -0.0439110
  C       -1.8406380     0.1093760    -0.1384300
  C        1.4719710     2.6442150     0.1686120
  H       -1.1182000    -2.4830940    -0.1949200
  H        2.8227340     0.5195950     0.1104450
  H        1.1860280    -3.4416730    -0.1864270
  H        3.1441970    -1.9102760    -0.0447980
  H        2.0722720     2.5548100    -0.7428660
  H        2.1083110     2.4835370     1.0460470
  H        1.0258210     3.6366650     0.2171830
  H       -2.3391320    -0.8271260     1.6334900
  H       -3.6232280    -0.0028870     0.8299490
units angstrom
no_reorient  #important for SAPT in psi4, default
symmetry c1  #important for SAPT in psi4, default
}

set PROPERTIES_ORIGIN ["COM"]
properties('MP2/aug-cc-pvtz', properties = ['dipole'])
--------------------------------------------------------------------------

    Molecular point group: c1
  Charge       = 0
  Multiplicity = 1
  Basis Set: AUG-CC-PVTZ
    Blend: AUG-CC-PVTZ
  Basis Set: (AUG-CC-PVTZ AUX)
    Blend: AUG-CC-PVTZ-JKFIT

    Orbital Energies [Eh]
    ---------------------

    Doubly Occupied:

       1A    -20.591350     2A    -20.517315     3A    -15.582744
       4A    -11.354951     5A    -11.319984     6A    -11.288256
       7A    -11.255359     8A    -11.253000     9A    -11.247739
      10A    -11.243342    11A    -11.237998    12A     -1.414402
      13A     -1.369600    14A     -1.207798    15A     -1.157099
      16A     -1.044073    17A     -1.022943    18A     -0.949717
      19A     -0.875846    20A     -0.825627    21A     -0.788901
      22A     -0.735531    23A     -0.708531    24A     -0.682231
      25A     -0.666004    26A     -0.657541    27A     -0.639045
      28A     -0.623928    29A     -0.596679    30A     -0.583750
      31A     -0.558247    32A     -0.543248    33A     -0.530286
      34A     -0.520368    35A     -0.499199    36A     -0.476293
      37A     -0.423893    38A     -0.411568    39A     -0.353389
      40A     -0.320841

  @DF-RHF Final Energy:  -512.54481063374078

   => Energetics <=

    Nuclear Repulsion Energy =            592.3443697050565788
    One-Electron Energy =               -1873.6211288463489382
    Two-Electron Energy =                 768.7319485075515786
    Total Energy =                       -512.5448106337407808
  Basis Set: (AUG-CC-PVTZ AUX)
    Blend: AUG-CC-PVTZ-RI
    Molecular point group: c1

    Geometry (in Angstrom), charge = 0, multiplicity = 1:

       Center              X                  Y                   Z               Mass
    ------------   -----------------  -----------------  -----------------  -----------------
         O            0.403537816626     1.744821135737     0.168389133652    15.994914619570
         O           -2.161416183374     0.921559135737    -0.974715866348    15.994914619570
         N           -2.677709183374    -0.437071864263     0.793622133652    14.003074004430
         C           -0.417869183374    -0.446425864263    -0.033953866348    12.000000000000
         C            0.693195816626     0.415030135737     0.051738133652    12.000000000000
         C           -0.217532183374    -1.827157864263    -0.100683866348    12.000000000000
         C            2.004379216626    -0.127690764263     0.057741733652    12.000000000000
         C            1.072735816626    -2.362844864263    -0.102156866348    12.000000000000
         C            2.166701816626    -1.504521864263    -0.026437866348    12.000000000000
         C           -1.807441183374     0.113560135737    -0.120956866348    12.000000000000
         C            1.505167816626     2.648399135737     0.186085133652    12.000000000000
         H           -1.085003183374    -2.478909864263    -0.177446866348     1.007825032230
         H            2.855930816626     0.523779135737     0.127918133652     1.007825032230
         H            1.219224816626    -3.437488864263    -0.168953866348     1.007825032230
         H            3.177393816626    -1.906091864263    -0.027324866348     1.007825032230
         H            2.105468816626     2.558994135737    -0.725392866348     1.007825032230
         H            2.141507816626     2.487721135737     1.063520133652     1.007825032230
         H            1.059017816626     3.640849135737     0.234656133652     1.007825032230
         H           -2.305935183374    -0.822941864263     1.650963133652     1.007825032230
         H           -3.590031183374     0.001297135737     0.847422133652     1.007825032230

  Basis Set: AUG-CC-PVTZ
    Blend: AUG-CC-PVTZ
  Basis Set: (AUG-CC-PVTZ AUX)
    Blend: AUG-CC-PVTZ-JKFIT
	 Reference Energy          =    -512.5448106337407808 [Eh]
	 Singles Energy            =      -0.0000000000000000 [Eh]
	 Same-Spin Energy          =      -0.5356971959198935 [Eh]
	 Opposite-Spin Energy      =      -1.6453199798326426 [Eh]
	 Correlation Energy        =      -2.1810171757525358 [Eh]
	 Total Energy              =    -514.7258278094933530 [Eh]

	 ================> DF-SCS-MP2 Energies <==================
	-----------------------------------------------------------
	 SCS Same-Spin Scale       =       0.3333333333333333 [-]
	 SCS Opposite-Spin Scale   =       1.2000000000000000 [-]
	 SCS Same-Spin Energy      =      -0.1785657319732978 [Eh]
	 SCS Opposite-Spin Energy  =      -1.9743839757991710 [Eh]
	 SCS Correlation Energy    =      -2.1529497077724686 [Eh]
	 SCS Total Energy          =    -514.6977603415132307 [Eh]
	-----------------------------------------------------------

  Dipole Moment: [D]
     X:     1.9976      Y:    -0.8797      Z:     2.9021     Total:     3.6314

*** Psi4 exiting successfully. Buy a developer a beer!
