                               Psi4 1.4a3.dev225

  ==> Input File <==

--------------------------------------------------------------------------
#psi4
#
memory 32 gb

molecule  {
0 1
  O        0.3703410     1.7406370     0.1509160
  O       -2.1946130     0.9173750    -0.9921890
  N       -2.7109060    -0.4412560     0.7761490
  C       -0.4510660    -0.4506100    -0.0514270
  C        0.6599990     0.4108460     0.0342650
  C       -0.2507290    -1.8313420    -0.1181570
  C        1.9527030    -0.1242260     0.0401840
  C        1.0210677    -2.3593602    -0.1196089
  C        2.1335050    -1.5087060    -0.0439110
  C       -1.8406380     0.1093760    -0.1384300
  C        1.4719710     2.6442150     0.1686120
  H       -1.1182000    -2.4830940    -0.1949200
  H        2.8227340     0.5195950     0.1104450
  H        1.1860280    -3.4416730    -0.1864270
  H        3.1441970    -1.9102760    -0.0447980
  H        2.0722720     2.5548100    -0.7428660
  H        2.1083110     2.4835370     1.0460470
  H        1.0258210     3.6366650     0.2171830
  H       -2.3391320    -0.8271260     1.6334900
  H       -3.6232280    -0.0028870     0.8299490
units angstrom
no_reorient  #important for SAPT in psi4, default
symmetry c1  #important for SAPT in psi4, default
}

set PROPERTIES_ORIGIN ["COM"]
properties('MP2/aug-cc-pvtz', properties = ['dipole'])
--------------------------------------------------------------------------

    Molecular point group: c1
  Charge       = 0
  Multiplicity = 1
  Basis Set: AUG-CC-PVTZ
    Blend: AUG-CC-PVTZ
  Basis Set: (AUG-CC-PVTZ AUX)
    Blend: AUG-CC-PVTZ-JKFIT

    Orbital Energies [Eh]
    ---------------------

    Doubly Occupied:

       1A    -20.590201     2A    -20.517151     3A    -15.582604
       4A    -11.354748     5A    -11.317253     6A    -11.287696
       7A    -11.255420     8A    -11.252808     9A    -11.247647
      10A    -11.243257    11A    -11.238183    12A     -1.413808
      13A     -1.369419    14A     -1.207716    15A     -1.158933
      16A     -1.041851    17A     -1.026632    18A     -0.949144
      19A     -0.878115    20A     -0.823364    21A     -0.789011
      22A     -0.735394    23A     -0.708992    24A     -0.681463
      25A     -0.665931    26A     -0.657034    27A     -0.638892
      28A     -0.623645    29A     -0.597070    30A     -0.582104
      31A     -0.557868    32A     -0.545535    33A     -0.530220
      34A     -0.516155    35A     -0.500264    36A     -0.476437
      37A     -0.424010    38A     -0.411449    39A     -0.352940
      40A     -0.322658

  @DF-RHF Final Energy:  -512.54486088969338

   => Energetics <=

    Nuclear Repulsion Energy =            592.9136382581748421
    One-Electron Energy =               -1874.7709547783247217
    Two-Electron Energy =                 769.3124556304564976
    Total Energy =                       -512.5448608896933820
  Basis Set: (AUG-CC-PVTZ AUX)
    Blend: AUG-CC-PVTZ-RI
    Molecular point group: c1

    Geometry (in Angstrom), charge = 0, multiplicity = 1:

       Center              X                  Y                   Z               Mass
    ------------   -----------------  -----------------  -----------------  -----------------
         O            0.406473065070     1.743604345390     0.168394177894    15.994914619570
         O           -2.158480934930     0.920342345390    -0.974710822106    15.994914619570
         N           -2.674773934930    -0.438288654610     0.793627177894    14.003074004430
         C           -0.414933934930    -0.447642654610    -0.033948822106    12.000000000000
         C            0.696131065070     0.413813345390     0.051743177894    12.000000000000
         C           -0.214596934930    -1.828374654610    -0.100678822106    12.000000000000
         C            1.988835065070    -0.121258654610     0.057662177894    12.000000000000
         C            1.057199765070    -2.356392854610    -0.102130722106    12.000000000000
         C            2.169637065070    -1.505738654610    -0.026432822106    12.000000000000
         C           -1.804505934930     0.112343345390    -0.120951822106    12.000000000000
         C            1.508103065070     2.647182345390     0.186090177894    12.000000000000
         H           -1.082067934930    -2.480126654610    -0.177441822106     1.007825032230
         H            2.858866065070     0.522562345390     0.127923177894     1.007825032230
         H            1.222160065070    -3.438705654610    -0.168948822106     1.007825032230
         H            3.180329065070    -1.907308654610    -0.027319822106     1.007825032230
         H            2.108404065070     2.557777345390    -0.725387822106     1.007825032230
         H            2.144443065070     2.486504345390     1.063525177894     1.007825032230
         H            1.061953065070     3.639632345390     0.234661177894     1.007825032230
         H           -2.302999934930    -0.824158654610     1.650968177894     1.007825032230
         H           -3.587095934930     0.000080345390     0.847427177894     1.007825032230

  Basis Set: AUG-CC-PVTZ
    Blend: AUG-CC-PVTZ
  Basis Set: (AUG-CC-PVTZ AUX)
    Blend: AUG-CC-PVTZ-JKFIT
	 Reference Energy          =    -512.5448608896933820 [Eh]
	 Singles Energy            =      -0.0000000000000000 [Eh]
	 Same-Spin Energy          =      -0.5357762337247243 [Eh]
	 Opposite-Spin Energy      =      -1.6453060213582071 [Eh]
	 Correlation Energy        =      -2.1810822550829316 [Eh]
	 Total Energy              =    -514.7259431447763518 [Eh]

	 ================> DF-SCS-MP2 Energies <==================
	-----------------------------------------------------------
	 SCS Same-Spin Scale       =       0.3333333333333333 [-]
	 SCS Opposite-Spin Scale   =       1.2000000000000000 [-]
	 SCS Same-Spin Energy      =      -0.1785920779082414 [Eh]
	 SCS Opposite-Spin Energy  =      -1.9743672256298486 [Eh]
	 SCS Correlation Energy    =      -2.1529593035380898 [Eh]
	 SCS Total Energy          =    -514.6978201932314505 [Eh]
	-----------------------------------------------------------

  Dipole Moment: [D]
     X:     2.0137      Y:    -0.9122      Z:     2.9001     Total:     3.6466

*** Psi4 exiting successfully. Buy a developer a beer!
