                               Psi4 1.4a3.dev225

  ==> Input File <==

--------------------------------------------------------------------------
#psi4
#
memory 32 gb

molecule  {
0 1
  O        0.3703410     1.7406370     0.1509160
  O       -2.1946130     0.9173750    -0.9921890
  N       -2.7109060    -0.4412560     0.7761490
  C       -0.4510660    -0.4506100    -0.0514270
  C        0.6599990     0.4108460     0.0342650
  C       -0.2507290    -1.8313420    -0.1181570
  C        1.9527030    -0.1242260     0.0401840
  C        1.0395390    -2.3670290    -0.1196300
  C        2.0850143    -1.5140603    -0.0458424
  C       -1.8406380     0.1093760    -0.1384300
  C        1.4719710     2.6442150     0.1686120
  H       -1.1182000    -2.4830940    -0.1949200
  H        2.8227340     0.5195950     0.1104450
  H        1.1860280    -3.4416730    -0.1864270
  H        3.1441970    -1.9102760    -0.0447980
  H        2.0722720     2.5548100    -0.7428660
  H        2.1083110     2.4835370     1.0460470
  H        1.0258210     3.6366650     0.2171830
  H       -2.3391320    -0.8271260     1.6334900
  H       -3.6232280    -0.0028870     0.8299490
units angstrom
no_reorient  #important for SAPT in psi4, default
symmetry c1  #important for SAPT in psi4, default
}

set PROPERTIES_ORIGIN ["COM"]
properties('MP2/aug-cc-pvtz', properties = ['dipole'])
--------------------------------------------------------------------------

    Molecular point group: c1
  Charge       = 0
  Multiplicity = 1
  Basis Set: AUG-CC-PVTZ
    Blend: AUG-CC-PVTZ
  Basis Set: (AUG-CC-PVTZ AUX)
    Blend: AUG-CC-PVTZ-JKFIT

    Orbital Energies [Eh]
    ---------------------

    Doubly Occupied:

       1A    -20.590145     2A    -20.517396     3A    -15.582836
       4A    -11.355147     5A    -11.317109     6A    -11.287740
       7A    -11.256023     8A    -11.252425     9A    -11.248211
      10A    -11.241701    11A    -11.233782    12A     -1.413793
      13A     -1.369696    14A     -1.207981    15A     -1.162382
      16A     -1.044154    17A     -1.026570    18A     -0.950953
      19A     -0.875111    20A     -0.825956    21A     -0.788619
      22A     -0.735782    23A     -0.705933    24A     -0.682570
      25A     -0.666737    26A     -0.657260    27A     -0.639236
      28A     -0.623848    29A     -0.593629    30A     -0.584089
      31A     -0.559370    32A     -0.537488    33A     -0.532021
      34A     -0.522104    35A     -0.496879    36A     -0.478610
      37A     -0.423898    38A     -0.411672    39A     -0.351658
      40A     -0.326325

  @DF-RHF Final Energy:  -512.54278410513643

   => Energetics <=

    Nuclear Repulsion Energy =            593.5038415454533833
    One-Electron Energy =               -1875.9395699131939637
    Two-Electron Energy =                 769.8929442626040327
    Total Energy =                       -512.5427841051364339
  Basis Set: (AUG-CC-PVTZ AUX)
    Blend: AUG-CC-PVTZ-RI
    Molecular point group: c1

    Geometry (in Angstrom), charge = 0, multiplicity = 1:

       Center              X                  Y                   Z               Mass
    ------------   -----------------  -----------------  -----------------  -----------------
         O            0.408857712645     1.744638859865     0.168549278408    15.994914619570
         O           -2.156096287355     0.921376859865    -0.974555721592    15.994914619570
         N           -2.672389287355    -0.437254140135     0.793782278408    14.003074004430
         C           -0.412549287355    -0.446608140135    -0.033793721592    12.000000000000
         C            0.698515712645     0.414847859865     0.051898278408    12.000000000000
         C           -0.212212287355    -1.827340140135    -0.100523721592    12.000000000000
         C            1.991219712645    -0.120224140135     0.057817278408    12.000000000000
         C            1.078055712645    -2.363027140135    -0.101996721592    12.000000000000
         C            2.123531012645    -1.510058440135    -0.028209121592    12.000000000000
         C           -1.802121287355     0.113377859865    -0.120796721592    12.000000000000
         C            1.510487712645     2.648216859865     0.186245278408    12.000000000000
         H           -1.079683287355    -2.479092140135    -0.177286721592     1.007825032230
         H            2.861250712645     0.523596859865     0.128078278408     1.007825032230
         H            1.224544712645    -3.437671140135    -0.168793721592     1.007825032230
         H            3.182713712645    -1.906274140135    -0.027164721592     1.007825032230
         H            2.110788712645     2.558811859865    -0.725232721592     1.007825032230
         H            2.146827712645     2.487538859865     1.063680278408     1.007825032230
         H            1.064337712645     3.640666859865     0.234816278408     1.007825032230
         H           -2.300615287355    -0.823124140135     1.651123278408     1.007825032230
         H           -3.584711287355     0.001114859865     0.847582278408     1.007825032230

  Basis Set: AUG-CC-PVTZ
    Blend: AUG-CC-PVTZ
  Basis Set: (AUG-CC-PVTZ AUX)
    Blend: AUG-CC-PVTZ-JKFIT
	 Reference Energy          =    -512.5427841051364339 [Eh]
	 Singles Energy            =      -0.0000000000000000 [Eh]
	 Same-Spin Energy          =      -0.5356453269221613 [Eh]
	 Opposite-Spin Energy      =      -1.6451178536311399 [Eh]
	 Correlation Energy        =      -2.1807631805533010 [Eh]
	 Total Energy              =    -514.7235472856897331 [Eh]

	 ================> DF-SCS-MP2 Energies <==================
	-----------------------------------------------------------
	 SCS Same-Spin Scale       =       0.3333333333333333 [-]
	 SCS Opposite-Spin Scale   =       1.2000000000000000 [-]
	 SCS Same-Spin Energy      =      -0.1785484423073871 [Eh]
	 SCS Opposite-Spin Energy  =      -1.9741414243573678 [Eh]
	 SCS Correlation Energy    =      -2.1526898666647547 [Eh]
	 SCS Total Energy          =    -514.6954739718012206 [Eh]
	-----------------------------------------------------------

  Dipole Moment: [D]
     X:     1.9647      Y:    -0.9083      Z:     2.8996     Total:     3.6184

*** Psi4 exiting successfully. Buy a developer a beer!
