                               Psi4 1.4a3.dev225

  ==> Input File <==

--------------------------------------------------------------------------
#psi4
#
memory 32 gb

molecule  {
0 1
  O        0.3703410     1.7406370     0.1509160
  O       -2.1946130     0.9173750    -0.9921890
  N       -2.7109060    -0.4412560     0.7761490
  C       -0.4510660    -0.4506100    -0.0514270
  C        0.6599990     0.4108460     0.0342650
  C       -0.2507290    -1.8313420    -0.1181570
  C        1.9527030    -0.1242260     0.0401840
  C        1.0395390    -2.3670290    -0.1196300
  C        2.1335050    -1.5087060    -0.0439110
  C       -1.8406380     0.1093760    -0.1384300
  C        1.4719710     2.6442150     0.1686120
  H       -1.1182000    -2.4830940    -0.1949200
  H        2.8227340     0.5195950     0.1104450
  H        1.1860280    -3.4416730    -0.1864270
  H        3.1441970    -1.9102760    -0.0447980
  H        2.0722720     2.5548100    -0.7428660
  H        2.1083110     2.4835370     1.0460470
  H        1.1077432     3.4544310     0.2082644
  H       -2.3391320    -0.8271260     1.6334900
  H       -3.6232280    -0.0028870     0.8299490
units angstrom
no_reorient  #important for SAPT in psi4, default
symmetry c1  #important for SAPT in psi4, default
}

set PROPERTIES_ORIGIN ["COM"]
properties('MP2/aug-cc-pvtz', properties = ['dipole'])
--------------------------------------------------------------------------

    Molecular point group: c1
  Charge       = 0
  Multiplicity = 1
  Basis Set: AUG-CC-PVTZ
    Blend: AUG-CC-PVTZ
  Basis Set: (AUG-CC-PVTZ AUX)
    Blend: AUG-CC-PVTZ-JKFIT

    Orbital Energies [Eh]
    ---------------------

    Doubly Occupied:

       1A    -20.589004     2A    -20.517088     3A    -15.582535
       4A    -11.354710     5A    -11.316492     6A    -11.263903
       7A    -11.254781     8A    -11.253502     9A    -11.247601
      10A    -11.241925    11A    -11.237833    12A     -1.413402
      13A     -1.369373    14A     -1.207588    15A     -1.157670
      16A     -1.044466    17A     -1.028799    18A     -0.970112
      19A     -0.876745    20A     -0.828408    21A     -0.789028
      22A     -0.735228    23A     -0.708436    24A     -0.687885
      25A     -0.670004    26A     -0.656202    27A     -0.643720
      28A     -0.626470    29A     -0.604411    30A     -0.588877
      31A     -0.557957    32A     -0.549388    33A     -0.530884
      34A     -0.520537    35A     -0.502533    36A     -0.475065
      37A     -0.423837    38A     -0.411343    39A     -0.351719
      40A     -0.322082

  @DF-RHF Final Energy:  -512.51044804368337

   => Energetics <=

    Nuclear Repulsion Energy =            593.7636368340549780
    One-Electron Energy =               -1876.3250813030667814
    Two-Electron Energy =                 770.0509964253284352
    Total Energy =                       -512.5104480436833683
  Basis Set: (AUG-CC-PVTZ AUX)
    Blend: AUG-CC-PVTZ-RI
    Molecular point group: c1

    Geometry (in Angstrom), charge = 0, multiplicity = 1:

       Center              X                  Y                   Z               Mass
    ------------   -----------------  -----------------  -----------------  -----------------
         O            0.404459215337     1.745429312373     0.168455354808    15.994914619570
         O           -2.160494784663     0.922167312373    -0.974649645192    15.994914619570
         N           -2.676787784663    -0.436463687627     0.793688354808    14.003074004430
         C           -0.416947784663    -0.445817687627    -0.033887645192    12.000000000000
         C            0.694117215337     0.415638312373     0.051804354808    12.000000000000
         C           -0.216610784663    -1.826549687627    -0.100617645192    12.000000000000
         C            1.986821215337    -0.119433687627     0.057723354808    12.000000000000
         C            1.073657215337    -2.362236687627    -0.102090645192    12.000000000000
         C            2.167623215337    -1.503913687627    -0.026371645192    12.000000000000
         C           -1.806519784663     0.114168312373    -0.120890645192    12.000000000000
         C            1.506089215337     2.649007312373     0.186151354808    12.000000000000
         H           -1.084081784663    -2.478301687627    -0.177380645192     1.007825032230
         H            2.856852215337     0.524387312373     0.127984354808     1.007825032230
         H            1.220146215337    -3.436880687627    -0.168887645192     1.007825032230
         H            3.178315215337    -1.905483687627    -0.027258645192     1.007825032230
         H            2.106390215337     2.559602312373    -0.725326645192     1.007825032230
         H            2.142429215337     2.488329312373     1.063586354808     1.007825032230
         H            1.141861415337     3.459223312373     0.225803754808     1.007825032230
         H           -2.305013784663    -0.822333687627     1.651029354808     1.007825032230
         H           -3.589109784663     0.001905312373     0.847488354808     1.007825032230

  Basis Set: AUG-CC-PVTZ
    Blend: AUG-CC-PVTZ
  Basis Set: (AUG-CC-PVTZ AUX)
    Blend: AUG-CC-PVTZ-JKFIT
	 Reference Energy          =    -512.5104480436833683 [Eh]
	 Singles Energy            =      -0.0000000000000000 [Eh]
	 Same-Spin Energy          =      -0.5357484260967631 [Eh]
	 Opposite-Spin Energy      =      -1.6445679440113832 [Eh]
	 Correlation Energy        =      -2.1803163701081463 [Eh]
	 Total Energy              =    -514.6907644137914986 [Eh]

	 ================> DF-SCS-MP2 Energies <==================
	-----------------------------------------------------------
	 SCS Same-Spin Scale       =       0.3333333333333333 [-]
	 SCS Opposite-Spin Scale   =       1.2000000000000000 [-]
	 SCS Same-Spin Energy      =      -0.1785828086989210 [Eh]
	 SCS Opposite-Spin Energy  =      -1.9734815328136597 [Eh]
	 SCS Correlation Energy    =      -2.1520643415125806 [Eh]
	 SCS Total Energy          =    -514.6625123851958961 [Eh]
	-----------------------------------------------------------

  Dipole Moment: [D]
     X:     2.0193      Y:    -0.8434      Z:     2.9044     Total:     3.6366

*** Psi4 exiting successfully. Buy a developer a beer!
