                               Psi4 1.4a3.dev225

  ==> Input File <==

--------------------------------------------------------------------------
#psi4
#
memory 32 gb

molecule  {
0 1
  O        0.3703410     1.7406370     0.1509160
  O       -2.1946130     0.9173750    -0.9921890
  N       -2.7109060    -0.4412560     0.7761490
  C       -0.4510660    -0.4506100    -0.0514270
  C        0.6599990     0.4108460     0.0342650
  C       -0.2507290    -1.8313420    -0.1181570
  C        1.9527030    -0.1242260     0.0401840
  C        1.0395390    -2.3670290    -0.1196300
  C        2.1464308    -1.6076847    -0.0499231
  C       -1.8406380     0.1093760    -0.1384300
  C        1.4719710     2.6442150     0.1686120
  H       -1.1182000    -2.4830940    -0.1949200
  H        2.8227340     0.5195950     0.1104450
  H        1.1860280    -3.4416730    -0.1864270
  H        3.1441970    -1.9102760    -0.0447980
  H        2.0722720     2.5548100    -0.7428660
  H        2.1083110     2.4835370     1.0460470
  H        1.0258210     3.6366650     0.2171830
  H       -2.3391320    -0.8271260     1.6334900
  H       -3.6232280    -0.0028870     0.8299490
units angstrom
no_reorient  #important for SAPT in psi4, default
symmetry c1  #important for SAPT in psi4, default
}

set PROPERTIES_ORIGIN ["COM"]
properties('MP2/aug-cc-pvtz', properties = ['dipole'])
--------------------------------------------------------------------------

    Molecular point group: c1
  Charge       = 0
  Multiplicity = 1
  Basis Set: AUG-CC-PVTZ
    Blend: AUG-CC-PVTZ
  Basis Set: (AUG-CC-PVTZ AUX)
    Blend: AUG-CC-PVTZ-JKFIT

    Orbital Energies [Eh]
    ---------------------

    Doubly Occupied:

       1A    -20.588772     2A    -20.518599     3A    -15.583819
       4A    -11.356382     5A    -11.315240     6A    -11.286308
       7A    -11.257401     8A    -11.254242     9A    -11.252222
      10A    -11.248167    11A    -11.235726    12A     -1.412379
      13A     -1.370775    14A     -1.208839    15A     -1.154870
      16A     -1.044681    17A     -1.018495    18A     -0.949544
      19A     -0.882506    20A     -0.821545    21A     -0.788809
      22A     -0.735341    23A     -0.712691    24A     -0.680295
      25A     -0.664719    26A     -0.655504    27A     -0.644550
      28A     -0.623232    29A     -0.603606    30A     -0.579115
      31A     -0.560249    32A     -0.542826    33A     -0.527435
      34A     -0.508678    35A     -0.502298    36A     -0.475452
      37A     -0.425203    38A     -0.412541    39A     -0.343712
      40A     -0.329223

  @DF-RHF Final Energy:  -512.53378691823002

   => Energetics <=

    Nuclear Repulsion Energy =            591.5079985166472625
    One-Electron Energy =               -1871.9315864481177414
    Two-Electron Energy =                 767.8898010132405716
    Total Energy =                       -512.5337869182300210
  Basis Set: (AUG-CC-PVTZ AUX)
    Blend: AUG-CC-PVTZ-RI
    Molecular point group: c1

    Geometry (in Angstrom), charge = 0, multiplicity = 1:

       Center              X                  Y                   Z               Mass
    ------------   -----------------  -----------------  -----------------  -----------------
         O            0.403978977302     1.752076090402     0.168873436498    15.994914619570
         O           -2.160975022698     0.928814090402    -0.974231563502    15.994914619570
         N           -2.677268022698    -0.429816909598     0.794106436498    14.003074004430
         C           -0.417428022698    -0.439170909598    -0.033469563502    12.000000000000
         C            0.693636977302     0.422285090402     0.052222436498    12.000000000000
         C           -0.217091022698    -1.819902909598    -0.100199563502    12.000000000000
         C            1.986340977302    -0.112786909598     0.058141436498    12.000000000000
         C            1.073176977302    -2.355589909598    -0.101672563502    12.000000000000
         C            2.180068777302    -1.596245609598    -0.031965663502    12.000000000000
         C           -1.807000022698     0.120815090402    -0.120472563502    12.000000000000
         C            1.505608977302     2.655654090402     0.186569436498    12.000000000000
         H           -1.084562022698    -2.471654909598    -0.176962563502     1.007825032230
         H            2.856371977302     0.531034090402     0.128402436498     1.007825032230
         H            1.219665977302    -3.430233909598    -0.168469563502     1.007825032230
         H            3.177834977302    -1.898836909598    -0.026840563502     1.007825032230
         H            2.105909977302     2.566249090402    -0.724908563502     1.007825032230
         H            2.141948977302     2.494976090402     1.064004436498     1.007825032230
         H            1.059458977302     3.648104090402     0.235140436498     1.007825032230
         H           -2.305494022698    -0.815686909598     1.651447436498     1.007825032230
         H           -3.589590022698     0.008552090402     0.847906436498     1.007825032230

  Basis Set: AUG-CC-PVTZ
    Blend: AUG-CC-PVTZ
  Basis Set: (AUG-CC-PVTZ AUX)
    Blend: AUG-CC-PVTZ-JKFIT
	 Reference Energy          =    -512.5337869182300210 [Eh]
	 Singles Energy            =      -0.0000000000000000 [Eh]
	 Same-Spin Energy          =      -0.5354557406231887 [Eh]
	 Opposite-Spin Energy      =      -1.6462094222539529 [Eh]
	 Correlation Energy        =      -2.1816651628771417 [Eh]
	 Total Energy              =    -514.7154520811071734 [Eh]

	 ================> DF-SCS-MP2 Energies <==================
	-----------------------------------------------------------
	 SCS Same-Spin Scale       =       0.3333333333333333 [-]
	 SCS Opposite-Spin Scale   =       1.2000000000000000 [-]
	 SCS Same-Spin Energy      =      -0.1784852468743962 [Eh]
	 SCS Opposite-Spin Energy  =      -1.9754513067047434 [Eh]
	 SCS Correlation Energy    =      -2.1539365535791397 [Eh]
	 SCS Total Energy          =    -514.6877234718091358 [Eh]
	-----------------------------------------------------------

  Dipole Moment: [D]
     X:     1.9496      Y:    -0.9698      Z:     2.8949     Total:     3.6224

*** Psi4 exiting successfully. Buy a developer a beer!
