                               Psi4 1.4a3.dev225

  ==> Input File <==

--------------------------------------------------------------------------
#psi4
#
memory 32 gb

molecule  {
0 1
  O        0.3703410     1.7406370     0.1509160
  O       -2.1946130     0.9173750    -0.9921890
  N       -2.7109060    -0.4412560     0.7761490
  C       -0.4510660    -0.4506100    -0.0514270
  C        0.6599990     0.4108460     0.0342650
  C       -0.2507290    -1.8313420    -0.1181570
  C        1.9527030    -0.1242260     0.0401840
  C        1.0395390    -2.3670290    -0.1196300
  C        2.1309198    -1.4889103    -0.0427086
  C       -1.8406380     0.1093760    -0.1384300
  C        1.4719710     2.6442150     0.1686120
  H       -1.1182000    -2.4830940    -0.1949200
  H        2.8227340     0.5195950     0.1104450
  H        1.1860280    -3.4416730    -0.1864270
  H        3.1441970    -1.9102760    -0.0447980
  H        2.0722720     2.5548100    -0.7428660
  H        2.1083110     2.4835370     1.0460470
  H        1.0258210     3.6366650     0.2171830
  H       -2.3391320    -0.8271260     1.6334900
  H       -3.6232280    -0.0028870     0.8299490
units angstrom
no_reorient  #important for SAPT in psi4, default
symmetry c1  #important for SAPT in psi4, default
}

set PROPERTIES_ORIGIN ["COM"]
properties('MP2/aug-cc-pvtz', properties = ['dipole'])
--------------------------------------------------------------------------

    Molecular point group: c1
  Charge       = 0
  Multiplicity = 1
  Basis Set: AUG-CC-PVTZ
    Blend: AUG-CC-PVTZ
  Basis Set: (AUG-CC-PVTZ AUX)
    Blend: AUG-CC-PVTZ-JKFIT

    Orbital Energies [Eh]
    ---------------------

    Doubly Occupied:

       1A    -20.590699     2A    -20.517162     3A    -15.582605
       4A    -11.354788     5A    -11.317863     6A    -11.287952
       7A    -11.254913     8A    -11.253948     9A    -11.247498
      10A    -11.241290    11A    -11.238994    12A     -1.414230
      13A     -1.369447    14A     -1.207688    15A     -1.158833
      16A     -1.043804    17A     -1.024957    18A     -0.949407
      19A     -0.876236    20A     -0.824820    21A     -0.789476
      22A     -0.735557    23A     -0.708416    24A     -0.682044
      25A     -0.666238    26A     -0.657474    27A     -0.638419
      28A     -0.623559    29A     -0.595354    30A     -0.582992
      31A     -0.558213    32A     -0.544185    33A     -0.530589
      34A     -0.519851    35A     -0.498663    36A     -0.476033
      37A     -0.423867    38A     -0.411441    39A     -0.354741
      40A     -0.321195

  @DF-RHF Final Energy:  -512.54496243821950

   => Energetics <=

    Nuclear Repulsion Energy =            592.9070118114344723
    One-Electron Energy =               -1874.7530605259996719
    Two-Electron Energy =                 769.3010862763458135
    Total Energy =                       -512.5449624382194997
  Basis Set: (AUG-CC-PVTZ AUX)
    Blend: AUG-CC-PVTZ-RI
    Molecular point group: c1

    Geometry (in Angstrom), charge = 0, multiplicity = 1:

       Center              X                  Y                   Z               Mass
    ------------   -----------------  -----------------  -----------------  -----------------
         O            0.405211122798     1.742641022249     0.168300339103    15.994914619570
         O           -2.159742877202     0.919379022249    -0.974804660897    15.994914619570
         N           -2.676035877202    -0.439251977751     0.793533339103    14.003074004430
         C           -0.416195877202    -0.448605977751    -0.034042660897    12.000000000000
         C            0.694869122798     0.412850022249     0.051649339103    12.000000000000
         C           -0.215858877202    -1.829337977751    -0.100772660897    12.000000000000
         C            1.987573122798    -0.122221977751     0.057568339103    12.000000000000
         C            1.074409122798    -2.365024977751    -0.102245660897    12.000000000000
         C            2.165789922798    -1.486906277751    -0.025324260897    12.000000000000
         C           -1.805767877202     0.111380022249    -0.121045660897    12.000000000000
         C            1.506841122798     2.646219022249     0.185996339103    12.000000000000
         H           -1.083329877202    -2.481089977751    -0.177535660897     1.007825032230
         H            2.857604122798     0.521599022249     0.127829339103     1.007825032230
         H            1.220898122798    -3.439668977751    -0.169042660897     1.007825032230
         H            3.179067122798    -1.908271977751    -0.027413660897     1.007825032230
         H            2.107142122798     2.556814022249    -0.725481660897     1.007825032230
         H            2.143181122798     2.485541022249     1.063431339103     1.007825032230
         H            1.060691122798     3.638669022249     0.234567339103     1.007825032230
         H           -2.304261877202    -0.825121977751     1.650874339103     1.007825032230
         H           -3.588357877202    -0.000882977751     0.847333339103     1.007825032230

  Basis Set: AUG-CC-PVTZ
    Blend: AUG-CC-PVTZ
  Basis Set: (AUG-CC-PVTZ AUX)
    Blend: AUG-CC-PVTZ-JKFIT
	 Reference Energy          =    -512.5449624382194997 [Eh]
	 Singles Energy            =      -0.0000000000000000 [Eh]
	 Same-Spin Energy          =      -0.5357308224423517 [Eh]
	 Opposite-Spin Energy      =      -1.6452458961280867 [Eh]
	 Correlation Energy        =      -2.1809767185704385 [Eh]
	 Total Energy              =    -514.7259391567899911 [Eh]

	 ================> DF-SCS-MP2 Energies <==================
	-----------------------------------------------------------
	 SCS Same-Spin Scale       =       0.3333333333333333 [-]
	 SCS Opposite-Spin Scale   =       1.2000000000000000 [-]
	 SCS Same-Spin Energy      =      -0.1785769408141172 [Eh]
	 SCS Opposite-Spin Energy  =      -1.9742950753537039 [Eh]
	 SCS Correlation Energy    =      -2.1528720161678212 [Eh]
	 SCS Total Energy          =    -514.6978344543873618 [Eh]
	-----------------------------------------------------------

  Dipole Moment: [D]
     X:     2.0064      Y:    -0.9033      Z:     2.9004     Total:     3.6406

*** Psi4 exiting successfully. Buy a developer a beer!
