                               Psi4 1.4a3.dev225

  ==> Input File <==

--------------------------------------------------------------------------
#psi4
#
memory 32 gb

molecule  {
0 1
  O        0.3703410     1.7406370     0.1509160
  O       -2.1946130     0.9173750    -0.9921890
  N       -2.7109060    -0.4412560     0.7761490
  C       -0.4510660    -0.4506100    -0.0514270
  C        0.6599990     0.4108460     0.0342650
  C       -0.2507290    -1.8313420    -0.1181570
  C        1.9527030    -0.1242260     0.0401840
  C        1.0395390    -2.3670290    -0.1196300
  C        2.1335050    -1.5087060    -0.0439110
  C       -1.8406380     0.1093760    -0.1384300
  C        1.4719710     2.6442150     0.1686120
  H       -1.1182000    -2.4830940    -0.1949200
  H        2.8227340     0.5195950     0.1104450
  H        1.1860280    -3.4416730    -0.1864270
  H        3.1441970    -1.9102760    -0.0447980
  H        2.0722720     2.5548100    -0.7428660
  H        2.1083110     2.4835370     1.0460470
  H        1.0258210     3.6366650     0.2171830
  H       -2.3391320    -0.8271260     1.6334900
  H       -3.6052265    -0.0115367     0.8288874
units angstrom
no_reorient  #important for SAPT in psi4, default
symmetry c1  #important for SAPT in psi4, default
}

set PROPERTIES_ORIGIN ["COM"]
properties('MP2/aug-cc-pvtz', properties = ['dipole'])
--------------------------------------------------------------------------

    Molecular point group: c1
  Charge       = 0
  Multiplicity = 1
  Basis Set: AUG-CC-PVTZ
    Blend: AUG-CC-PVTZ
  Basis Set: (AUG-CC-PVTZ AUX)
    Blend: AUG-CC-PVTZ-JKFIT

    Orbital Energies [Eh]
    ---------------------

    Doubly Occupied:

       1A    -20.590399     2A    -20.517613     3A    -15.581023
       4A    -11.355170     5A    -11.317440     6A    -11.287700
       7A    -11.255392     8A    -11.254137     9A    -11.248263
      10A    -11.242749    11A    -11.238455    12A     -1.413951
      13A     -1.370047    14A     -1.210270    15A     -1.158117
      16A     -1.043098    17A     -1.024721    18A     -0.949611
      19A     -0.878037    20A     -0.824573    21A     -0.790252
      22A     -0.736074    23A     -0.710583    24A     -0.682629
      25A     -0.667202    26A     -0.657345    27A     -0.639534
      28A     -0.623591    29A     -0.597021    30A     -0.582366
      31A     -0.558634    32A     -0.543762    33A     -0.530327
      34A     -0.518802    35A     -0.500499    36A     -0.475837
      37A     -0.424291    38A     -0.412008    39A     -0.352370
      40A     -0.322829

  @DF-RHF Final Energy:  -512.54575283882639

   => Energetics <=

    Nuclear Repulsion Energy =            592.7794681669483907
    One-Electron Energy =               -1874.4769954142902861
    Two-Electron Energy =                 769.1517744085155073
    Total Energy =                       -512.5457528388263881
  Basis Set: (AUG-CC-PVTZ AUX)
    Blend: AUG-CC-PVTZ-RI
    Molecular point group: c1

    Geometry (in Angstrom), charge = 0, multiplicity = 1:

       Center              X                  Y                   Z               Mass
    ------------   -----------------  -----------------  -----------------  -----------------
         O            0.404885664841     1.744271237779     0.168402936519    15.994914619570
         O           -2.160068335159     0.921009237779    -0.974702063481    15.994914619570
         N           -2.676361335159    -0.437621762221     0.793635936519    14.003074004430
         C           -0.416521335159    -0.446975762221    -0.033940063481    12.000000000000
         C            0.694543664841     0.414480237779     0.051751936519    12.000000000000
         C           -0.216184335159    -1.827707762221    -0.100670063481    12.000000000000
         C            1.987247664841    -0.120591762221     0.057670936519    12.000000000000
         C            1.074083664841    -2.363394762221    -0.102143063481    12.000000000000
         C            2.168049664841    -1.505071762221    -0.026424063481    12.000000000000
         C           -1.806093335159     0.113010237779    -0.120943063481    12.000000000000
         C            1.506515664841     2.647849237779     0.186098936519    12.000000000000
         H           -1.083655335159    -2.479459762221    -0.177433063481     1.007825032230
         H            2.857278664841     0.523229237779     0.127931936519     1.007825032230
         H            1.220572664841    -3.438038762221    -0.168940063481     1.007825032230
         H            3.178741664841    -1.906641762221    -0.027311063481     1.007825032230
         H            2.106816664841     2.558444237779    -0.725379063481     1.007825032230
         H            2.142855664841     2.487171237779     1.063533936519     1.007825032230
         H            1.060365664841     3.640299237779     0.234669936519     1.007825032230
         H           -2.304587335159    -0.823491762221     1.650976936519     1.007825032230
         H           -3.570681835159    -0.007902462221     0.846374336519     1.007825032230

  Basis Set: AUG-CC-PVTZ
    Blend: AUG-CC-PVTZ
  Basis Set: (AUG-CC-PVTZ AUX)
    Blend: AUG-CC-PVTZ-JKFIT
	 Reference Energy          =    -512.5457528388263881 [Eh]
	 Singles Energy            =      -0.0000000000000000 [Eh]
	 Same-Spin Energy          =      -0.5355762381151472 [Eh]
	 Opposite-Spin Energy      =      -1.6449682043511256 [Eh]
	 Correlation Energy        =      -2.1805444424662728 [Eh]
	 Total Energy              =    -514.7262972812926591 [Eh]

	 ================> DF-SCS-MP2 Energies <==================
	-----------------------------------------------------------
	 SCS Same-Spin Scale       =       0.3333333333333333 [-]
	 SCS Opposite-Spin Scale   =       1.2000000000000000 [-]
	 SCS Same-Spin Energy      =      -0.1785254127050491 [Eh]
	 SCS Opposite-Spin Energy  =      -1.9739618452213505 [Eh]
	 SCS Correlation Energy    =      -2.1524872579263996 [Eh]
	 SCS Total Energy          =    -514.6982400967527838 [Eh]
	-----------------------------------------------------------

  Dipole Moment: [D]
     X:     2.0140      Y:    -0.9203      Z:     2.8983     Total:     3.6473

*** Psi4 exiting successfully. Buy a developer a beer!
