                               Psi4 1.4a3.dev225

  ==> Input File <==

--------------------------------------------------------------------------
#psi4
#
memory 32 gb

molecule  {
0 1
  O        0.3703410     1.7406370     0.1509160
  O       -2.1946130     0.9173750    -0.9921890
  N       -2.7109060    -0.4412560     0.7761490
  C       -0.4510660    -0.4506100    -0.0514270
  C        0.6599990     0.4108460     0.0342650
  C       -0.3472737    -1.8414714    -0.1271920
  C        1.9527030    -0.1242260     0.0401840
  C        1.0395390    -2.3670290    -0.1196300
  C        2.1335050    -1.5087060    -0.0439110
  C       -1.8406380     0.1093760    -0.1384300
  C        1.4719710     2.6442150     0.1686120
  H       -1.1182000    -2.4830940    -0.1949200
  H        2.8227340     0.5195950     0.1104450
  H        1.1860280    -3.4416730    -0.1864270
  H        3.1441970    -1.9102760    -0.0447980
  H        2.0722720     2.5548100    -0.7428660
  H        2.1083110     2.4835370     1.0460470
  H        1.0258210     3.6366650     0.2171830
  H       -2.3391320    -0.8271260     1.6334900
  H       -3.6232280    -0.0028870     0.8299490
units angstrom
no_reorient  #important for SAPT in psi4, default
symmetry c1  #important for SAPT in psi4, default
}

set PROPERTIES_ORIGIN ["COM"]
properties('MP2/aug-cc-pvtz', properties = ['dipole'])
--------------------------------------------------------------------------

    Molecular point group: c1
  Charge       = 0
  Multiplicity = 1
  Basis Set: AUG-CC-PVTZ
    Blend: AUG-CC-PVTZ
  Basis Set: (AUG-CC-PVTZ AUX)
    Blend: AUG-CC-PVTZ-JKFIT

    Orbital Energies [Eh]
    ---------------------

    Doubly Occupied:

       1A    -20.590872     2A    -20.516371     3A    -15.582609
       4A    -11.353248     5A    -11.318047     6A    -11.288020
       7A    -11.258877     8A    -11.253028     9A    -11.252299
      10A    -11.247142    11A    -11.243415    12A     -1.414227
      13A     -1.369068    14A     -1.207993    15A     -1.150980
      16A     -1.045298    17A     -1.018830    18A     -0.948287
      19A     -0.875381    20A     -0.833537    21A     -0.785607
      22A     -0.735905    23A     -0.711886    24A     -0.679214
      25A     -0.667073    26A     -0.657653    27A     -0.639528
      28A     -0.633636    29A     -0.596834    30A     -0.582317
      31A     -0.559136    32A     -0.535453    33A     -0.532225
      34A     -0.521422    35A     -0.501470    36A     -0.471155
      37A     -0.421680    38A     -0.410785    39A     -0.353917
      40A     -0.317637

  @DF-RHF Final Energy:  -512.53190662704117

   => Energetics <=

    Nuclear Repulsion Energy =            591.7498309321541683
    One-Electron Energy =               -1872.3993504781140018
    Two-Electron Energy =                 768.1176129189185531
    Total Energy =                       -512.5319066270411668
  Basis Set: (AUG-CC-PVTZ AUX)
    Blend: AUG-CC-PVTZ-RI
    Molecular point group: c1

    Geometry (in Angstrom), charge = 0, multiplicity = 1:

       Center              X                  Y                   Z               Mass
    ------------   -----------------  -----------------  -----------------  -----------------
         O            0.412674972635     1.745018178926     0.169113566253    15.994914619570
         O           -2.152279027365     0.921756178926    -0.973991433747    15.994914619570
         N           -2.668572027365    -0.436874821074     0.794346566253    14.003074004430
         C           -0.408732027365    -0.446228821074    -0.033229433747    12.000000000000
         C            0.702332972635     0.415227178926     0.052462566253    12.000000000000
         C           -0.304939727365    -1.837090221074    -0.108994433747    12.000000000000
         C            1.995036972635    -0.119844821074     0.058381566253    12.000000000000
         C            1.081872972635    -2.362647821074    -0.101432433747    12.000000000000
         C            2.175838972635    -1.504324821074    -0.025713433747    12.000000000000
         C           -1.798304027365     0.113757178926    -0.120232433747    12.000000000000
         C            1.514304972635     2.648596178926     0.186809566253    12.000000000000
         H           -1.075866027365    -2.478712821074    -0.176722433747     1.007825032230
         H            2.865067972635     0.523976178926     0.128642566253     1.007825032230
         H            1.228361972635    -3.437291821074    -0.168229433747     1.007825032230
         H            3.186530972635    -1.905894821074    -0.026600433747     1.007825032230
         H            2.114605972635     2.559191178926    -0.724668433747     1.007825032230
         H            2.150644972635     2.487918178926     1.064244566253     1.007825032230
         H            1.068154972635     3.641046178926     0.235380566253     1.007825032230
         H           -2.296798027365    -0.822744821074     1.651687566253     1.007825032230
         H           -3.580894027365     0.001494178926     0.848146566253     1.007825032230

  Basis Set: AUG-CC-PVTZ
    Blend: AUG-CC-PVTZ
  Basis Set: (AUG-CC-PVTZ AUX)
    Blend: AUG-CC-PVTZ-JKFIT
	 Reference Energy          =    -512.5319066270411668 [Eh]
	 Singles Energy            =      -0.0000000000000000 [Eh]
	 Same-Spin Energy          =      -0.5357414619888059 [Eh]
	 Opposite-Spin Energy      =      -1.6463987091440764 [Eh]
	 Correlation Energy        =      -2.1821401711328825 [Eh]
	 Total Energy              =    -514.7140467981740812 [Eh]

	 ================> DF-SCS-MP2 Energies <==================
	-----------------------------------------------------------
	 SCS Same-Spin Scale       =       0.3333333333333333 [-]
	 SCS Opposite-Spin Scale   =       1.2000000000000000 [-]
	 SCS Same-Spin Energy      =      -0.1785804873296020 [Eh]
	 SCS Opposite-Spin Energy  =      -1.9756784509728915 [Eh]
	 SCS Correlation Energy    =      -2.1542589383024935 [Eh]
	 SCS Total Energy          =    -514.6861655653436856 [Eh]
	-----------------------------------------------------------

  Dipole Moment: [D]
     X:     1.9973      Y:    -0.9092      Z:     2.9018     Total:     3.6382

*** Psi4 exiting successfully. Buy a developer a beer!
