                               Psi4 1.4a3.dev225

  ==> Input File <==

--------------------------------------------------------------------------
#psi4
#
memory 32 gb

molecule  {
0 1
  O        0.3703410     1.7406370     0.1509160
  O       -2.1946130     0.9173750    -0.9921890
  N       -2.7109060    -0.4412560     0.7761490
  C       -0.4510660    -0.4506100    -0.0514270
  C        0.6599990     0.4108460     0.0342650
  C       -0.2507290    -1.8313420    -0.1181570
  C        1.9342236    -0.1165771     0.0400994
  C        1.0395390    -2.3670290    -0.1196300
  C        2.1335050    -1.5087060    -0.0439110
  C       -1.8406380     0.1093760    -0.1384300
  C        1.4719710     2.6442150     0.1686120
  H       -1.1182000    -2.4830940    -0.1949200
  H        2.8227340     0.5195950     0.1104450
  H        1.1860280    -3.4416730    -0.1864270
  H        3.1441970    -1.9102760    -0.0447980
  H        2.0722720     2.5548100    -0.7428660
  H        2.1083110     2.4835370     1.0460470
  H        1.0258210     3.6366650     0.2171830
  H       -2.3391320    -0.8271260     1.6334900
  H       -3.6232280    -0.0028870     0.8299490
units angstrom
no_reorient  #important for SAPT in psi4, default
symmetry c1  #important for SAPT in psi4, default
}

set PROPERTIES_ORIGIN ["COM"]
properties('MP2/aug-cc-pvtz', properties = ['dipole'])
--------------------------------------------------------------------------

    Molecular point group: c1
  Charge       = 0
  Multiplicity = 1
  Basis Set: AUG-CC-PVTZ
    Blend: AUG-CC-PVTZ
  Basis Set: (AUG-CC-PVTZ AUX)
    Blend: AUG-CC-PVTZ-JKFIT

    Orbital Energies [Eh]
    ---------------------

    Doubly Occupied:

       1A    -20.589326     2A    -20.517472     3A    -15.582862
       4A    -11.355139     5A    -11.314677     6A    -11.287059
       7A    -11.255351     8A    -11.255218     9A    -11.248814
      10A    -11.242046    11A    -11.238841    12A     -1.413391
      13A     -1.369722    14A     -1.207946    15A     -1.158744
      16A     -1.041572    17A     -1.026573    18A     -0.949286
      19A     -0.878531    20A     -0.822939    21A     -0.789713
      22A     -0.735497    23A     -0.709364    24A     -0.681324
      25A     -0.665825    26A     -0.656737    27A     -0.639825
      28A     -0.622928    29A     -0.596389    30A     -0.580585
      31A     -0.558343    32A     -0.544139    33A     -0.530354
      34A     -0.516731    35A     -0.501398    36A     -0.475273
      37A     -0.424298    38A     -0.411657    39A     -0.351405
      40A     -0.324734

  @DF-RHF Final Energy:  -512.54497697860006

   => Energetics <=

    Nuclear Repulsion Energy =            592.9845122242697926
    One-Electron Energy =               -1874.9149264046329790
    Two-Electron Energy =                 769.3854372017631249
    Total Energy =                       -512.5449769786000616
  Basis Set: (AUG-CC-PVTZ AUX)
    Blend: AUG-CC-PVTZ-RI
    Molecular point group: c1

    Geometry (in Angstrom), charge = 0, multiplicity = 1:

       Center              X                  Y                   Z               Mass
    ------------   -----------------  -----------------  -----------------  -----------------
         O            0.406473708509     1.743605926184     0.168402574372    15.994914619570
         O           -2.158480291491     0.920343926184    -0.974702425628    15.994914619570
         N           -2.674773291491    -0.438287073816     0.793635574372    14.003074004430
         C           -0.414933291491    -0.447641073816    -0.033940425628    12.000000000000
         C            0.696131708509     0.413814926184     0.051751574372    12.000000000000
         C           -0.214596291491    -1.828373073816    -0.100670425628    12.000000000000
         C            1.970356308509    -0.113608173816     0.057585974372    12.000000000000
         C            1.075671708509    -2.364060073816    -0.102143425628    12.000000000000
         C            2.169637708509    -1.505737073816    -0.026424425628    12.000000000000
         C           -1.804505291491     0.112344926184    -0.120943425628    12.000000000000
         C            1.508103708509     2.647183926184     0.186098574372    12.000000000000
         H           -1.082067291491    -2.480125073816    -0.177433425628     1.007825032230
         H            2.858866708509     0.522563926184     0.127931574372     1.007825032230
         H            1.222160708509    -3.438704073816    -0.168940425628     1.007825032230
         H            3.180329708509    -1.907307073816    -0.027311425628     1.007825032230
         H            2.108404708509     2.557778926184    -0.725379425628     1.007825032230
         H            2.144443708509     2.486505926184     1.063533574372     1.007825032230
         H            1.061953708509     3.639633926184     0.234669574372     1.007825032230
         H           -2.302999291491    -0.824157073816     1.650976574372     1.007825032230
         H           -3.587095291491     0.000081926184     0.847435574372     1.007825032230

  Basis Set: AUG-CC-PVTZ
    Blend: AUG-CC-PVTZ
  Basis Set: (AUG-CC-PVTZ AUX)
    Blend: AUG-CC-PVTZ-JKFIT
	 Reference Energy          =    -512.5449769786000616 [Eh]
	 Singles Energy            =      -0.0000000000000000 [Eh]
	 Same-Spin Energy          =      -0.5357041392649196 [Eh]
	 Opposite-Spin Energy      =      -1.6452970189635976 [Eh]
	 Correlation Energy        =      -2.1810011582285171 [Eh]
	 Total Energy              =    -514.7259781368285303 [Eh]

	 ================> DF-SCS-MP2 Energies <==================
	-----------------------------------------------------------
	 SCS Same-Spin Scale       =       0.3333333333333333 [-]
	 SCS Opposite-Spin Scale   =       1.2000000000000000 [-]
	 SCS Same-Spin Energy      =      -0.1785680464216398 [Eh]
	 SCS Opposite-Spin Energy  =      -1.9743564227563171 [Eh]
	 SCS Correlation Energy    =      -2.1529244691779570 [Eh]
	 SCS Total Energy          =    -514.6979014477780083 [Eh]
	-----------------------------------------------------------

  Dipole Moment: [D]
     X:     1.9968      Y:    -0.9503      Z:     2.8967     Total:     3.6443

*** Psi4 exiting successfully. Buy a developer a beer!
