                               Psi4 1.4a3.dev225

  ==> Input File <==

--------------------------------------------------------------------------
#psi4
#
memory 32 gb

molecule  {
0 1
  O        0.3703410     1.7406370     0.1509160
  O       -2.1946130     0.9173750    -0.9921890
  N       -2.7109060    -0.4412560     0.7761490
  C       -0.4510660    -0.4506100    -0.0514270
  C        0.6599990     0.4108460     0.0342650
  C       -0.2507290    -1.8313420    -0.1181570
  C        1.9527030    -0.1242260     0.0401840
  C        1.0395390    -2.3670290    -0.1196300
  C        2.1335050    -1.5087060    -0.0439110
  C       -1.8406380     0.1093760    -0.1384300
  C        1.4719710     2.6442150     0.1686120
  H       -1.1182000    -2.4830940    -0.1949200
  H        2.8227340     0.5195950     0.1104450
  H        1.1860280    -3.4416730    -0.1864270
  H        2.9583306    -1.8364272    -0.0446349
  H        2.0722720     2.5548100    -0.7428660
  H        2.1083110     2.4835370     1.0460470
  H        1.0258210     3.6366650     0.2171830
  H       -2.3391320    -0.8271260     1.6334900
  H       -3.6232280    -0.0028870     0.8299490
units angstrom
no_reorient  #important for SAPT in psi4, default
symmetry c1  #important for SAPT in psi4, default
}

set PROPERTIES_ORIGIN ["COM"]
properties('MP2/aug-cc-pvtz', properties = ['dipole'])
--------------------------------------------------------------------------

    Molecular point group: c1
  Charge       = 0
  Multiplicity = 1
  Basis Set: AUG-CC-PVTZ
    Blend: AUG-CC-PVTZ
  Basis Set: (AUG-CC-PVTZ AUX)
    Blend: AUG-CC-PVTZ-JKFIT

    Orbital Energies [Eh]
    ---------------------

    Doubly Occupied:

       1A    -20.589712     2A    -20.517167     3A    -15.582573
       4A    -11.354799     5A    -11.316485     6A    -11.287361
       7A    -11.254365     8A    -11.248001     9A    -11.241660
      10A    -11.237391    11A    -11.230138    12A     -1.413333
      13A     -1.369424    14A     -1.207635    15A     -1.159260
      16A     -1.050810    17A     -1.023784    18A     -0.949728
      19A     -0.892725    20A     -0.823905    21A     -0.793339
      22A     -0.740364    23A     -0.721773    24A     -0.683307
      25A     -0.665713    26A     -0.657058    27A     -0.647487
      28A     -0.624050    29A     -0.604401    30A     -0.581582
      31A     -0.558074    32A     -0.550486    33A     -0.529711
      34A     -0.518037    35A     -0.503357    36A     -0.475155
      37A     -0.424014    38A     -0.411408    39A     -0.351802
      40A     -0.322105

  @DF-RHF Final Energy:  -512.51076067210954

   => Energetics <=

    Nuclear Repulsion Energy =            593.8661860486456590
    One-Electron Energy =               -1876.5269312126804380
    Two-Electron Energy =                 770.1499844919252382
    Total Energy =                       -512.5107606721095408
  Basis Set: (AUG-CC-PVTZ AUX)
    Blend: AUG-CC-PVTZ-RI
    Molecular point group: c1

    Geometry (in Angstrom), charge = 0, multiplicity = 1:

       Center              X                  Y                   Z               Mass
    ------------   -----------------  -----------------  -----------------  -----------------
         O            0.406245777682     1.743720845740     0.168394765884    15.994914619570
         O           -2.158708222318     0.920458845740    -0.974710234116    15.994914619570
         N           -2.675001222318    -0.438172154260     0.793627765884    14.003074004430
         C           -0.415161222318    -0.447526154260    -0.033948234116    12.000000000000
         C            0.695903777682     0.413929845740     0.051743765884    12.000000000000
         C           -0.214824222318    -1.828258154260    -0.100678234116    12.000000000000
         C            1.988607777682    -0.121142154260     0.057662765884    12.000000000000
         C            1.075443777682    -2.363945154260    -0.102151234116    12.000000000000
         C            2.169409777682    -1.505622154260    -0.026432234116    12.000000000000
         C           -1.804733222318     0.112459845740    -0.120951234116    12.000000000000
         C            1.507875777682     2.647298845740     0.186090765884    12.000000000000
         H           -1.082295222318    -2.480010154260    -0.177441234116     1.007825032230
         H            2.858638777682     0.522678845740     0.127923765884     1.007825032230
         H            1.221932777682    -3.438589154260    -0.168948234116     1.007825032230
         H            2.994235377682    -1.833343354260    -0.027156134116     1.007825032230
         H            2.108176777682     2.557893845740    -0.725387234116     1.007825032230
         H            2.144215777682     2.486620845740     1.063525765884     1.007825032230
         H            1.061725777682     3.639748845740     0.234661765884     1.007825032230
         H           -2.303227222318    -0.824042154260     1.650968765884     1.007825032230
         H           -3.587323222318     0.000196845740     0.847427765884     1.007825032230

  Basis Set: AUG-CC-PVTZ
    Blend: AUG-CC-PVTZ
  Basis Set: (AUG-CC-PVTZ AUX)
    Blend: AUG-CC-PVTZ-JKFIT
	 Reference Energy          =    -512.5107606721095408 [Eh]
	 Singles Energy            =      -0.0000000000000000 [Eh]
	 Same-Spin Energy          =      -0.5355521786217216 [Eh]
	 Opposite-Spin Energy      =      -1.6448413259263597 [Eh]
	 Correlation Energy        =      -2.1803935045480811 [Eh]
	 Total Energy              =    -514.6911541766576192 [Eh]

	 ================> DF-SCS-MP2 Energies <==================
	-----------------------------------------------------------
	 SCS Same-Spin Scale       =       0.3333333333333333 [-]
	 SCS Opposite-Spin Scale   =       1.2000000000000000 [-]
	 SCS Same-Spin Energy      =      -0.1785173928739072 [Eh]
	 SCS Opposite-Spin Energy  =      -1.9738095911116316 [Eh]
	 SCS Correlation Energy    =      -2.1523269839855388 [Eh]
	 SCS Total Energy          =    -514.6630876560950583 [Eh]
	-----------------------------------------------------------

  Dipole Moment: [D]
     X:     2.0325      Y:    -0.9361      Z:     2.8992     Total:     3.6623

*** Psi4 exiting successfully. Buy a developer a beer!
