                               Psi4 1.4a3.dev225

  ==> Input File <==

--------------------------------------------------------------------------
#psi4
#
memory 32 gb

molecule  {
0 1
  O        0.3703410     1.7406370     0.1509160
  O       -2.1946130     0.9173750    -0.9921890
  N       -2.7109060    -0.4412560     0.7761490
  C       -0.4510660    -0.4506100    -0.0514270
  C        0.6599990     0.4108460     0.0342650
  C       -0.2507290    -1.8313420    -0.1181570
  C        1.9527030    -0.1242260     0.0401840
  C        1.0395390    -2.3670290    -0.1196300
  C        2.1335050    -1.5087060    -0.0439110
  C       -1.8406380     0.1093760    -0.1384300
  C        1.4719710     2.6442150     0.1686120
  H       -1.1182000    -2.4830940    -0.1949200
  H        2.8227340     0.5195950     0.1104450
  H        1.1860280    -3.4416730    -0.1864270
  H        3.1441970    -1.9102760    -0.0447980
  H        2.0722720     2.5548100    -0.7428660
  H        2.1083110     2.4835370     1.0460470
  H        0.9438988     3.8188990     0.2261016
  H       -2.3391320    -0.8271260     1.6334900
  H       -3.6232280    -0.0028870     0.8299490
units angstrom
no_reorient  #important for SAPT in psi4, default
symmetry c1  #important for SAPT in psi4, default
}

set PROPERTIES_ORIGIN ["COM"]
properties('MP2/aug-cc-pvtz', properties = ['dipole'])
--------------------------------------------------------------------------

    Molecular point group: c1
  Charge       = 0
  Multiplicity = 1
  Basis Set: AUG-CC-PVTZ
    Blend: AUG-CC-PVTZ
  Basis Set: (AUG-CC-PVTZ AUX)
    Blend: AUG-CC-PVTZ-JKFIT

    Orbital Energies [Eh]
    ---------------------

    Doubly Occupied:

       1A    -20.592879     2A    -20.517951     3A    -15.583285
       4A    -11.355650     5A    -11.319105     6A    -11.309664
       7A    -11.256348     8A    -11.255165     9A    -11.249466
      10A    -11.244115    11A    -11.239455    12A     -1.415793
      13A     -1.370219    14A     -1.208393    15A     -1.158836
      16A     -1.043372    17A     -1.024063    18A     -0.939001
      19A     -0.878078    20A     -0.822536    21A     -0.789974
      22A     -0.736304    23A     -0.710083    24A     -0.680845
      25A     -0.664869    26A     -0.659317    27A     -0.637984
      28A     -0.622530    29A     -0.594890    30A     -0.573110
      31A     -0.558984    32A     -0.538265    33A     -0.528958
      34A     -0.514044    35A     -0.489599    36A     -0.477171
      37A     -0.424592    38A     -0.412101    39A     -0.353373
      40A     -0.324067

  @DF-RHF Final Energy:  -512.52440739238864

   => Energetics <=

    Nuclear Repulsion Energy =            591.7933314573987218
    One-Electron Energy =               -1872.4866105574869835
    Two-Electron Energy =                 768.1688717076995090
    Total Energy =                       -512.5244073923886390
  Basis Set: (AUG-CC-PVTZ AUX)
    Blend: AUG-CC-PVTZ-RI
    Molecular point group: c1

    Geometry (in Angstrom), charge = 0, multiplicity = 1:

       Center              X                  Y                   Z               Mass
    ------------   -----------------  -----------------  -----------------  -----------------
         O            0.405552309798     1.742997749548     0.168336353216    15.994914619570
         O           -2.159401690202     0.919735749548    -0.974768646784    15.994914619570
         N           -2.675694690202    -0.438895250452     0.793569353216    14.003074004430
         C           -0.415854690202    -0.448249250452    -0.034006646784    12.000000000000
         C            0.695210309798     0.413206749548     0.051685353216    12.000000000000
         C           -0.215517690202    -1.828981250452    -0.100736646784    12.000000000000
         C            1.987914309798    -0.121865250452     0.057604353216    12.000000000000
         C            1.074750309798    -2.364668250452    -0.102209646784    12.000000000000
         C            2.168716309798    -1.506345250452    -0.026490646784    12.000000000000
         C           -1.805426690202     0.111736749548    -0.121009646784    12.000000000000
         C            1.507182309798     2.646575749548     0.186032353216    12.000000000000
         H           -1.082988690202    -2.480733250452    -0.177499646784     1.007825032230
         H            2.857945309798     0.521955749548     0.127865353216     1.007825032230
         H            1.221239309798    -3.439312250452    -0.169006646784     1.007825032230
         H            3.179408309798    -1.907915250452    -0.027377646784     1.007825032230
         H            2.107483309798     2.557170749548    -0.725445646784     1.007825032230
         H            2.143522309798     2.485897749548     1.063467353216     1.007825032230
         H            0.979110109798     3.821259749548     0.243521953216     1.007825032230
         H           -2.303920690202    -0.824765250452     1.650910353216     1.007825032230
         H           -3.588016690202    -0.000526250452     0.847369353216     1.007825032230

  Basis Set: AUG-CC-PVTZ
    Blend: AUG-CC-PVTZ
  Basis Set: (AUG-CC-PVTZ AUX)
    Blend: AUG-CC-PVTZ-JKFIT
	 Reference Energy          =    -512.5244073923886390 [Eh]
	 Singles Energy            =      -0.0000000000000000 [Eh]
	 Same-Spin Energy          =      -0.5358449578015869 [Eh]
	 Opposite-Spin Energy      =      -1.6471125019592827 [Eh]
	 Correlation Energy        =      -2.1829574597608694 [Eh]
	 Total Energy              =    -514.7073648521494533 [Eh]

	 ================> DF-SCS-MP2 Energies <==================
	-----------------------------------------------------------
	 SCS Same-Spin Scale       =       0.3333333333333333 [-]
	 SCS Opposite-Spin Scale   =       1.2000000000000000 [-]
	 SCS Same-Spin Energy      =      -0.1786149859338623 [Eh]
	 SCS Opposite-Spin Energy  =      -1.9765350023511392 [Eh]
	 SCS Correlation Energy    =      -2.1551499882850016 [Eh]
	 SCS Total Energy          =    -514.6795573806736002 [Eh]
	-----------------------------------------------------------

  Dipole Moment: [D]
     X:     1.9821      Y:    -1.0583      Z:     2.8902     Total:     3.6609

*** Psi4 exiting successfully. Buy a developer a beer!
