                               Psi4 1.4a3.dev225

  ==> Input File <==

--------------------------------------------------------------------------
#psi4
#
memory 32 gb

molecule  {
0 1
  O        0.3703410     1.7406370     0.1509160
  O       -2.1946130     0.9173750    -0.9921890
  N       -2.7109060    -0.4412560     0.7761490
  C       -0.4510660    -0.4506100    -0.0514270
  C        0.6599990     0.4108460     0.0342650
  C       -0.2478605    -1.8511121    -0.1191125
  C        1.9527030    -0.1242260     0.0401840
  C        1.0395390    -2.3670290    -0.1196300
  C        2.1335050    -1.5087060    -0.0439110
  C       -1.8406380     0.1093760    -0.1384300
  C        1.4719710     2.6442150     0.1686120
  H       -1.1182000    -2.4830940    -0.1949200
  H        2.8227340     0.5195950     0.1104450
  H        1.1860280    -3.4416730    -0.1864270
  H        3.1441970    -1.9102760    -0.0447980
  H        2.0722720     2.5548100    -0.7428660
  H        2.1083110     2.4835370     1.0460470
  H        1.0258210     3.6366650     0.2171830
  H       -2.3391320    -0.8271260     1.6334900
  H       -3.6232280    -0.0028870     0.8299490
units angstrom
no_reorient  #important for SAPT in psi4, default
symmetry c1  #important for SAPT in psi4, default
}

set PROPERTIES_ORIGIN ["COM"]
properties('MP2/aug-cc-pvtz', properties = ['dipole'])
--------------------------------------------------------------------------

    Molecular point group: c1
  Charge       = 0
  Multiplicity = 1
  Basis Set: AUG-CC-PVTZ
    Blend: AUG-CC-PVTZ
  Basis Set: (AUG-CC-PVTZ AUX)
    Blend: AUG-CC-PVTZ-JKFIT

    Orbital Energies [Eh]
    ---------------------

    Doubly Occupied:

       1A    -20.590106     2A    -20.517090     3A    -15.582615
       4A    -11.354783     5A    -11.317244     6A    -11.287666
       7A    -11.255622     8A    -11.254552     9A    -11.249539
      10A    -11.243475    11A    -11.237889    12A     -1.413729
      13A     -1.369346    14A     -1.207490    15A     -1.157003
      16A     -1.041006    17A     -1.026108    18A     -0.949173
      19A     -0.878199    20A     -0.824234    21A     -0.788415
      22A     -0.735252    23A     -0.709354    24A     -0.681541
      25A     -0.665341    26A     -0.656979    27A     -0.640223
      28A     -0.624362    29A     -0.596475    30A     -0.581381
      31A     -0.558376    32A     -0.544519    33A     -0.530271
      34A     -0.517207    35A     -0.500982    36A     -0.475864
      37A     -0.423830    38A     -0.411541    39A     -0.350373
      40A     -0.323771

  @DF-RHF Final Energy:  -512.54466900364764

   => Energetics <=

    Nuclear Repulsion Energy =            592.3450563559534885
    One-Electron Energy =               -1873.6336020686917436
    Two-Electron Energy =                 768.7438767090905003
    Total Energy =                       -512.5446690036476411
  Basis Set: (AUG-CC-PVTZ AUX)
    Blend: AUG-CC-PVTZ-RI
    Molecular point group: c1

    Geometry (in Angstrom), charge = 0, multiplicity = 1:

       Center              X                  Y                   Z               Mass
    ------------   -----------------  -----------------  -----------------  -----------------
         O            0.404777897868     1.745784006087     0.168471755954    15.994914619570
         O           -2.160176102132     0.922522006087    -0.974633244046    15.994914619570
         N           -2.676469102132    -0.436108993913     0.793704755954    14.003074004430
         C           -0.416629102132    -0.445462993913    -0.033871244046    12.000000000000
         C            0.694435897868     0.415993006087     0.051820755954    12.000000000000
         C           -0.213423602132    -1.845965093913    -0.101556744046    12.000000000000
         C            1.987139897868    -0.119078993913     0.057739755954    12.000000000000
         C            1.073975897868    -2.361881993913    -0.102074244046    12.000000000000
         C            2.167941897868    -1.503558993913    -0.026355244046    12.000000000000
         C           -1.806201102132     0.114523006087    -0.120874244046    12.000000000000
         C            1.506407897868     2.649362006087     0.186167755954    12.000000000000
         H           -1.083763102132    -2.477946993913    -0.177364244046     1.007825032230
         H            2.857170897868     0.524742006087     0.128000755954     1.007825032230
         H            1.220464897868    -3.436525993913    -0.168871244046     1.007825032230
         H            3.178633897868    -1.905128993913    -0.027242244046     1.007825032230
         H            2.106708897868     2.559957006087    -0.725310244046     1.007825032230
         H            2.142747897868     2.488684006087     1.063602755954     1.007825032230
         H            1.060257897868     3.641812006087     0.234738755954     1.007825032230
         H           -2.304695102132    -0.821978993913     1.651045755954     1.007825032230
         H           -3.588791102132     0.002260006087     0.847504755954     1.007825032230

  Basis Set: AUG-CC-PVTZ
    Blend: AUG-CC-PVTZ
  Basis Set: (AUG-CC-PVTZ AUX)
    Blend: AUG-CC-PVTZ-JKFIT
	 Reference Energy          =    -512.5446690036476411 [Eh]
	 Singles Energy            =      -0.0000000000000000 [Eh]
	 Same-Spin Energy          =      -0.5357646129637209 [Eh]
	 Opposite-Spin Energy      =      -1.6453938942240818 [Eh]
	 Correlation Energy        =      -2.1811585071878028 [Eh]
	 Total Energy              =    -514.7258275108354155 [Eh]

	 ================> DF-SCS-MP2 Energies <==================
	-----------------------------------------------------------
	 SCS Same-Spin Scale       =       0.3333333333333333 [-]
	 SCS Opposite-Spin Scale   =       1.2000000000000000 [-]
	 SCS Same-Spin Energy      =      -0.1785882043212403 [Eh]
	 SCS Opposite-Spin Energy  =      -1.9744726730688980 [Eh]
	 SCS Correlation Energy    =      -2.1530608773901383 [Eh]
	 SCS Total Energy          =    -514.6977298810377306 [Eh]
	-----------------------------------------------------------

  Dipole Moment: [D]
     X:     2.0106      Y:    -0.9194      Z:     2.8981     Total:     3.6451

*** Psi4 exiting successfully. Buy a developer a beer!
