                               Psi4 1.4a3.dev225

  ==> Input File <==

--------------------------------------------------------------------------
#psi4
#
memory 32 gb

molecule  {
0 1
  O        0.3703410     1.7406370     0.1509160
  O       -2.1946130     0.9173750    -0.9921890
  N       -2.7109060    -0.4412560     0.7761490
  C       -0.4510660    -0.4506100    -0.0514270
  C        0.6642401     0.3913756     0.0325570
  C       -0.2507290    -1.8313420    -0.1181570
  C        1.9527030    -0.1242260     0.0401840
  C        1.0395390    -2.3670290    -0.1196300
  C        2.1335050    -1.5087060    -0.0439110
  C       -1.8406380     0.1093760    -0.1384300
  C        1.4719710     2.6442150     0.1686120
  H       -1.1182000    -2.4830940    -0.1949200
  H        2.8227340     0.5195950     0.1104450
  H        1.1860280    -3.4416730    -0.1864270
  H        3.1441970    -1.9102760    -0.0447980
  H        2.0722720     2.5548100    -0.7428660
  H        2.1083110     2.4835370     1.0460470
  H        1.0258210     3.6366650     0.2171830
  H       -2.3391320    -0.8271260     1.6334900
  H       -3.6232280    -0.0028870     0.8299490
units angstrom
no_reorient  #important for SAPT in psi4, default
symmetry c1  #important for SAPT in psi4, default
}

set PROPERTIES_ORIGIN ["COM"]
properties('MP2/aug-cc-pvtz', properties = ['dipole'])
--------------------------------------------------------------------------

    Molecular point group: c1
  Charge       = 0
  Multiplicity = 1
  Basis Set: AUG-CC-PVTZ
    Blend: AUG-CC-PVTZ
  Basis Set: (AUG-CC-PVTZ AUX)
    Blend: AUG-CC-PVTZ-JKFIT

    Orbital Energies [Eh]
    ---------------------

    Doubly Occupied:

       1A    -20.586747     2A    -20.517836     3A    -15.583344
       4A    -11.355970     5A    -11.315566     6A    -11.285414
       7A    -11.256016     8A    -11.254778     9A    -11.248824
      10A    -11.242767    11A    -11.239618    12A     -1.404536
      13A     -1.369823    14A     -1.208466    15A     -1.160651
      16A     -1.044097    17A     -1.025952    18A     -0.946098
      19A     -0.878297    20A     -0.825426    21A     -0.790012
      22A     -0.735687    23A     -0.707548    24A     -0.680449
      25A     -0.664466    26A     -0.653346    27A     -0.638710
      28A     -0.625117    29A     -0.597247    30A     -0.581425
      31A     -0.558980    32A     -0.543780    33A     -0.529320
      34A     -0.517338    35A     -0.500624    36A     -0.474230
      37A     -0.424739    38A     -0.412053    39A     -0.353320
      40A     -0.325756

  @DF-RHF Final Energy:  -512.54458370820817

   => Energetics <=

    Nuclear Repulsion Energy =            592.6660657985463558
    One-Electron Energy =               -1874.2925556574773509
    Two-Electron Energy =                 769.0819061507229435
    Total Energy =                       -512.5445837082081653
  Basis Set: (AUG-CC-PVTZ AUX)
    Blend: AUG-CC-PVTZ-RI
    Molecular point group: c1

    Geometry (in Angstrom), charge = 0, multiplicity = 1:

       Center              X                  Y                   Z               Mass
    ------------   -----------------  -----------------  -----------------  -----------------
         O            0.404668862802     1.745760198853     0.168531532209    15.994914619570
         O           -2.160285137198     0.922498198853    -0.974573467791    15.994914619570
         N           -2.676578137198    -0.436132801147     0.793764532209    14.003074004430
         C           -0.416738137198    -0.445486801147    -0.033811467791    12.000000000000
         C            0.698567962802     0.396498798853     0.050172532209    12.000000000000
         C           -0.216401137198    -1.826218801147    -0.100541467791    12.000000000000
         C            1.987030862802    -0.119102801147     0.057799532209    12.000000000000
         C            1.073866862802    -2.361905801147    -0.102014467791    12.000000000000
         C            2.167832862802    -1.503582801147    -0.026295467791    12.000000000000
         C           -1.806310137198     0.114499198853    -0.120814467791    12.000000000000
         C            1.506298862802     2.649338198853     0.186227532209    12.000000000000
         H           -1.083872137198    -2.477970801147    -0.177304467791     1.007825032230
         H            2.857061862802     0.524718198853     0.128060532209     1.007825032230
         H            1.220355862802    -3.436549801147    -0.168811467791     1.007825032230
         H            3.178524862802    -1.905152801147    -0.027182467791     1.007825032230
         H            2.106599862802     2.559933198853    -0.725250467791     1.007825032230
         H            2.142638862802     2.488660198853     1.063662532209     1.007825032230
         H            1.060148862802     3.641788198853     0.234798532209     1.007825032230
         H           -2.304804137198    -0.822002801147     1.651105532209     1.007825032230
         H           -3.588900137198     0.002236198853     0.847564532209     1.007825032230

  Basis Set: AUG-CC-PVTZ
    Blend: AUG-CC-PVTZ
  Basis Set: (AUG-CC-PVTZ AUX)
    Blend: AUG-CC-PVTZ-JKFIT
	 Reference Energy          =    -512.5445837082081653 [Eh]
	 Singles Energy            =      -0.0000000000000000 [Eh]
	 Same-Spin Energy          =      -0.5357106932779153 [Eh]
	 Opposite-Spin Energy      =      -1.6455153441734656 [Eh]
	 Correlation Energy        =      -2.1812260374513808 [Eh]
	 Total Energy              =    -514.7258097456594896 [Eh]

	 ================> DF-SCS-MP2 Energies <==================
	-----------------------------------------------------------
	 SCS Same-Spin Scale       =       0.3333333333333333 [-]
	 SCS Opposite-Spin Scale   =       1.2000000000000000 [-]
	 SCS Same-Spin Energy      =      -0.1785702310926384 [Eh]
	 SCS Opposite-Spin Energy  =      -1.9746184130081585 [Eh]
	 SCS Correlation Energy    =      -2.1531886441007968 [Eh]
	 SCS Total Energy          =    -514.6977723523090162 [Eh]
	-----------------------------------------------------------

  Dipole Moment: [D]
     X:     1.9888      Y:    -1.0572      Z:     2.8873     Total:     3.6618

*** Psi4 exiting successfully. Buy a developer a beer!
