                               Psi4 1.4a3.dev225

  ==> Input File <==

--------------------------------------------------------------------------
#psi4
#
memory 32 gb

molecule  {
0 1
  O        0.3703410     1.7406370     0.1509160
  O       -2.1946130     0.9173750    -0.9921890
  N       -2.7109060    -0.4412560     0.7761490
  C       -0.4510660    -0.4506100    -0.0514270
  C        0.6599990     0.4108460     0.0342650
  C       -0.2507290    -1.8313420    -0.1181570
  C        1.8603062    -0.0859814     0.0397609
  C        1.0395390    -2.3670290    -0.1196300
  C        2.1335050    -1.5087060    -0.0439110
  C       -1.8406380     0.1093760    -0.1384300
  C        1.4719710     2.6442150     0.1686120
  H       -1.1182000    -2.4830940    -0.1949200
  H        2.8227340     0.5195950     0.1104450
  H        1.1860280    -3.4416730    -0.1864270
  H        3.1441970    -1.9102760    -0.0447980
  H        2.0722720     2.5548100    -0.7428660
  H        2.1083110     2.4835370     1.0460470
  H        1.0258210     3.6366650     0.2171830
  H       -2.3391320    -0.8271260     1.6334900
  H       -3.6232280    -0.0028870     0.8299490
units angstrom
no_reorient  #important for SAPT in psi4, default
symmetry c1  #important for SAPT in psi4, default
}

set PROPERTIES_ORIGIN ["COM"]
properties('MP2/aug-cc-pvtz', properties = ['dipole'])
--------------------------------------------------------------------------

    Molecular point group: c1
  Charge       = 0
  Multiplicity = 1
  Basis Set: AUG-CC-PVTZ
    Blend: AUG-CC-PVTZ
  Basis Set: (AUG-CC-PVTZ AUX)
    Blend: AUG-CC-PVTZ-JKFIT

    Orbital Energies [Eh]
    ---------------------

    Doubly Occupied:

       1A    -20.584890     2A    -20.517713     3A    -15.583050
       4A    -11.355448     5A    -11.302232     6A    -11.284498
       7A    -11.259708     8A    -11.255507     9A    -11.250922
      10A    -11.240709    11A    -11.238847    12A     -1.411268
      13A     -1.369891    14A     -1.208222    15A     -1.163074
      16A     -1.037853    17A     -1.034873    18A     -0.948348
      19A     -0.883559    20A     -0.817046    21A     -0.791643
      22A     -0.735467    23A     -0.710743    24A     -0.679602
      25A     -0.666341    26A     -0.655518    27A     -0.642503
      28A     -0.619983    29A     -0.595477    30A     -0.574341
      31A     -0.558656    32A     -0.546434    33A     -0.531878
      34A     -0.508171    35A     -0.500272    36A     -0.473177
      37A     -0.424862    38A     -0.411759    39A     -0.350724
      40A     -0.331315

  @DF-RHF Final Energy:  -512.53203444188205

   => Energetics <=

    Nuclear Repulsion Energy =            594.3472250698777088
    One-Electron Energy =               -1877.6454692718912156
    Two-Electron Energy =                 770.7662097601313462
    Total Energy =                       -512.5320344418820468
  Basis Set: (AUG-CC-PVTZ AUX)
    Blend: AUG-CC-PVTZ-RI
    Molecular point group: c1

    Geometry (in Angstrom), charge = 0, multiplicity = 1:

       Center              X                  Y                   Z               Mass
    ------------   -----------------  -----------------  -----------------  -----------------
         O            0.412345476387     1.741175499133     0.168429463757    15.994914619570
         O           -2.152608523613     0.917913499133    -0.974675536243    15.994914619570
         N           -2.668901523613    -0.440717500867     0.793662463757    14.003074004430
         C           -0.409061523613    -0.450071500867    -0.033913536243    12.000000000000
         C            0.702003476387     0.411384499133     0.051778463757    12.000000000000
         C           -0.208724523613    -1.830803500867    -0.100643536243    12.000000000000
         C            1.902310676387    -0.085442900867     0.057274363757    12.000000000000
         C            1.081543476387    -2.366490500867    -0.102116536243    12.000000000000
         C            2.175509476387    -1.508167500867    -0.026397536243    12.000000000000
         C           -1.798633523613     0.109914499133    -0.120916536243    12.000000000000
         C            1.513975476387     2.644753499133     0.186125463757    12.000000000000
         H           -1.076195523613    -2.482555500867    -0.177406536243     1.007825032230
         H            2.864738476387     0.520133499133     0.127958463757     1.007825032230
         H            1.228032476387    -3.441134500867    -0.168913536243     1.007825032230
         H            3.186201476387    -1.909737500867    -0.027284536243     1.007825032230
         H            2.114276476387     2.555348499133    -0.725352536243     1.007825032230
         H            2.150315476387     2.484075499133     1.063560463757     1.007825032230
         H            1.067825476387     3.637203499133     0.234696463757     1.007825032230
         H           -2.297127523613    -0.826587500867     1.651003463757     1.007825032230
         H           -3.581223523613    -0.002348500867     0.847462463757     1.007825032230

  Basis Set: AUG-CC-PVTZ
    Blend: AUG-CC-PVTZ
  Basis Set: (AUG-CC-PVTZ AUX)
    Blend: AUG-CC-PVTZ-JKFIT
	 Reference Energy          =    -512.5320344418820468 [Eh]
	 Singles Energy            =      -0.0000000000000000 [Eh]
	 Same-Spin Energy          =      -0.5355686923496407 [Eh]
	 Opposite-Spin Energy      =      -1.6456820291299290 [Eh]
	 Correlation Energy        =      -2.1812507214795698 [Eh]
	 Total Energy              =    -514.7132851633616610 [Eh]

	 ================> DF-SCS-MP2 Energies <==================
	-----------------------------------------------------------
	 SCS Same-Spin Scale       =       0.3333333333333333 [-]
	 SCS Opposite-Spin Scale   =       1.2000000000000000 [-]
	 SCS Same-Spin Energy      =      -0.1785228974498802 [Eh]
	 SCS Opposite-Spin Energy  =      -1.9748184349559148 [Eh]
	 SCS Correlation Energy    =      -2.1533413324057951 [Eh]
	 SCS Total Energy          =    -514.6853757742878770 [Eh]
	-----------------------------------------------------------

  Dipole Moment: [D]
     X:     1.9982      Y:    -1.1148      Z:     2.8840     Total:     3.6814

*** Psi4 exiting successfully. Buy a developer a beer!
