                               Psi4 1.4a3.dev225

  ==> Input File <==

--------------------------------------------------------------------------
#psi4
#
memory 32 gb

molecule  {
0 1
  O        0.3703410     1.7406370     0.1509160
  O       -2.1946130     0.9173750    -0.9921890
  N       -2.7109060    -0.4412560     0.7761490
  C       -0.4510660    -0.4506100    -0.0514270
  C        0.6599990     0.4108460     0.0342650
  C       -0.2507290    -1.8313420    -0.1181570
  C        1.7679094    -0.0477368     0.0393379
  C        1.0395390    -2.3670290    -0.1196300
  C        2.1335050    -1.5087060    -0.0439110
  C       -1.8406380     0.1093760    -0.1384300
  C        1.4719710     2.6442150     0.1686120
  H       -1.1182000    -2.4830940    -0.1949200
  H        2.8227340     0.5195950     0.1104450
  H        1.1860280    -3.4416730    -0.1864270
  H        3.1441970    -1.9102760    -0.0447980
  H        2.0722720     2.5548100    -0.7428660
  H        2.1083110     2.4835370     1.0460470
  H        1.0258210     3.6366650     0.2171830
  H       -2.3391320    -0.8271260     1.6334900
  H       -3.6232280    -0.0028870     0.8299490
units angstrom
no_reorient  #important for SAPT in psi4, default
symmetry c1  #important for SAPT in psi4, default
}

set PROPERTIES_ORIGIN ["COM"]
properties('MP2/aug-cc-pvtz', properties = ['dipole'])
--------------------------------------------------------------------------

    Molecular point group: c1
  Charge       = 0
  Multiplicity = 1
  Basis Set: AUG-CC-PVTZ
    Blend: AUG-CC-PVTZ
  Basis Set: (AUG-CC-PVTZ AUX)
    Blend: AUG-CC-PVTZ-JKFIT

    Orbital Energies [Eh]
    ---------------------

    Doubly Occupied:

       1A    -20.579012     2A    -20.517911     3A    -15.583223
       4A    -11.355740     5A    -11.283965     6A    -11.281178
       7A    -11.265058     8A    -11.256019     9A    -11.253445
      10A    -11.243283    11A    -11.233534    12A     -1.408863
      13A     -1.370001    14A     -1.208606    15A     -1.171001
      16A     -1.051538    17A     -1.030849    18A     -0.946973
      19A     -0.888419    20A     -0.809495    21A     -0.793706
      22A     -0.735722    23A     -0.711796    24A     -0.677165
      25A     -0.667759    26A     -0.654953    27A     -0.645364
      28A     -0.616732    29A     -0.593854    30A     -0.568394
      31A     -0.559526    32A     -0.549676    33A     -0.535828
      34A     -0.506143    35A     -0.480366    36A     -0.470525
      37A     -0.425192    38A     -0.411762    39A     -0.360578
      40A     -0.332636

  @DF-RHF Final Energy:  -512.48345267959871

   => Energetics <=

    Nuclear Repulsion Energy =            596.2416091627187598
    One-Electron Energy =               -1881.3785385173746363
    Two-Electron Energy =                 772.6534766750571634
    Total Energy =                       -512.4834526795987131
  Basis Set: (AUG-CC-PVTZ AUX)
    Blend: AUG-CC-PVTZ-RI
    Molecular point group: c1

    Geometry (in Angstrom), charge = 0, multiplicity = 1:

       Center              X                  Y                   Z               Mass
    ------------   -----------------  -----------------  -----------------  -----------------
         O            0.419685190206     1.738137467306     0.168463065559    15.994914619570
         O           -2.145268809794     0.914875467306    -0.974641934441    15.994914619570
         N           -2.661561809794    -0.443755532694     0.793696065559    14.003074004430
         C           -0.401721809794    -0.453109532694    -0.033879934441    12.000000000000
         C            0.709343190206     0.408346467306     0.051812065559    12.000000000000
         C           -0.201384809794    -1.833841532694    -0.100609934441    12.000000000000
         C            1.817253590206    -0.050236332694     0.056884965559    12.000000000000
         C            1.088883190206    -2.369528532694    -0.102082934441    12.000000000000
         C            2.182849190206    -1.511205532694    -0.026363934441    12.000000000000
         C           -1.791293809794     0.106876467306    -0.120882934441    12.000000000000
         C            1.521315190206     2.641715467306     0.186159065559    12.000000000000
         H           -1.068855809794    -2.485593532694    -0.177372934441     1.007825032230
         H            2.872078190206     0.517095467306     0.127992065559     1.007825032230
         H            1.235372190206    -3.444172532694    -0.168879934441     1.007825032230
         H            3.193541190206    -1.912775532694    -0.027250934441     1.007825032230
         H            2.121616190206     2.552310467306    -0.725318934441     1.007825032230
         H            2.157655190206     2.481037467306     1.063594065559     1.007825032230
         H            1.075165190206     3.634165467306     0.234730065559     1.007825032230
         H           -2.289787809794    -0.829625532694     1.651037065559     1.007825032230
         H           -3.573883809794    -0.005386532694     0.847496065559     1.007825032230

  Basis Set: AUG-CC-PVTZ
    Blend: AUG-CC-PVTZ
  Basis Set: (AUG-CC-PVTZ AUX)
    Blend: AUG-CC-PVTZ-JKFIT
	 Reference Energy          =    -512.4834526795987131 [Eh]
	 Singles Energy            =      -0.0000000000000000 [Eh]
	 Same-Spin Energy          =      -0.5352780883506181 [Eh]
	 Opposite-Spin Energy      =      -1.6469288936378317 [Eh]
	 Correlation Energy        =      -2.1822069819884495 [Eh]
	 Total Energy              =    -514.6656596615871422 [Eh]

	 ================> DF-SCS-MP2 Energies <==================
	-----------------------------------------------------------
	 SCS Same-Spin Scale       =       0.3333333333333333 [-]
	 SCS Opposite-Spin Scale   =       1.2000000000000000 [-]
	 SCS Same-Spin Energy      =      -0.1784260294502060 [Eh]
	 SCS Opposite-Spin Energy  =      -1.9763146723653979 [Eh]
	 SCS Correlation Energy    =      -2.1547407018156037 [Eh]
	 SCS Total Energy          =    -514.6381933814143395 [Eh]
	-----------------------------------------------------------

  Dipole Moment: [D]
     X:     2.0033      Y:    -1.3595      Z:     2.8650     Total:     3.7510

*** Psi4 exiting successfully. Buy a developer a beer!
