                               Psi4 1.4a3.dev225

  ==> Input File <==

--------------------------------------------------------------------------
#psi4
#
memory 32 gb

molecule  {
0 1
  O        0.3703410     1.7406370     0.1509160
  O       -2.1946130     0.9173750    -0.9921890
  N       -2.7109060    -0.4412560     0.7761490
  C       -0.4510660    -0.4506100    -0.0514270
  C        0.6599990     0.4108460     0.0342650
  C       -0.2507290    -1.8313420    -0.1181570
  C        1.9527030    -0.1242260     0.0401840
  C        1.0395390    -2.3670290    -0.1196300
  C        2.1335050    -1.5087060    -0.0439110
  C       -1.8406380     0.1093760    -0.1384300
  C        1.4719710     2.6442150     0.1686120
  H       -1.1182000    -2.4830940    -0.1949200
  H        2.8227340     0.5195950     0.1104450
  H        1.1860280    -3.4416730    -0.1864270
  H        3.1441970    -1.9102760    -0.0447980
  H        2.0722720     2.5548100    -0.7428660
  H        2.1083110     2.4835370     1.0460470
  H        1.0463015     3.5911065     0.2149533
  H       -2.3391320    -0.8271260     1.6334900
  H       -3.6232280    -0.0028870     0.8299490
units angstrom
no_reorient  #important for SAPT in psi4, default
symmetry c1  #important for SAPT in psi4, default
}

set PROPERTIES_ORIGIN ["COM"]
properties('MP2/aug-cc-pvtz', properties = ['dipole'])
--------------------------------------------------------------------------

    Molecular point group: c1
  Charge       = 0
  Multiplicity = 1
  Basis Set: AUG-CC-PVTZ
    Blend: AUG-CC-PVTZ
  Basis Set: (AUG-CC-PVTZ AUX)
    Blend: AUG-CC-PVTZ-JKFIT

    Orbital Energies [Eh]
    ---------------------

    Doubly Occupied:

       1A    -20.589907     2A    -20.517297     3A    -15.582718
       4A    -11.354939     5A    -11.317108     6A    -11.281739
       7A    -11.255163     8A    -11.253908     9A    -11.248060
      10A    -11.242459    11A    -11.238223    12A     -1.413642
      13A     -1.369567    14A     -1.207780    15A     -1.157752
      16A     -1.042892    17A     -1.025262    18A     -0.953680
      19A     -0.877041    20A     -0.825124    21A     -0.789184
      22A     -0.735395    23A     -0.708770    24A     -0.682538
      25A     -0.666658    26A     -0.656764    27A     -0.640136
      28A     -0.624105    29A     -0.597945    30A     -0.584738
      31A     -0.558175    32A     -0.545431    33A     -0.530460
      34A     -0.519411    35A     -0.501274    36A     -0.475531
      37A     -0.424018    38A     -0.411528    39A     -0.352122
      40A     -0.322556

  @DF-RHF Final Energy:  -512.54441815067537

   => Energetics <=

    Nuclear Repulsion Energy =            592.9103806900252494
    One-Electron Energy =               -1874.7475928530434430
    Two-Electron Energy =                 769.2927940123428243
    Total Energy =                       -512.5444181506753694
  Basis Set: (AUG-CC-PVTZ AUX)
    Blend: AUG-CC-PVTZ-RI
    Molecular point group: c1

    Geometry (in Angstrom), charge = 0, multiplicity = 1:

       Center              X                  Y                   Z               Mass
    ------------   -----------------  -----------------  -----------------  -----------------
         O            0.404869126094     1.744517476313     0.168410729545    15.994914619570
         O           -2.160084873906     0.921255476313    -0.974694270455    15.994914619570
         N           -2.676377873906    -0.437375523687     0.793643729545    14.003074004430
         C           -0.416537873906    -0.446729523687    -0.033932270455    12.000000000000
         C            0.694527126094     0.414726476313     0.051759729545    12.000000000000
         C           -0.216200873906    -1.827461523687    -0.100662270455    12.000000000000
         C            1.987231126094    -0.120345523687     0.057678729545    12.000000000000
         C            1.074067126094    -2.363148523687    -0.102135270455    12.000000000000
         C            2.168033126094    -1.504825523687    -0.026416270455    12.000000000000
         C           -1.806109873906     0.113256476313    -0.120935270455    12.000000000000
         C            1.506499126094     2.648095476313     0.186106729545    12.000000000000
         H           -1.083671873906    -2.479213523687    -0.177425270455     1.007825032230
         H            2.857262126094     0.523475476313     0.127939729545     1.007825032230
         H            1.220556126094    -3.437792523687    -0.168932270455     1.007825032230
         H            3.178725126094    -1.906395523687    -0.027303270455     1.007825032230
         H            2.106800126094     2.558690476313    -0.725371270455     1.007825032230
         H            2.142839126094     2.487417476313     1.063541729545     1.007825032230
         H            1.080829626094     3.594986976313     0.232448029545     1.007825032230
         H           -2.304603873906    -0.823245523687     1.650984729545     1.007825032230
         H           -3.588699873906     0.000993476313     0.847443729545     1.007825032230

  Basis Set: AUG-CC-PVTZ
    Blend: AUG-CC-PVTZ
  Basis Set: (AUG-CC-PVTZ AUX)
    Blend: AUG-CC-PVTZ-JKFIT
	 Reference Energy          =    -512.5444181506753694 [Eh]
	 Singles Energy            =      -0.0000000000000000 [Eh]
	 Same-Spin Energy          =      -0.5356899533628583 [Eh]
	 Opposite-Spin Energy      =      -1.6449700325682639 [Eh]
	 Correlation Energy        =      -2.1806599859311220 [Eh]
	 Total Energy              =    -514.7250781366064984 [Eh]

	 ================> DF-SCS-MP2 Energies <==================
	-----------------------------------------------------------
	 SCS Same-Spin Scale       =       0.3333333333333333 [-]
	 SCS Opposite-Spin Scale   =       1.2000000000000000 [-]
	 SCS Same-Spin Energy      =      -0.1785633177876194 [Eh]
	 SCS Opposite-Spin Energy  =      -1.9739640390819166 [Eh]
	 SCS Correlation Energy    =      -2.1525273568695362 [Eh]
	 SCS Total Energy          =    -514.6969455075449105 [Eh]
	-----------------------------------------------------------

  Dipole Moment: [D]
     X:     2.0019      Y:    -0.8891      Z:     2.9011     Total:     3.6352

*** Psi4 exiting successfully. Buy a developer a beer!
