                               Psi4 1.4a3.dev225

  ==> Input File <==

--------------------------------------------------------------------------
#psi4
#
memory 32 gb

molecule  {
0 1
  O        0.3703410     1.7406370     0.1509160
  O       -2.1946130     0.9173750    -0.9921890
  N       -2.7109060    -0.4412560     0.7761490
  C       -0.4510660    -0.4506100    -0.0514270
  C        0.6599990     0.4108460     0.0342650
  C       -0.2507290    -1.8313420    -0.1181570
  C        1.9527030    -0.1242260     0.0401840
  C        0.9933608    -2.3478570    -0.1195773
  C        2.1335050    -1.5087060    -0.0439110
  C       -1.8406380     0.1093760    -0.1384300
  C        1.4719710     2.6442150     0.1686120
  H       -1.1182000    -2.4830940    -0.1949200
  H        2.8227340     0.5195950     0.1104450
  H        1.1860280    -3.4416730    -0.1864270
  H        3.1441970    -1.9102760    -0.0447980
  H        2.0722720     2.5548100    -0.7428660
  H        2.1083110     2.4835370     1.0460470
  H        1.0258210     3.6366650     0.2171830
  H       -2.3391320    -0.8271260     1.6334900
  H       -3.6232280    -0.0028870     0.8299490
units angstrom
no_reorient  #important for SAPT in psi4, default
symmetry c1  #important for SAPT in psi4, default
}

set PROPERTIES_ORIGIN ["COM"]
properties('MP2/aug-cc-pvtz', properties = ['dipole'])
--------------------------------------------------------------------------

    Molecular point group: c1
  Charge       = 0
  Multiplicity = 1
  Basis Set: AUG-CC-PVTZ
    Blend: AUG-CC-PVTZ
  Basis Set: (AUG-CC-PVTZ AUX)
    Blend: AUG-CC-PVTZ-JKFIT

    Orbital Energies [Eh]
    ---------------------

    Doubly Occupied:

       1A    -20.589990     2A    -20.516768     3A    -15.582288
       4A    -11.354281     5A    -11.317040     6A    -11.287748
       7A    -11.257404     8A    -11.248827     9A    -11.246601
      10A    -11.244082    11A    -11.237756    12A     -1.413680
      13A     -1.369037    14A     -1.207477    15A     -1.160701
      16A     -1.040736    17A     -1.029526    18A     -0.948654
      19A     -0.879443    20A     -0.821903    21A     -0.788568
      22A     -0.735227    23A     -0.709026    24A     -0.681362
      25A     -0.665898    26A     -0.656890    27A     -0.638457
      28A     -0.623595    29A     -0.597994    30A     -0.582032
      31A     -0.557791    32A     -0.547729    33A     -0.530312
      34A     -0.512385    35A     -0.498912    36A     -0.477555
      37A     -0.423808    38A     -0.411177    39A     -0.354455
      40A     -0.322175

  @DF-RHF Final Energy:  -512.54206605984518

   => Energetics <=

    Nuclear Repulsion Energy =            593.3031615121376490
    One-Electron Energy =               -1875.5518746771456335
    Two-Electron Energy =                 769.7066471051628014
    Total Energy =                       -512.5420660598451832
  Basis Set: (AUG-CC-PVTZ AUX)
    Blend: AUG-CC-PVTZ-RI
    Molecular point group: c1

    Geometry (in Angstrom), charge = 0, multiplicity = 1:

       Center              X                  Y                   Z               Mass
    ------------   -----------------  -----------------  -----------------  -----------------
         O            0.408674014852     1.742690567034     0.168391667688    15.994914619570
         O           -2.156279985148     0.919428567034    -0.974713332312    15.994914619570
         N           -2.672572985148    -0.439202432966     0.793624667688    14.003074004430
         C           -0.412732985148    -0.448556432966    -0.033951332312    12.000000000000
         C            0.698332014852     0.412899567034     0.051740667688    12.000000000000
         C           -0.212395985148    -1.829288432966    -0.100681332312    12.000000000000
         C            1.991036014852    -0.122172432966     0.057659667688    12.000000000000
         C            1.031693814852    -2.345803432966    -0.102101632312    12.000000000000
         C            2.171838014852    -1.506652432966    -0.026435332312    12.000000000000
         C           -1.802304985148     0.111429567034    -0.120954332312    12.000000000000
         C            1.510304014852     2.646268567034     0.186087667688    12.000000000000
         H           -1.079866985148    -2.481040432966    -0.177444332312     1.007825032230
         H            2.861067014852     0.521648567034     0.127920667688     1.007825032230
         H            1.224361014852    -3.439619432966    -0.168951332312     1.007825032230
         H            3.182530014852    -1.908222432966    -0.027322332312     1.007825032230
         H            2.110605014852     2.556863567034    -0.725390332312     1.007825032230
         H            2.146644014852     2.485590567034     1.063522667688     1.007825032230
         H            1.064154014852     3.638718567034     0.234658667688     1.007825032230
         H           -2.300798985148    -0.825072432966     1.650965667688     1.007825032230
         H           -3.584894985148    -0.000833432966     0.847424667688     1.007825032230

  Basis Set: AUG-CC-PVTZ
    Blend: AUG-CC-PVTZ
  Basis Set: (AUG-CC-PVTZ AUX)
    Blend: AUG-CC-PVTZ-JKFIT
	 Reference Energy          =    -512.5420660598451832 [Eh]
	 Singles Energy            =      -0.0000000000000000 [Eh]
	 Same-Spin Energy          =      -0.5358516653729832 [Eh]
	 Opposite-Spin Energy      =      -1.6454080000790774 [Eh]
	 Correlation Energy        =      -2.1812596654520604 [Eh]
	 Total Energy              =    -514.7233257252972862 [Eh]

	 ================> DF-SCS-MP2 Energies <==================
	-----------------------------------------------------------
	 SCS Same-Spin Scale       =       0.3333333333333333 [-]
	 SCS Opposite-Spin Scale   =       1.2000000000000000 [-]
	 SCS Same-Spin Energy      =      -0.1786172217909944 [Eh]
	 SCS Opposite-Spin Energy  =      -1.9744896000948928 [Eh]
	 SCS Correlation Energy    =      -2.1531068218858871 [Eh]
	 SCS Total Energy          =    -514.6951728817310823 [Eh]
	-----------------------------------------------------------

  Dipole Moment: [D]
     X:     2.0387      Y:    -0.9083      Z:     2.9011     Total:     3.6602

*** Psi4 exiting successfully. Buy a developer a beer!
