                               Psi4 1.4a3.dev225

  ==> Input File <==

--------------------------------------------------------------------------
#psi4
#
memory 32 gb

molecule  {
0 1
  O        0.3703410     1.7406370     0.1509160
  O       -2.1946130     0.9173750    -0.9921890
  N       -2.7109060    -0.4412560     0.7761490
  C       -0.4510660    -0.4506100    -0.0514270
  C        0.6599990     0.4108460     0.0342650
  C       -0.2507290    -1.8313420    -0.1181570
  C        1.9527030    -0.1242260     0.0401840
  C        0.8548260    -2.2903408    -0.1194191
  C        2.1335050    -1.5087060    -0.0439110
  C       -1.8406380     0.1093760    -0.1384300
  C        1.4719710     2.6442150     0.1686120
  H       -1.1182000    -2.4830940    -0.1949200
  H        2.8227340     0.5195950     0.1104450
  H        1.1860280    -3.4416730    -0.1864270
  H        3.1441970    -1.9102760    -0.0447980
  H        2.0722720     2.5548100    -0.7428660
  H        2.1083110     2.4835370     1.0460470
  H        1.0258210     3.6366650     0.2171830
  H       -2.3391320    -0.8271260     1.6334900
  H       -3.6232280    -0.0028870     0.8299490
units angstrom
no_reorient  #important for SAPT in psi4, default
symmetry c1  #important for SAPT in psi4, default
}

set PROPERTIES_ORIGIN ["COM"]
properties('MP2/aug-cc-pvtz', properties = ['dipole'])
--------------------------------------------------------------------------

    Molecular point group: c1
  Charge       = 0
  Multiplicity = 1
  Basis Set: AUG-CC-PVTZ
    Blend: AUG-CC-PVTZ
  Basis Set: (AUG-CC-PVTZ AUX)
    Blend: AUG-CC-PVTZ-JKFIT

    Orbital Energies [Eh]
    ---------------------

    Doubly Occupied:

       1A    -20.589416     2A    -20.514799     3A    -15.580681
       4A    -11.351904     5A    -11.316528     6A    -11.288171
       7A    -11.266685     8A    -11.248164     9A    -11.242228
      10A    -11.234425    11A    -11.223979    12A     -1.413409
      13A     -1.367100    14A     -1.206696    15A     -1.174146
      16A     -1.053825    17A     -1.029681    18A     -0.947273
      19A     -0.884198    20A     -0.814580    21A     -0.784991
      22A     -0.735002    23A     -0.708667    24A     -0.684398
      25A     -0.664231    26A     -0.656001    27A     -0.641440
      28A     -0.619407    29A     -0.604201    30A     -0.582166
      31A     -0.563434    32A     -0.549897    33A     -0.532845
      34A     -0.507662    35A     -0.486785    36A     -0.466143
      37A     -0.421973    38A     -0.409695    39A     -0.369896
      40A     -0.316844

  @DF-RHF Final Energy:  -512.48224613439720

   => Energetics <=

    Nuclear Repulsion Energy =            595.4998764250815384
    One-Electron Energy =               -1879.8571131909964151
    Two-Electron Energy =                 771.8749906315176759
    Total Energy =                       -512.4822461343972009
  Basis Set: (AUG-CC-PVTZ AUX)
    Blend: AUG-CC-PVTZ-RI
    Molecular point group: c1

    Geometry (in Angstrom), charge = 0, multiplicity = 1:

       Center              X                  Y                   Z               Mass
    ------------   -----------------  -----------------  -----------------  -----------------
         O            0.419678787593     1.738121659366     0.168379100773    15.994914619570
         O           -2.145275212407     0.914859659366    -0.974725899227    15.994914619570
         N           -2.661568212407    -0.443771340634     0.793612100773    14.003074004430
         C           -0.401728212407    -0.453125340634    -0.033963899227    12.000000000000
         C            0.709336787593     0.408330659366     0.051728100773    12.000000000000
         C           -0.201391212407    -1.833857340634    -0.100693899227    12.000000000000
         C            2.002040787593    -0.126741340634     0.057647100773    12.000000000000
         C            0.904163787593    -2.292856140634    -0.101955999227    12.000000000000
         C            2.182842787593    -1.511221340634    -0.026447899227    12.000000000000
         C           -1.791300212407     0.106860659366    -0.120966899227    12.000000000000
         C            1.521308787593     2.641699659366     0.186075100773    12.000000000000
         H           -1.068862212407    -2.485609340634    -0.177456899227     1.007825032230
         H            2.872071787593     0.517079659366     0.127908100773     1.007825032230
         H            1.235365787593    -3.444188340634    -0.168963899227     1.007825032230
         H            3.193534787593    -1.912791340634    -0.027334899227     1.007825032230
         H            2.121609787593     2.552294659366    -0.725402899227     1.007825032230
         H            2.157648787593     2.481021659366     1.063510100773     1.007825032230
         H            1.075158787593     3.634149659366     0.234646100773     1.007825032230
         H           -2.289794212407    -0.829641340634     1.650953100773     1.007825032230
         H           -3.573890212407    -0.005402340634     0.847412100773     1.007825032230

  Basis Set: AUG-CC-PVTZ
    Blend: AUG-CC-PVTZ
  Basis Set: (AUG-CC-PVTZ AUX)
    Blend: AUG-CC-PVTZ-JKFIT
	 Reference Energy          =    -512.4822461343972009 [Eh]
	 Singles Energy            =      -0.0000000000000000 [Eh]
	 Same-Spin Energy          =      -0.5357742701939376 [Eh]
	 Opposite-Spin Energy      =      -1.6471423953834654 [Eh]
	 Correlation Energy        =      -2.1829166655774030 [Eh]
	 Total Energy              =    -514.6651627999746097 [Eh]

	 ================> DF-SCS-MP2 Energies <==================
	-----------------------------------------------------------
	 SCS Same-Spin Scale       =       0.3333333333333333 [-]
	 SCS Opposite-Spin Scale   =       1.2000000000000000 [-]
	 SCS Same-Spin Energy      =      -0.1785914233979792 [Eh]
	 SCS Opposite-Spin Energy  =      -1.9765708744601584 [Eh]
	 SCS Correlation Energy    =      -2.1551622978581375 [Eh]
	 SCS Total Energy          =    -514.6374084322553699 [Eh]
	-----------------------------------------------------------

  Dipole Moment: [D]
     X:     2.1555      Y:    -0.8585      Z:     2.9075     Total:     3.7198

*** Psi4 exiting successfully. Buy a developer a beer!
