                               Psi4 1.4a3.dev225

  ==> Input File <==

--------------------------------------------------------------------------
#psi4
#
memory 32 gb

molecule  {
0 1
  O        0.3703410     1.7406370     0.1509160
  O       -2.1946130     0.9173750    -0.9921890
  N       -2.7109060    -0.4412560     0.7761490
  C       -0.4510660    -0.4506100    -0.0514270
  C        0.6599990     0.4108460     0.0342650
  C       -0.2507290    -1.8313420    -0.1181570
  C        1.9527030    -0.1242260     0.0401840
  C        1.0395390    -2.3670290    -0.1196300
  C        2.1335050    -1.5087060    -0.0439110
  C       -1.8406380     0.1093760    -0.1384300
  C        1.4719710     2.6442150     0.1686120
  H       -1.1182000    -2.4830940    -0.1949200
  H        2.8227340     0.5195950     0.1104450
  H        1.1860280    -3.4416730    -0.1864270
  H        3.1441970    -1.9102760    -0.0447980
  H        2.0722720     2.5548100    -0.7428660
  H        2.1083110     2.4835370     1.0460470
  H        1.0340132     3.6184416     0.2162911
  H       -2.3391320    -0.8271260     1.6334900
  H       -3.6232280    -0.0028870     0.8299490
units angstrom
no_reorient  #important for SAPT in psi4, default
symmetry c1  #important for SAPT in psi4, default
}

set PROPERTIES_ORIGIN ["COM"]
properties('MP2/aug-cc-pvtz', properties = ['dipole'])
--------------------------------------------------------------------------

    Molecular point group: c1
  Charge       = 0
  Multiplicity = 1
  Basis Set: AUG-CC-PVTZ
    Blend: AUG-CC-PVTZ
  Basis Set: (AUG-CC-PVTZ AUX)
    Blend: AUG-CC-PVTZ-JKFIT

    Orbital Energies [Eh]
    ---------------------

    Doubly Occupied:

       1A    -20.590169     2A    -20.517355     3A    -15.582769
       4A    -11.355003     5A    -11.317284     6A    -11.285311
       7A    -11.255270     8A    -11.254021     9A    -11.248187
      10A    -11.242608    11A    -11.238333    12A     -1.413789
      13A     -1.369624    14A     -1.207834    15A     -1.157825
      16A     -1.042828    17A     -1.024883    18A     -0.951092
      19A     -0.877129    20A     -0.824616    21A     -0.789243
      22A     -0.735463    23A     -0.708877    24A     -0.682036
      25A     -0.666157    26A     -0.656971    27A     -0.639632
      28A     -0.623733    29A     -0.597037    30A     -0.583260
      31A     -0.558242    32A     -0.544389    33A     -0.530341
      34A     -0.519023    35A     -0.500816    36A     -0.475678
      37A     -0.424070    38A     -0.411579    39A     -0.352234
      40A     -0.322690

  @DF-RHF Final Energy:  -512.54543405015443

   => Energetics <=

    Nuclear Repulsion Energy =            592.7591566723359620
    One-Electron Energy =               -1874.4543830998475187
    Two-Electron Energy =                 769.1497923773570164
    Total Energy =                       -512.5454340501544266
  Basis Set: (AUG-CC-PVTZ AUX)
    Blend: AUG-CC-PVTZ-RI
    Molecular point group: c1

    Geometry (in Angstrom), charge = 0, multiplicity = 1:

       Center              X                  Y                   Z               Mass
    ------------   -----------------  -----------------  -----------------  -----------------
         O            0.404951107978     1.744335109102     0.168401804358    15.994914619570
         O           -2.160002892022     0.921073109102    -0.974703195642    15.994914619570
         N           -2.676295892022    -0.437557890898     0.793634804358    14.003074004430
         C           -0.416455892022    -0.446911890898    -0.033941195642    12.000000000000
         C            0.694609107978     0.414544109102     0.051750804358    12.000000000000
         C           -0.216118892022    -1.827643890898    -0.100671195642    12.000000000000
         C            1.987313107978    -0.120527890898     0.057669804358    12.000000000000
         C            1.074149107978    -2.363330890898    -0.102144195642    12.000000000000
         C            2.168115107978    -1.505007890898    -0.026425195642    12.000000000000
         C           -1.806027892022     0.113074109102    -0.120944195642    12.000000000000
         C            1.506581107978     2.647913109102     0.186097804358    12.000000000000
         H           -1.083589892022    -2.479395890898    -0.177434195642     1.007825032230
         H            2.857344107978     0.523293109102     0.127930804358     1.007825032230
         H            1.220638107978    -3.437974890898    -0.168941195642     1.007825032230
         H            3.178807107978    -1.906577890898    -0.027312195642     1.007825032230
         H            2.106882107978     2.558508109102    -0.725380195642     1.007825032230
         H            2.142921107978     2.487235109102     1.063532804358     1.007825032230
         H            1.068623307978     3.622139709102     0.233776904358     1.007825032230
         H           -2.304521892022    -0.823427890898     1.650975804358     1.007825032230
         H           -3.588617892022     0.000811109102     0.847434804358     1.007825032230

  Basis Set: AUG-CC-PVTZ
    Blend: AUG-CC-PVTZ
  Basis Set: (AUG-CC-PVTZ AUX)
    Blend: AUG-CC-PVTZ-JKFIT
	 Reference Energy          =    -512.5454340501544266 [Eh]
	 Singles Energy            =      -0.0000000000000000 [Eh]
	 Same-Spin Energy          =      -0.5356986605458989 [Eh]
	 Opposite-Spin Energy      =      -1.6451532072489534 [Eh]
	 Correlation Energy        =      -2.1808518677948525 [Eh]
	 Total Energy              =    -514.7262859179493262 [Eh]

	 ================> DF-SCS-MP2 Energies <==================
	-----------------------------------------------------------
	 SCS Same-Spin Scale       =       0.3333333333333333 [-]
	 SCS Opposite-Spin Scale   =       1.2000000000000000 [-]
	 SCS Same-Spin Energy      =      -0.1785662201819663 [Eh]
	 SCS Opposite-Spin Energy  =      -1.9741838486987440 [Eh]
	 SCS Correlation Energy    =      -2.1527500688807102 [Eh]
	 SCS Total Energy          =    -514.6981841190350906 [Eh]
	-----------------------------------------------------------

  Dipole Moment: [D]
     X:     1.9989      Y:    -0.9035      Z:     2.9002     Total:     3.6364

*** Psi4 exiting successfully. Buy a developer a beer!
