                               Psi4 1.4a3.dev225

  ==> Input File <==

--------------------------------------------------------------------------
#psi4
#
memory 32 gb

molecule  {
0 1
  O        0.3703410     1.7406370     0.1509160
  O       -2.1946130     0.9173750    -0.9921890
  N       -2.7109060    -0.4412560     0.7761490
  C       -0.4510660    -0.4506100    -0.0514270
  C        0.6599990     0.4108460     0.0342650
  C       -0.2507290    -1.8313420    -0.1181570
  C        1.9527030    -0.1242260     0.0401840
  C        1.0395390    -2.3670290    -0.1196300
  C        2.1335050    -1.5087060    -0.0439110
  C       -1.8406380     0.1093760    -0.1384300
  C        1.4719710     2.6442150     0.1686120
  H       -1.1182000    -2.4830940    -0.1949200
  H        2.8227340     0.5195950     0.1104450
  H        1.1860280    -3.4416730    -0.1864270
  H        3.1441970    -1.9102760    -0.0447980
  H        2.0722720     2.5548100    -0.7428660
  H        2.0787297     2.5892242     1.0793579
  H        1.0258210     3.6366650     0.2171830
  H       -2.3391320    -0.8271260     1.6334900
  H       -3.6232280    -0.0028870     0.8299490
units angstrom
no_reorient  #important for SAPT in psi4, default
symmetry c1  #important for SAPT in psi4, default
}

set PROPERTIES_ORIGIN ["COM"]
properties('MP2/aug-cc-pvtz', properties = ['dipole'])
--------------------------------------------------------------------------

    Molecular point group: c1
  Charge       = 0
  Multiplicity = 1
  Basis Set: AUG-CC-PVTZ
    Blend: AUG-CC-PVTZ
  Basis Set: (AUG-CC-PVTZ AUX)
    Blend: AUG-CC-PVTZ-JKFIT

    Orbital Energies [Eh]
    ---------------------

    Doubly Occupied:

       1A    -20.591571     2A    -20.517437     3A    -15.582817
       4A    -11.355063     5A    -11.317415     6A    -11.287347
       7A    -11.255283     8A    -11.253983     9A    -11.248247
      10A    -11.242550    11A    -11.238339    12A     -1.414206
      13A     -1.369706    14A     -1.207887    15A     -1.157819
      16A     -1.042687    17A     -1.024741    18A     -0.949756
      19A     -0.877094    20A     -0.824862    21A     -0.788991
      22A     -0.735118    23A     -0.708827    24A     -0.681293
      25A     -0.668407    26A     -0.657494    27A     -0.638144
      28A     -0.622998    29A     -0.596700    30A     -0.581064
      31A     -0.558685    32A     -0.542889    33A     -0.529728
      34A     -0.518725    35A     -0.499254    36A     -0.476653
      37A     -0.424138    38A     -0.411635    39A     -0.352203
      40A     -0.322792

  @DF-RHF Final Energy:  -512.54406904399104

   => Energetics <=

    Nuclear Repulsion Energy =            592.4786850809891803
    One-Electron Energy =               -1873.8964097564737585
    Two-Electron Energy =                 768.8736556314935342
    Total Energy =                       -512.5440690439910441
  Basis Set: (AUG-CC-PVTZ AUX)
    Blend: AUG-CC-PVTZ-RI
    Molecular point group: c1

    Geometry (in Angstrom), charge = 0, multiplicity = 1:

       Center              X                  Y                   Z               Mass
    ------------   -----------------  -----------------  -----------------  -----------------
         O            0.405203115393     1.743508434583     0.168173619012    15.994914619570
         O           -2.159750884607     0.920246434583    -0.974931380988    15.994914619570
         N           -2.676043884607    -0.438384565417     0.793406619012    14.003074004430
         C           -0.416203884607    -0.447738565417    -0.034169380988    12.000000000000
         C            0.694861115393     0.413717434583     0.051522619012    12.000000000000
         C           -0.215866884607    -1.828470565417    -0.100899380988    12.000000000000
         C            1.987565115393    -0.121354565417     0.057441619012    12.000000000000
         C            1.074401115393    -2.364157565417    -0.102372380988    12.000000000000
         C            2.168367115393    -1.505834565417    -0.026653380988    12.000000000000
         C           -1.805775884607     0.112247434583    -0.121172380988    12.000000000000
         C            1.506833115393     2.647086434583     0.185869619012    12.000000000000
         H           -1.083337884607    -2.480222565417    -0.177662380988     1.007825032230
         H            2.857596115393     0.522466434583     0.127702619012     1.007825032230
         H            1.220890115393    -3.438801565417    -0.169169380988     1.007825032230
         H            3.179059115393    -1.907404565417    -0.027540380988     1.007825032230
         H            2.107134115393     2.557681434583    -0.725608380988     1.007825032230
         H            2.113591815393     2.592095634583     1.096615519012     1.007825032230
         H            1.060683115393     3.639536434583     0.234440619012     1.007825032230
         H           -2.304269884607    -0.824254565417     1.650747619012     1.007825032230
         H           -3.588365884607    -0.000015565417     0.847206619012     1.007825032230

  Basis Set: AUG-CC-PVTZ
    Blend: AUG-CC-PVTZ
  Basis Set: (AUG-CC-PVTZ AUX)
    Blend: AUG-CC-PVTZ-JKFIT
	 Reference Energy          =    -512.5440690439910441 [Eh]
	 Singles Energy            =      -0.0000000000000000 [Eh]
	 Same-Spin Energy          =      -0.5357128045290142 [Eh]
	 Opposite-Spin Energy      =      -1.6452993652599370 [Eh]
	 Correlation Energy        =      -2.1810121697889513 [Eh]
	 Total Energy              =    -514.7250812137799585 [Eh]

	 ================> DF-SCS-MP2 Energies <==================
	-----------------------------------------------------------
	 SCS Same-Spin Scale       =       0.3333333333333333 [-]
	 SCS Opposite-Spin Scale   =       1.2000000000000000 [-]
	 SCS Same-Spin Energy      =      -0.1785709348430047 [Eh]
	 SCS Opposite-Spin Energy  =      -1.9743592383119244 [Eh]
	 SCS Correlation Energy    =      -2.1529301731549291 [Eh]
	 SCS Total Energy          =    -514.6969992171459580 [Eh]
	-----------------------------------------------------------

  Dipole Moment: [D]
     X:     1.9988      Y:    -0.8933      Z:     2.9241     Total:     3.6529

*** Psi4 exiting successfully. Buy a developer a beer!
