                               Psi4 1.4a3.dev225

  ==> Input File <==

--------------------------------------------------------------------------
#psi4
#
memory 32 gb

molecule  {
0 1
  O        0.3703410     1.7406370     0.1509160
  O       -2.1946130     0.9173750    -0.9921890
  N       -2.6750255    -0.4687888     0.7924511
  C       -0.4510660    -0.4506100    -0.0514270
  C        0.6599990     0.4108460     0.0342650
  C       -0.2507290    -1.8313420    -0.1181570
  C        1.9527030    -0.1242260     0.0401840
  C        1.0395390    -2.3670290    -0.1196300
  C        2.1335050    -1.5087060    -0.0439110
  C       -1.8406380     0.1093760    -0.1384300
  C        1.4719710     2.6442150     0.1686120
  H       -1.1182000    -2.4830940    -0.1949200
  H        2.8227340     0.5195950     0.1104450
  H        1.1860280    -3.4416730    -0.1864270
  H        3.1441970    -1.9102760    -0.0447980
  H        2.0722720     2.5548100    -0.7428660
  H        2.1083110     2.4835370     1.0460470
  H        1.0258210     3.6366650     0.2171830
  H       -2.3391320    -0.8271260     1.6334900
  H       -3.6232280    -0.0028870     0.8299490
units angstrom
no_reorient  #important for SAPT in psi4, default
symmetry c1  #important for SAPT in psi4, default
}

set PROPERTIES_ORIGIN ["COM"]
properties('MP2/aug-cc-pvtz', properties = ['dipole'])
--------------------------------------------------------------------------

    Molecular point group: c1
  Charge       = 0
  Multiplicity = 1
  Basis Set: AUG-CC-PVTZ
    Blend: AUG-CC-PVTZ
  Basis Set: (AUG-CC-PVTZ AUX)
    Blend: AUG-CC-PVTZ-JKFIT

    Orbital Energies [Eh]
    ---------------------

    Doubly Occupied:

       1A    -20.589960     2A    -20.520263     3A    -15.584419
       4A    -11.356489     5A    -11.316417     6A    -11.287430
       7A    -11.254377     8A    -11.253321     9A    -11.246671
      10A    -11.242061    11A    -11.237759    12A     -1.413527
      13A     -1.370494    14A     -1.211559    15A     -1.156906
      16A     -1.041683    17A     -1.023981    18A     -0.949041
      19A     -0.876363    20A     -0.823598    21A     -0.792005
      22A     -0.741097    23A     -0.707703    24A     -0.679667
      25A     -0.661139    26A     -0.655099    27A     -0.639217
      28A     -0.624024    29A     -0.596184    30A     -0.582300
      31A     -0.557980    32A     -0.543533    33A     -0.529523
      34A     -0.518322    35A     -0.500179    36A     -0.475360
      37A     -0.425511    38A     -0.413714    39A     -0.351479
      40A     -0.322075

  @DF-RHF Final Energy:  -512.54109401694461

   => Energetics <=

    Nuclear Repulsion Energy =            592.9535696927156323
    One-Electron Energy =               -1874.8444611492047898
    Two-Electron Energy =                 769.3497974395444317
    Total Energy =                       -512.5410940169446121
  Basis Set: (AUG-CC-PVTZ AUX)
    Blend: AUG-CC-PVTZ-RI
    Molecular point group: c1

    Geometry (in Angstrom), charge = 0, multiplicity = 1:

       Center              X                  Y                   Z               Mass
    ------------   -----------------  -----------------  -----------------  -----------------
         O            0.401679758158     1.746765731019     0.166884702927    15.994914619570
         O           -2.163274241842     0.923503731019    -0.976220297073    15.994914619570
         N           -2.643686741842    -0.462660068981     0.808419802927    14.003074004430
         C           -0.419727241842    -0.444481268981    -0.035458297073    12.000000000000
         C            0.691337758158     0.416974731019     0.050233702927    12.000000000000
         C           -0.219390241842    -1.825213268981    -0.102188297073    12.000000000000
         C            1.984041758158    -0.118097268981     0.056152702927    12.000000000000
         C            1.070877758158    -2.360900268981    -0.103661297073    12.000000000000
         C            2.164843758158    -1.502577268981    -0.027942297073    12.000000000000
         C           -1.809299241842     0.115504731019    -0.122461297073    12.000000000000
         C            1.503309758158     2.650343731019     0.184580702927    12.000000000000
         H           -1.086861241842    -2.476965268981    -0.178951297073     1.007825032230
         H            2.854072758158     0.525723731019     0.126413702927     1.007825032230
         H            1.217366758158    -3.435544268981    -0.170458297073     1.007825032230
         H            3.175535758158    -1.904147268981    -0.028829297073     1.007825032230
         H            2.103610758158     2.560938731019    -0.726897297073     1.007825032230
         H            2.139649758158     2.489665731019     1.062015702927     1.007825032230
         H            1.057159758158     3.642793731019     0.233151702927     1.007825032230
         H           -2.307793241842    -0.820997268981     1.649458702927     1.007825032230
         H           -3.591889241842     0.003241731019     0.845917702927     1.007825032230

  Basis Set: AUG-CC-PVTZ
    Blend: AUG-CC-PVTZ
  Basis Set: (AUG-CC-PVTZ AUX)
    Blend: AUG-CC-PVTZ-JKFIT
	 Reference Energy          =    -512.5410940169446121 [Eh]
	 Singles Energy            =      -0.0000000000000000 [Eh]
	 Same-Spin Energy          =      -0.5359977861001406 [Eh]
	 Opposite-Spin Energy      =      -1.6458409682697193 [Eh]
	 Correlation Energy        =      -2.1818387543698599 [Eh]
	 Total Energy              =    -514.7229327713145040 [Eh]

	 ================> DF-SCS-MP2 Energies <==================
	-----------------------------------------------------------
	 SCS Same-Spin Scale       =       0.3333333333333333 [-]
	 SCS Opposite-Spin Scale   =       1.2000000000000000 [-]
	 SCS Same-Spin Energy      =      -0.1786659287000469 [Eh]
	 SCS Opposite-Spin Energy  =      -1.9750091619236629 [Eh]
	 SCS Correlation Energy    =      -2.1536750906237097 [Eh]
	 SCS Total Energy          =    -514.6947691075682769 [Eh]
	-----------------------------------------------------------

  Dipole Moment: [D]
     X:     1.9202      Y:    -0.8707      Z:     2.8867     Total:     3.5747

*** Psi4 exiting successfully. Buy a developer a beer!
