                               Psi4 1.4a3.dev225

  ==> Input File <==

--------------------------------------------------------------------------
#psi4
#
memory 32 gb

molecule  {
0 1
  O        0.3703410     1.7406370     0.1509160
  O       -2.1946130     0.9173750    -0.9921890
  N       -2.7109060    -0.4412560     0.7761490
  C       -0.4510660    -0.4506100    -0.0514270
  C        0.6599990     0.4108460     0.0342650
  C       -0.2507290    -1.8313420    -0.1181570
  C        1.9527030    -0.1242260     0.0401840
  C        1.0395390    -2.3670290    -0.1196300
  C        2.1335050    -1.5087060    -0.0439110
  C       -1.8406380     0.1093760    -0.1384300
  C        1.4719710     2.6442150     0.1686120
  H       -1.1182000    -2.4830940    -0.1949200
  H        2.8227340     0.5195950     0.1104450
  H        1.1860280    -3.4416730    -0.1864270
  H        3.1441970    -1.9102760    -0.0447980
  H        2.1619662     2.5341413    -0.6745589
  H        2.1083110     2.4835370     1.0460470
  H        1.0258210     3.6366650     0.2171830
  H       -2.3391320    -0.8271260     1.6334900
  H       -3.6232280    -0.0028870     0.8299490
units angstrom
no_reorient  #important for SAPT in psi4, default
symmetry c1  #important for SAPT in psi4, default
}

set PROPERTIES_ORIGIN ["COM"]
properties('MP2/aug-cc-pvtz', properties = ['dipole'])
--------------------------------------------------------------------------

    Molecular point group: c1
  Charge       = 0
  Multiplicity = 1
  Basis Set: AUG-CC-PVTZ
    Blend: AUG-CC-PVTZ
  Basis Set: (AUG-CC-PVTZ AUX)
    Blend: AUG-CC-PVTZ-JKFIT

    Orbital Energies [Eh]
    ---------------------

    Doubly Occupied:

       1A    -20.592110     2A    -20.517603     3A    -15.582978
       4A    -11.355260     5A    -11.317866     6A    -11.287830
       7A    -11.255609     8A    -11.254415     9A    -11.248634
      10A    -11.243228    11A    -11.238735    12A     -1.414593
      13A     -1.369873    14A     -1.208060    15A     -1.158188
      16A     -1.043138    17A     -1.024872    18A     -0.950391
      19A     -0.877542    20A     -0.825173    21A     -0.789903
      22A     -0.736705    23A     -0.710856    24A     -0.682310
      25A     -0.666118    26A     -0.652345    27A     -0.640148
      28A     -0.624351    29A     -0.596797    30A     -0.582614
      31A     -0.558180    32A     -0.546190    33A     -0.526963
      34A     -0.519476    35A     -0.503355    36A     -0.474196
      37A     -0.424324    38A     -0.411794    39A     -0.352599
      40A     -0.323182

  @DF-RHF Final Energy:  -512.54384043411699

   => Energetics <=

    Nuclear Repulsion Energy =            592.6155215882523635
    One-Electron Energy =               -1874.1417201215801924
    Two-Electron Energy =                 768.9823580992107281
    Total Energy =                       -512.5438404341169871
  Basis Set: (AUG-CC-PVTZ AUX)
    Blend: AUG-CC-PVTZ-RI
    Molecular point group: c1

    Geometry (in Angstrom), charge = 0, multiplicity = 1:

       Center              X                  Y                   Z               Mass
    ------------   -----------------  -----------------  -----------------  -----------------
         O            0.404407364129     1.744351423018     0.167940140465    15.994914619570
         O           -2.160546635871     0.921089423018    -0.975164859535    15.994914619570
         N           -2.676839635871    -0.437541576982     0.793173140465    14.003074004430
         C           -0.416999635871    -0.446895576982    -0.034402859535    12.000000000000
         C            0.694065364129     0.414560423018     0.051289140465    12.000000000000
         C           -0.216662635871    -1.827627576982    -0.101132859535    12.000000000000
         C            1.986769364129    -0.120511576982     0.057208140465    12.000000000000
         C            1.073605364129    -2.363314576982    -0.102605859535    12.000000000000
         C            2.167571364129    -1.504991576982    -0.026886859535    12.000000000000
         C           -1.806571635871     0.113090423018    -0.121405859535    12.000000000000
         C            1.506037364129     2.647929423018     0.185636140465    12.000000000000
         H           -1.084133635871    -2.479379576982    -0.177895859535     1.007825032230
         H            2.856800364129     0.523309423018     0.127469140465     1.007825032230
         H            1.220094364129    -3.437958576982    -0.169402859535     1.007825032230
         H            3.178263364129    -1.906561576982    -0.027773859535     1.007825032230
         H            2.196032564129     2.537855723018    -0.657534759535     1.007825032230
         H            2.142377364129     2.487251423018     1.063071140465     1.007825032230
         H            1.059887364129     3.640379423018     0.234207140465     1.007825032230
         H           -2.305065635871    -0.823411576982     1.650514140465     1.007825032230
         H           -3.589161635871     0.000827423018     0.846973140465     1.007825032230

  Basis Set: AUG-CC-PVTZ
    Blend: AUG-CC-PVTZ
  Basis Set: (AUG-CC-PVTZ AUX)
    Blend: AUG-CC-PVTZ-JKFIT
	 Reference Energy          =    -512.5438404341169871 [Eh]
	 Singles Energy            =      -0.0000000000000000 [Eh]
	 Same-Spin Energy          =      -0.5358170887797453 [Eh]
	 Opposite-Spin Energy      =      -1.6454302085461914 [Eh]
	 Correlation Energy        =      -2.1812472973259367 [Eh]
	 Total Energy              =    -514.7250877314429545 [Eh]

	 ================> DF-SCS-MP2 Energies <==================
	-----------------------------------------------------------
	 SCS Same-Spin Scale       =       0.3333333333333333 [-]
	 SCS Opposite-Spin Scale   =       1.2000000000000000 [-]
	 SCS Same-Spin Energy      =      -0.1786056962599151 [Eh]
	 SCS Opposite-Spin Energy  =      -1.9745162502554297 [Eh]
	 SCS Correlation Energy    =      -2.1531219465153448 [Eh]
	 SCS Total Energy          =    -514.6969623806323852 [Eh]
	-----------------------------------------------------------

  Dipole Moment: [D]
     X:     2.0046      Y:    -0.9600      Z:     2.9068     Total:     3.6592

*** Psi4 exiting successfully. Buy a developer a beer!
