                               Psi4 1.4a3.dev225

  ==> Input File <==

--------------------------------------------------------------------------
#psi4
#
memory 32 gb

molecule  {
0 1
  O        0.3703410     1.7406370     0.1509160
  O       -2.1946130     0.9173750    -0.9921890
  N       -2.7109060    -0.4412560     0.7761490
  C       -0.4510660    -0.4506100    -0.0514270
  C        0.6599990     0.4108460     0.0342650
  C       -0.2363863    -1.9301927    -0.1229344
  C        1.9527030    -0.1242260     0.0401840
  C        1.0395390    -2.3670290    -0.1196300
  C        2.1335050    -1.5087060    -0.0439110
  C       -1.8406380     0.1093760    -0.1384300
  C        1.4719710     2.6442150     0.1686120
  H       -1.1182000    -2.4830940    -0.1949200
  H        2.8227340     0.5195950     0.1104450
  H        1.1860280    -3.4416730    -0.1864270
  H        3.1441970    -1.9102760    -0.0447980
  H        2.0722720     2.5548100    -0.7428660
  H        2.1083110     2.4835370     1.0460470
  H        1.0258210     3.6366650     0.2171830
  H       -2.3391320    -0.8271260     1.6334900
  H       -3.6232280    -0.0028870     0.8299490
units angstrom
no_reorient  #important for SAPT in psi4, default
symmetry c1  #important for SAPT in psi4, default
}

set PROPERTIES_ORIGIN ["COM"]
properties('MP2/aug-cc-pvtz', properties = ['dipole'])
--------------------------------------------------------------------------

    Molecular point group: c1
  Charge       = 0
  Multiplicity = 1
  Basis Set: AUG-CC-PVTZ
    Blend: AUG-CC-PVTZ
  Basis Set: (AUG-CC-PVTZ AUX)
    Blend: AUG-CC-PVTZ-JKFIT

    Orbital Energies [Eh]
    ---------------------

    Doubly Occupied:

       1A    -20.589153     2A    -20.515871     3A    -15.581835
       4A    -11.353698     5A    -11.316553     6A    -11.287669
       7A    -11.256365     8A    -11.256268     9A    -11.253453
      10A    -11.246589    11A    -11.236015    12A     -1.413054
      13A     -1.368089    14A     -1.206092    15A     -1.154611
      16A     -1.036443    17A     -1.030349    18A     -0.947587
      19A     -0.882174    20A     -0.824387    21A     -0.785158
      22A     -0.734297    23A     -0.711347    24A     -0.681833
      25A     -0.663661    26A     -0.656486    27A     -0.645058
      28A     -0.625327    29A     -0.596755    30A     -0.578299
      31A     -0.560017    32A     -0.547674    33A     -0.529448
      34A     -0.508330    35A     -0.501339    36A     -0.476612
      37A     -0.422153    38A     -0.411058    39A     -0.346606
      40A     -0.325178

  @DF-RHF Final Energy:  -512.53312331604832

   => Energetics <=

    Nuclear Repulsion Energy =            591.1335824337210170
    One-Electron Energy =               -1871.2076295386505080
    Two-Electron Energy =                 767.5409237888810594
    Total Energy =                       -512.5331233160483180
  Basis Set: (AUG-CC-PVTZ AUX)
    Blend: AUG-CC-PVTZ-RI
    Molecular point group: c1

    Geometry (in Angstrom), charge = 0, multiplicity = 1:

       Center              X                  Y                   Z               Mass
    ------------   -----------------  -----------------  -----------------  -----------------
         O            0.403866423182     1.752065922481     0.168775355778    15.994914619570
         O           -2.161087576818     0.928803922481    -0.974329644222    15.994914619570
         N           -2.677380576818    -0.429827077519     0.794008355778    14.003074004430
         C           -0.417540576818    -0.439181077519    -0.033567644222    12.000000000000
         C            0.693524423182     0.422274922481     0.052124355778    12.000000000000
         C           -0.202860876818    -1.918763777519    -0.105075044222    12.000000000000
         C            1.986228423182    -0.112797077519     0.058043355778    12.000000000000
         C            1.073064423182    -2.355600077519    -0.101770644222    12.000000000000
         C            2.167030423182    -1.497277077519    -0.026051644222    12.000000000000
         C           -1.807112576818     0.120804922481    -0.120570644222    12.000000000000
         C            1.505496423182     2.655643922481     0.186471355778    12.000000000000
         H           -1.084674576818    -2.471665077519    -0.177060644222     1.007825032230
         H            2.856259423182     0.531023922481     0.128304355778     1.007825032230
         H            1.219553423182    -3.430244077519    -0.168567644222     1.007825032230
         H            3.177722423182    -1.898847077519    -0.026938644222     1.007825032230
         H            2.105797423182     2.566238922481    -0.725006644222     1.007825032230
         H            2.141836423182     2.494965922481     1.063906355778     1.007825032230
         H            1.059346423182     3.648093922481     0.235042355778     1.007825032230
         H           -2.305606576818    -0.815697077519     1.651349355778     1.007825032230
         H           -3.589702576818     0.008541922481     0.847808355778     1.007825032230

  Basis Set: AUG-CC-PVTZ
    Blend: AUG-CC-PVTZ
  Basis Set: (AUG-CC-PVTZ AUX)
    Blend: AUG-CC-PVTZ-JKFIT
	 Reference Energy          =    -512.5331233160483180 [Eh]
	 Singles Energy            =      -0.0000000000000000 [Eh]
	 Same-Spin Energy          =      -0.5359016072266322 [Eh]
	 Opposite-Spin Energy      =      -1.6462444642108269 [Eh]
	 Correlation Energy        =      -2.1821460714374590 [Eh]
	 Total Energy              =    -514.7152693874858187 [Eh]

	 ================> DF-SCS-MP2 Energies <==================
	-----------------------------------------------------------
	 SCS Same-Spin Scale       =       0.3333333333333333 [-]
	 SCS Opposite-Spin Scale   =       1.2000000000000000 [-]
	 SCS Same-Spin Energy      =      -0.1786338690755440 [Eh]
	 SCS Opposite-Spin Energy  =      -1.9754933570529922 [Eh]
	 SCS Correlation Energy    =      -2.1541272261285362 [Eh]
	 SCS Total Energy          =    -514.6872505421767983 [Eh]
	-----------------------------------------------------------

  Dipole Moment: [D]
     X:     2.0645      Y:    -0.9434      Z:     2.8925     Total:     3.6767

*** Psi4 exiting successfully. Buy a developer a beer!
