                               Psi4 1.4a3.dev225

  ==> Input File <==

--------------------------------------------------------------------------
#psi4
#
memory 32 gb

molecule  {
0 1
  O        0.3703410     1.7406370     0.1509160
  O       -2.1946130     0.9173750    -0.9921890
  N       -2.7109060    -0.4412560     0.7761490
  C       -0.4510660    -0.4506100    -0.0514270
  C        0.7438575     0.2896581     0.0384390
  C       -0.2507290    -1.8313420    -0.1181570
  C        1.9527030    -0.1242260     0.0401840
  C        1.0395390    -2.3670290    -0.1196300
  C        2.1335050    -1.5087060    -0.0439110
  C       -1.8406380     0.1093760    -0.1384300
  C        1.4719710     2.6442150     0.1686120
  H       -1.1182000    -2.4830940    -0.1949200
  H        2.8227340     0.5195950     0.1104450
  H        1.1860280    -3.4416730    -0.1864270
  H        3.1441970    -1.9102760    -0.0447980
  H        2.0722720     2.5548100    -0.7428660
  H        2.1083110     2.4835370     1.0460470
  H        1.0258210     3.6366650     0.2171830
  H       -2.3391320    -0.8271260     1.6334900
  H       -3.6232280    -0.0028870     0.8299490
units angstrom
no_reorient  #important for SAPT in psi4, default
symmetry c1  #important for SAPT in psi4, default
}

set PROPERTIES_ORIGIN ["COM"]
properties('MP2/aug-cc-pvtz', properties = ['dipole'])
--------------------------------------------------------------------------

    Molecular point group: c1
  Charge       = 0
  Multiplicity = 1
  Basis Set: AUG-CC-PVTZ
    Blend: AUG-CC-PVTZ
  Basis Set: (AUG-CC-PVTZ AUX)
    Blend: AUG-CC-PVTZ-JKFIT

    Orbital Energies [Eh]
    ---------------------

    Doubly Occupied:

       1A    -20.569333     2A    -20.519556     3A    -15.585816
       4A    -11.360953     5A    -11.305791     6A    -11.272954
       7A    -11.259483     8A    -11.259237     9A    -11.257044
      10A    -11.245481    11A    -11.236085    12A     -1.374337
      13A     -1.356481    14A     -1.211119    15A     -1.177594
      16A     -1.055324    17A     -1.032784    18A     -0.927423
      19A     -0.887097    20A     -0.824368    21A     -0.797039
      22A     -0.738052    23A     -0.706858    24A     -0.673186
      25A     -0.662253    26A     -0.636952    27A     -0.633862
      28A     -0.629407    29A     -0.597416    30A     -0.574027
      31A     -0.562064    32A     -0.547315    33A     -0.531886
      34A     -0.514555    35A     -0.484776    36A     -0.461214
      37A     -0.427597    38A     -0.413789    39A     -0.365235
      40A     -0.337154

  @DF-RHF Final Energy:  -512.51589572667547

   => Energetics <=

    Nuclear Repulsion Energy =            592.5528855477540446
    One-Electron Energy =               -1874.1117734422214198
    Two-Electron Energy =                 769.0429921677917946
    Total Energy =                       -512.5158957266754669
  Basis Set: (AUG-CC-PVTZ AUX)
    Blend: AUG-CC-PVTZ-RI
    Molecular point group: c1

    Geometry (in Angstrom), charge = 0, multiplicity = 1:

       Center              X                  Y                   Z               Mass
    ------------   -----------------  -----------------  -----------------  -----------------
         O            0.398344304689     1.753840320030     0.168064284461    15.994914619570
         O           -2.166609695311     0.930578320030    -0.975040715539    15.994914619570
         N           -2.682902695311    -0.428052679970     0.793297284461    14.003074004430
         C           -0.423062695311    -0.437406679970    -0.034278715539    12.000000000000
         C            0.771860804689     0.302861420030     0.055587284461    12.000000000000
         C           -0.222725695311    -1.818138679970    -0.101008715539    12.000000000000
         C            1.980706304689    -0.111022679970     0.057332284461    12.000000000000
         C            1.067542304689    -2.353825679970    -0.102481715539    12.000000000000
         C            2.161508304689    -1.495502679970    -0.026762715539    12.000000000000
         C           -1.812634695311     0.122579320030    -0.121281715539    12.000000000000
         C            1.499974304689     2.657418320030     0.185760284461    12.000000000000
         H           -1.090196695311    -2.469890679970    -0.177771715539     1.007825032230
         H            2.850737304689     0.532798320030     0.127593284461     1.007825032230
         H            1.214031304689    -3.428469679970    -0.169278715539     1.007825032230
         H            3.172200304689    -1.897072679970    -0.027649715539     1.007825032230
         H            2.100275304689     2.568013320030    -0.725717715539     1.007825032230
         H            2.136314304689     2.496740320030     1.063195284461     1.007825032230
         H            1.053824304689     3.649868320030     0.234331284461     1.007825032230
         H           -2.311128695311    -0.813922679970     1.650638284461     1.007825032230
         H           -3.595224695311     0.010316320030     0.847097284461     1.007825032230

  Basis Set: AUG-CC-PVTZ
    Blend: AUG-CC-PVTZ
  Basis Set: (AUG-CC-PVTZ AUX)
    Blend: AUG-CC-PVTZ-JKFIT
	 Reference Energy          =    -512.5158957266754669 [Eh]
	 Singles Energy            =      -0.0000000000000000 [Eh]
	 Same-Spin Energy          =      -0.5361944163538969 [Eh]
	 Opposite-Spin Energy      =      -1.6483328340071235 [Eh]
	 Correlation Energy        =      -2.1845272503610205 [Eh]
	 Total Energy              =    -514.7004229770365100 [Eh]

	 ================> DF-SCS-MP2 Energies <==================
	-----------------------------------------------------------
	 SCS Same-Spin Scale       =       0.3333333333333333 [-]
	 SCS Opposite-Spin Scale   =       1.2000000000000000 [-]
	 SCS Same-Spin Energy      =      -0.1787314721179656 [Eh]
	 SCS Opposite-Spin Energy  =      -1.9779994008085482 [Eh]
	 SCS Correlation Energy    =      -2.1567308729265138 [Eh]
	 SCS Total Energy          =    -514.6726265996019265 [Eh]
	-----------------------------------------------------------

  Dipole Moment: [D]
     X:     1.9699      Y:    -1.7892      Z:     2.8323     Total:     3.8863

*** Psi4 exiting successfully. Buy a developer a beer!
