                               Psi4 1.4a3.dev225

  ==> Input File <==

--------------------------------------------------------------------------
#psi4
#
memory 32 gb

molecule  {
0 1
  O        0.3703410     1.7406370     0.1509160
  O       -2.1946130     0.9173750    -0.9921890
  N       -2.7109060    -0.4412560     0.7761490
  C       -0.4510660    -0.4506100    -0.0514270
  C        0.6812044     0.3134941     0.0257252
  C       -0.2507290    -1.8313420    -0.1181570
  C        1.9527030    -0.1242260     0.0401840
  C        1.0395390    -2.3670290    -0.1196300
  C        2.1335050    -1.5087060    -0.0439110
  C       -1.8406380     0.1093760    -0.1384300
  C        1.4719710     2.6442150     0.1686120
  H       -1.1182000    -2.4830940    -0.1949200
  H        2.8227340     0.5195950     0.1104450
  H        1.1860280    -3.4416730    -0.1864270
  H        3.1441970    -1.9102760    -0.0447980
  H        2.0722720     2.5548100    -0.7428660
  H        2.1083110     2.4835370     1.0460470
  H        1.0258210     3.6366650     0.2171830
  H       -2.3391320    -0.8271260     1.6334900
  H       -3.6232280    -0.0028870     0.8299490
units angstrom
no_reorient  #important for SAPT in psi4, default
symmetry c1  #important for SAPT in psi4, default
}

set PROPERTIES_ORIGIN ["COM"]
properties('MP2/aug-cc-pvtz', properties = ['dipole'])
--------------------------------------------------------------------------

    Molecular point group: c1
  Charge       = 0
  Multiplicity = 1
  Basis Set: AUG-CC-PVTZ
    Blend: AUG-CC-PVTZ
  Basis Set: (AUG-CC-PVTZ AUX)
    Blend: AUG-CC-PVTZ-JKFIT

    Orbital Energies [Eh]
    ---------------------

    Doubly Occupied:

       1A    -20.572975     2A    -20.519503     3A    -15.585395
       4A    -11.359574     5A    -11.309491     6A    -11.277023
       7A    -11.258751     8A    -11.257577     9A    -11.250842
      10A    -11.243735    11A    -11.242763    12A     -1.377180
      13A     -1.364997    14A     -1.210813    15A     -1.172022
      16A     -1.050626    17A     -1.030959    18A     -0.932768
      19A     -0.882493    20A     -0.830430    21A     -0.793234
      22A     -0.737477    23A     -0.705517    24A     -0.675315
      25A     -0.661322    26A     -0.640043    27A     -0.634019
      28A     -0.631253    29A     -0.599237    30A     -0.577003
      31A     -0.561555    32A     -0.545156    33A     -0.529808
      34A     -0.518704    35A     -0.489806    36A     -0.465506
      37A     -0.426660    38A     -0.413643    39A     -0.357614
      40A     -0.336545

  @DF-RHF Final Energy:  -512.53241130081847

   => Energetics <=

    Nuclear Repulsion Energy =            592.7599223264157899
    One-Electron Energy =               -1874.5260011892783041
    Two-Electron Energy =                 769.2336675620440474
    Total Energy =                       -512.5324113008184668
  Basis Set: (AUG-CC-PVTZ AUX)
    Blend: AUG-CC-PVTZ-RI
    Molecular point group: c1

    Geometry (in Angstrom), charge = 0, multiplicity = 1:

       Center              X                  Y                   Z               Mass
    ------------   -----------------  -----------------  -----------------  -----------------
         O            0.403321271683     1.751946862480     0.169074229108    15.994914619570
         O           -2.161632728317     0.928684862480    -0.974030770892    15.994914619570
         N           -2.677925728317    -0.429946137520     0.794307229108    14.003074004430
         C           -0.418085728317    -0.439300137520    -0.033268770892    12.000000000000
         C            0.714184671683     0.324803962480     0.043883429108    12.000000000000
         C           -0.217748728317    -1.820032137520    -0.099998770892    12.000000000000
         C            1.985683271683    -0.112916137520     0.058342229108    12.000000000000
         C            1.072519271683    -2.355719137520    -0.101471770892    12.000000000000
         C            2.166485271683    -1.497396137520    -0.025752770892    12.000000000000
         C           -1.807657728317     0.120685862480    -0.120271770892    12.000000000000
         C            1.504951271683     2.655524862480     0.186770229108    12.000000000000
         H           -1.085219728317    -2.471784137520    -0.176761770892     1.007825032230
         H            2.855714271683     0.530904862480     0.128603229108     1.007825032230
         H            1.219008271683    -3.430363137520    -0.168268770892     1.007825032230
         H            3.177177271683    -1.898966137520    -0.026639770892     1.007825032230
         H            2.105252271683     2.566119862480    -0.724707770892     1.007825032230
         H            2.141291271683     2.494846862480     1.064205229108     1.007825032230
         H            1.058801271683     3.647974862480     0.235341229108     1.007825032230
         H           -2.306151728317    -0.815816137520     1.651648229108     1.007825032230
         H           -3.590247728317     0.008422862480     0.848107229108     1.007825032230

  Basis Set: AUG-CC-PVTZ
    Blend: AUG-CC-PVTZ
  Basis Set: (AUG-CC-PVTZ AUX)
    Blend: AUG-CC-PVTZ-JKFIT
	 Reference Energy          =    -512.5324113008184668 [Eh]
	 Singles Energy            =      -0.0000000000000000 [Eh]
	 Same-Spin Energy          =      -0.5360485478863772 [Eh]
	 Opposite-Spin Energy      =      -1.6469590360027593 [Eh]
	 Correlation Energy        =      -2.1830075838891365 [Eh]
	 Total Energy              =    -514.7154188847075602 [Eh]

	 ================> DF-SCS-MP2 Energies <==================
	-----------------------------------------------------------
	 SCS Same-Spin Scale       =       0.3333333333333333 [-]
	 SCS Opposite-Spin Scale   =       1.2000000000000000 [-]
	 SCS Same-Spin Energy      =      -0.1786828492954591 [Eh]
	 SCS Opposite-Spin Energy  =      -1.9763508432033110 [Eh]
	 SCS Correlation Energy    =      -2.1550336924987699 [Eh]
	 SCS Total Energy          =    -514.6874449933172855 [Eh]
	-----------------------------------------------------------

  Dipole Moment: [D]
     X:     1.9552      Y:    -1.5867      Z:     2.8412     Total:     3.7964

*** Psi4 exiting successfully. Buy a developer a beer!
