                               Psi4 1.4a3.dev225

  ==> Input File <==

--------------------------------------------------------------------------
#psi4
#
memory 32 gb

molecule  {
0 1
  O        0.3703410     1.7406370     0.1509160
  O       -2.1946130     0.9173750    -0.9921890
  N       -2.7109060    -0.4412560     0.7761490
  C       -0.4510660    -0.4506100    -0.0514270
  C        0.6599990     0.4108460     0.0342650
  C       -0.2507290    -1.8313420    -0.1181570
  C        1.9527030    -0.1242260     0.0401840
  C        1.0395390    -2.3670290    -0.1196300
  C        2.1335050    -1.5087060    -0.0439110
  C       -1.8591571     0.1168391    -0.1395895
  C        1.4719710     2.6442150     0.1686120
  H       -1.1182000    -2.4830940    -0.1949200
  H        2.8227340     0.5195950     0.1104450
  H        1.1860280    -3.4416730    -0.1864270
  H        3.1441970    -1.9102760    -0.0447980
  H        2.0722720     2.5548100    -0.7428660
  H        2.1083110     2.4835370     1.0460470
  H        1.0258210     3.6366650     0.2171830
  H       -2.3391320    -0.8271260     1.6334900
  H       -3.6232280    -0.0028870     0.8299490
units angstrom
no_reorient  #important for SAPT in psi4, default
symmetry c1  #important for SAPT in psi4, default
}

set PROPERTIES_ORIGIN ["COM"]
properties('MP2/aug-cc-pvtz', properties = ['dipole'])
--------------------------------------------------------------------------

    Molecular point group: c1
  Charge       = 0
  Multiplicity = 1
  Basis Set: AUG-CC-PVTZ
    Blend: AUG-CC-PVTZ
  Basis Set: (AUG-CC-PVTZ AUX)
    Blend: AUG-CC-PVTZ-JKFIT

    Orbital Energies [Eh]
    ---------------------

    Doubly Occupied:

       1A    -20.589500     2A    -20.518725     3A    -15.583793
       4A    -11.354643     5A    -11.315836     6A    -11.287136
       7A    -11.253760     8A    -11.252675     9A    -11.247715
      10A    -11.241721    11A    -11.237399    12A     -1.413118
      13A     -1.376946    14A     -1.212119    15A     -1.156497
      16A     -1.039981    17A     -1.023500    18A     -0.948416
      19A     -0.873703    20A     -0.823018    21A     -0.789966
      22A     -0.737192    23A     -0.709117    24A     -0.680629
      25A     -0.664878    26A     -0.656437    27A     -0.639783
      28A     -0.623766    29A     -0.596677    30A     -0.581825
      31A     -0.561183    32A     -0.543218    33A     -0.529740
      34A     -0.518496    35A     -0.499977    36A     -0.474964
      37A     -0.424281    38A     -0.413788    39A     -0.351083
      40A     -0.321611

  @DF-RHF Final Energy:  -512.54614310718785

   => Energetics <=

    Nuclear Repulsion Energy =            592.5462798617713815
    One-Electron Energy =               -1874.0472260025210289
    Two-Electron Energy =                 768.9548030335618023
    Total Energy =                       -512.5461431071878451
  Basis Set: (AUG-CC-PVTZ AUX)
    Blend: AUG-CC-PVTZ-RI
    Molecular point group: c1

    Geometry (in Angstrom), charge = 0, multiplicity = 1:

       Center              X                  Y                   Z               Mass
    ------------   -----------------  -----------------  -----------------  -----------------
         O            0.406476862153     1.743620685557     0.168487961078    15.994914619570
         O           -2.158477137847     0.920358685557    -0.974617038922    15.994914619570
         N           -2.674770137847    -0.438272314443     0.793720961078    14.003074004430
         C           -0.414930137847    -0.447626314443    -0.033855038922    12.000000000000
         C            0.696134862153     0.413829685557     0.051836961078    12.000000000000
         C           -0.214593137847    -1.828358314443    -0.100585038922    12.000000000000
         C            1.988838862153    -0.121242314443     0.057755961078    12.000000000000
         C            1.075674862153    -2.364045314443    -0.102058038922    12.000000000000
         C            2.169640862153    -1.505722314443    -0.026339038922    12.000000000000
         C           -1.823021237847     0.119822785557    -0.122017538922    12.000000000000
         C            1.508106862153     2.647198685557     0.186183961078    12.000000000000
         H           -1.082064137847    -2.480110314443    -0.177348038922     1.007825032230
         H            2.858869862153     0.522578685557     0.128016961078     1.007825032230
         H            1.222163862153    -3.438689314443    -0.168855038922     1.007825032230
         H            3.180332862153    -1.907292314443    -0.027226038922     1.007825032230
         H            2.108407862153     2.557793685557    -0.725294038922     1.007825032230
         H            2.144446862153     2.486520685557     1.063618961078     1.007825032230
         H            1.061956862153     3.639648685557     0.234754961078     1.007825032230
         H           -2.302996137847    -0.824142314443     1.651061961078     1.007825032230
         H           -3.587092137847     0.000096685557     0.847520961078     1.007825032230

  Basis Set: AUG-CC-PVTZ
    Blend: AUG-CC-PVTZ
  Basis Set: (AUG-CC-PVTZ AUX)
    Blend: AUG-CC-PVTZ-JKFIT
	 Reference Energy          =    -512.5461431071878451 [Eh]
	 Singles Energy            =      -0.0000000000000000 [Eh]
	 Same-Spin Energy          =      -0.5353778042479889 [Eh]
	 Opposite-Spin Energy      =      -1.6445629511732802 [Eh]
	 Correlation Energy        =      -2.1799407554212689 [Eh]
	 Total Energy              =    -514.7260838626091299 [Eh]

	 ================> DF-SCS-MP2 Energies <==================
	-----------------------------------------------------------
	 SCS Same-Spin Scale       =       0.3333333333333333 [-]
	 SCS Opposite-Spin Scale   =       1.2000000000000000 [-]
	 SCS Same-Spin Energy      =      -0.1784592680826629 [Eh]
	 SCS Opposite-Spin Energy  =      -1.9734755414079361 [Eh]
	 SCS Correlation Energy    =      -2.1519348094905992 [Eh]
	 SCS Total Energy          =    -514.6980779166784714 [Eh]
	-----------------------------------------------------------

  Dipole Moment: [D]
     X:     1.8581      Y:    -0.8769      Z:     2.9005     Total:     3.5545

*** Psi4 exiting successfully. Buy a developer a beer!
