                               Psi4 1.4a3.dev225

  ==> Input File <==

--------------------------------------------------------------------------
#psi4
#
memory 32 gb

molecule  {
0 1
  O        0.3703410     1.7406370     0.1509160
  O       -2.1946130     0.9173750    -0.9921890
  N       -2.7109060    -0.4412560     0.7761490
  C       -0.4510660    -0.4506100    -0.0514270
  C        0.6599990     0.4108460     0.0342650
  C       -0.2507290    -1.8313420    -0.1181570
  C        1.9527030    -0.1242260     0.0401840
  C        1.0395390    -2.3670290    -0.1196300
  C        2.1205792    -1.4097273    -0.0378989
  C       -1.8406380     0.1093760    -0.1384300
  C        1.4719710     2.6442150     0.1686120
  H       -1.1182000    -2.4830940    -0.1949200
  H        2.8227340     0.5195950     0.1104450
  H        1.1860280    -3.4416730    -0.1864270
  H        3.1441970    -1.9102760    -0.0447980
  H        2.0722720     2.5548100    -0.7428660
  H        2.1083110     2.4835370     1.0460470
  H        1.0258210     3.6366650     0.2171830
  H       -2.3391320    -0.8271260     1.6334900
  H       -3.6232280    -0.0028870     0.8299490
units angstrom
no_reorient  #important for SAPT in psi4, default
symmetry c1  #important for SAPT in psi4, default
}

set PROPERTIES_ORIGIN ["COM"]
properties('MP2/aug-cc-pvtz', properties = ['dipole'])
--------------------------------------------------------------------------

    Molecular point group: c1
  Charge       = 0
  Multiplicity = 1
  Basis Set: AUG-CC-PVTZ
    Blend: AUG-CC-PVTZ
  Basis Set: (AUG-CC-PVTZ AUX)
    Blend: AUG-CC-PVTZ-JKFIT

    Orbital Energies [Eh]
    ---------------------

    Doubly Occupied:

       1A    -20.592156     2A    -20.516275     3A    -15.581843
       4A    -11.353800     5A    -11.319741     6A    -11.289138
       7A    -11.253170     8A    -11.252593     9A    -11.244496
      10A    -11.241342    11A    -11.234481    12A     -1.415607
      13A     -1.368623    14A     -1.207014    15A     -1.164275
      16A     -1.052148    17A     -1.022872    18A     -0.948709
      19A     -0.873302    20A     -0.826085    21A     -0.790343
      22A     -0.735840    23A     -0.707024    24A     -0.682771
      25A     -0.667836    26A     -0.658953    27A     -0.635840
      28A     -0.623265    29A     -0.593201    30A     -0.584984
      31A     -0.558893    32A     -0.546401    33A     -0.531644
      34A     -0.522243    35A     -0.487497    36A     -0.477673
      37A     -0.422849    38A     -0.410809    39A     -0.365734
      40A     -0.314926

  @DF-RHF Final Energy:  -512.53194871265339

   => Energetics <=

    Nuclear Repulsion Energy =            593.9531121362336989
    One-Electron Energy =               -1876.8173347410618135
    Two-Electron Energy =                 770.3322738921748396
    Total Energy =                       -512.5319487126533886
  Basis Set: (AUG-CC-PVTZ AUX)
    Blend: AUG-CC-PVTZ-RI
    Molecular point group: c1

    Geometry (in Angstrom), charge = 0, multiplicity = 1:

       Center              X                  Y                   Z               Mass
    ------------   -----------------  -----------------  -----------------  -----------------
         O            0.406032547834     1.736350971519     0.167918271526    15.994914619570
         O           -2.158921452166     0.913088971519    -0.975186728474    15.994914619570
         N           -2.675214452166    -0.445542028481     0.793151271526    14.003074004430
         C           -0.415374452166    -0.454896028481    -0.034424728474    12.000000000000
         C            0.695690547834     0.406559971519     0.051267271526    12.000000000000
         C           -0.215037452166    -1.835628028481    -0.101154728474    12.000000000000
         C            1.988394547834    -0.128512028481     0.057186271526    12.000000000000
         C            1.075230547834    -2.371315028481    -0.102627728474    12.000000000000
         C            2.156270747834    -1.414013328481    -0.020896628474    12.000000000000
         C           -1.804946452166     0.105089971519    -0.121427728474    12.000000000000
         C            1.507662547834     2.639928971519     0.185614271526    12.000000000000
         H           -1.082508452166    -2.487380028481    -0.177917728474     1.007825032230
         H            2.858425547834     0.515308971519     0.127447271526     1.007825032230
         H            1.221719547834    -3.445959028481    -0.169424728474     1.007825032230
         H            3.179888547834    -1.914562028481    -0.027795728474     1.007825032230
         H            2.107963547834     2.550523971519    -0.725863728474     1.007825032230
         H            2.144002547834     2.479250971519     1.063049271526     1.007825032230
         H            1.061512547834     3.632378971519     0.234185271526     1.007825032230
         H           -2.303440452166    -0.831412028481     1.650492271526     1.007825032230
         H           -3.587536452166    -0.007173028481     0.846951271526     1.007825032230

  Basis Set: AUG-CC-PVTZ
    Blend: AUG-CC-PVTZ
  Basis Set: (AUG-CC-PVTZ AUX)
    Blend: AUG-CC-PVTZ-JKFIT
	 Reference Energy          =    -512.5319487126533886 [Eh]
	 Singles Energy            =      -0.0000000000000000 [Eh]
	 Same-Spin Energy          =      -0.5356975745932597 [Eh]
	 Opposite-Spin Energy      =      -1.6455303781391453 [Eh]
	 Correlation Energy        =      -2.1812279527324048 [Eh]
	 Total Energy              =    -514.7131766653858449 [Eh]

	 ================> DF-SCS-MP2 Energies <==================
	-----------------------------------------------------------
	 SCS Same-Spin Scale       =       0.3333333333333333 [-]
	 SCS Opposite-Spin Scale   =       1.2000000000000000 [-]
	 SCS Same-Spin Energy      =      -0.1785658581977532 [Eh]
	 SCS Opposite-Spin Energy  =      -1.9746364537669743 [Eh]
	 SCS Correlation Energy    =      -2.1532023119647277 [Eh]
	 SCS Total Energy          =    -514.6851510246181078 [Eh]
	-----------------------------------------------------------

  Dipole Moment: [D]
     X:     2.0420      Y:    -0.8580      Z:     2.9043     Total:     3.6525

*** Psi4 exiting successfully. Buy a developer a beer!
