                               Psi4 1.4a3.dev225

  ==> Input File <==

--------------------------------------------------------------------------
#psi4
#
memory 32 gb

molecule  {
0 1
  O        0.3703410     1.7406370     0.1509160
  O       -2.1946130     0.9173750    -0.9921890
  N       -2.7109060    -0.4412560     0.7761490
  C       -0.4510660    -0.4506100    -0.0514270
  C        0.6599990     0.4108460     0.0342650
  C       -0.2507290    -1.8313420    -0.1181570
  C        1.9527030    -0.1242260     0.0401840
  C        1.0395390    -2.3670290    -0.1196300
  C        2.1335050    -1.5087060    -0.0439110
  C       -1.8406380     0.1093760    -0.1384300
  C        1.4719710     2.6442150     0.1686120
  H       -1.1182000    -2.4830940    -0.1949200
  H        2.8227340     0.5195950     0.1104450
  H        1.1860280    -3.4416730    -0.1864270
  H        3.1627836    -1.9176609    -0.0448143
  H        2.0722720     2.5548100    -0.7428660
  H        2.1083110     2.4835370     1.0460470
  H        1.0258210     3.6366650     0.2171830
  H       -2.3391320    -0.8271260     1.6334900
  H       -3.6232280    -0.0028870     0.8299490
units angstrom
no_reorient  #important for SAPT in psi4, default
symmetry c1  #important for SAPT in psi4, default
}

set PROPERTIES_ORIGIN ["COM"]
properties('MP2/aug-cc-pvtz', properties = ['dipole'])
--------------------------------------------------------------------------

    Molecular point group: c1
  Charge       = 0
  Multiplicity = 1
  Basis Set: AUG-CC-PVTZ
    Blend: AUG-CC-PVTZ
  Basis Set: (AUG-CC-PVTZ AUX)
    Blend: AUG-CC-PVTZ-JKFIT

    Orbital Energies [Eh]
    ---------------------

    Doubly Occupied:

       1A    -20.590446     2A    -20.517443     3A    -15.582849
       4A    -11.355097     5A    -11.317538     6A    -11.287713
       7A    -11.256406     8A    -11.255479     9A    -11.248346
      10A    -11.242896    11A    -11.238591    12A     -1.413986
      13A     -1.369711    14A     -1.207919    15A     -1.157876
      16A     -1.042355    17A     -1.024802    18A     -0.949535
      19A     -0.876188    20A     -0.824385    21A     -0.789066
      22A     -0.735348    23A     -0.707868    24A     -0.681640
      25A     -0.665917    26A     -0.657167    27A     -0.638574
      28A     -0.623470    29A     -0.595524    30A     -0.582283
      31A     -0.558346    32A     -0.542717    33A     -0.530325
      34A     -0.518822    35A     -0.499953    36A     -0.475885
      37A     -0.424135    38A     -0.411657    39A     -0.352412
      40A     -0.322888

  @DF-RHF Final Energy:  -512.54473738431341

   => Energetics <=

    Nuclear Repulsion Energy =            592.5566532851113379
    One-Electron Energy =               -1874.0556675296384128
    Two-Electron Energy =                 768.9542768602137812
    Total Energy =                       -512.5447373843134073
  Basis Set: (AUG-CC-PVTZ AUX)
    Blend: AUG-CC-PVTZ-RI
    Molecular point group: c1

    Geometry (in Angstrom), charge = 0, multiplicity = 1:

       Center              X                  Y                   Z               Mass
    ------------   -----------------  -----------------  -----------------  -----------------
         O            0.404881761323     1.744262799616     0.168395962758    15.994914619570
         O           -2.160072238677     0.921000799616    -0.974709037242    15.994914619570
         N           -2.676365238677    -0.437630200384     0.793628962758    14.003074004430
         C           -0.416525238677    -0.446984200384    -0.033947037242    12.000000000000
         C            0.694539761323     0.414471799616     0.051744962758    12.000000000000
         C           -0.216188238677    -1.827716200384    -0.100677037242    12.000000000000
         C            1.987243761323    -0.120600200384     0.057663962758    12.000000000000
         C            1.074079761323    -2.363403200384    -0.102150037242    12.000000000000
         C            2.168045761323    -1.505080200384    -0.026431037242    12.000000000000
         C           -1.806097238677     0.113001799616    -0.120950037242    12.000000000000
         C            1.506511761323     2.647840799616     0.186091962758    12.000000000000
         H           -1.083659238677    -2.479468200384    -0.177440037242     1.007825032230
         H            2.857274761323     0.523220799616     0.127924962758     1.007825032230
         H            1.220568761323    -3.438047200384    -0.168947037242     1.007825032230
         H            3.197324361323    -1.914035100384    -0.027334337242     1.007825032230
         H            2.106812761323     2.558435799616    -0.725386037242     1.007825032230
         H            2.142851761323     2.487162799616     1.063526962758     1.007825032230
         H            1.060361761323     3.640290799616     0.234662962758     1.007825032230
         H           -2.304591238677    -0.823500200384     1.650969962758     1.007825032230
         H           -3.588687238677     0.000738799616     0.847428962758     1.007825032230

  Basis Set: AUG-CC-PVTZ
    Blend: AUG-CC-PVTZ
  Basis Set: (AUG-CC-PVTZ AUX)
    Blend: AUG-CC-PVTZ-JKFIT
	 Reference Energy          =    -512.5447373843134073 [Eh]
	 Singles Energy            =      -0.0000000000000000 [Eh]
	 Same-Spin Energy          =      -0.5357454400228296 [Eh]
	 Opposite-Spin Energy      =      -1.6454462278710864 [Eh]
	 Correlation Energy        =      -2.1811916678939163 [Eh]
	 Total Energy              =    -514.7259290522073343 [Eh]

	 ================> DF-SCS-MP2 Energies <==================
	-----------------------------------------------------------
	 SCS Same-Spin Scale       =       0.3333333333333333 [-]
	 SCS Opposite-Spin Scale   =       1.2000000000000000 [-]
	 SCS Same-Spin Energy      =      -0.1785818133409432 [Eh]
	 SCS Opposite-Spin Energy  =      -1.9745354734453036 [Eh]
	 SCS Correlation Energy    =      -2.1531172867862467 [Eh]
	 SCS Total Energy          =    -514.6978546710996625 [Eh]
	-----------------------------------------------------------

  Dipole Moment: [D]
     X:     1.9898      Y:    -0.9101      Z:     2.8996     Total:     3.6325

*** Psi4 exiting successfully. Buy a developer a beer!
