                               Psi4 1.4a3.dev225

  ==> Input File <==

--------------------------------------------------------------------------
#psi4
#
memory 32 gb

molecule  {
0 1
  O        0.3703410     1.7406370     0.1509160
  O       -2.1946130     0.9173750    -0.9921890
  N       -2.8120173    -0.3547706     0.7206432
  C       -0.4510660    -0.4506100    -0.0514270
  C        0.6599990     0.4108460     0.0342650
  C       -0.2507290    -1.8313420    -0.1181570
  C        1.9527030    -0.1242260     0.0401840
  C        1.0395390    -2.3670290    -0.1196300
  C        2.1335050    -1.5087060    -0.0439110
  C       -1.8406380     0.1093760    -0.1384300
  C        1.4719710     2.6442150     0.1686120
  H       -1.1182000    -2.4830940    -0.1949200
  H        2.8227340     0.5195950     0.1104450
  H        1.1860280    -3.4416730    -0.1864270
  H        3.1441970    -1.9102760    -0.0447980
  H        2.0722720     2.5548100    -0.7428660
  H        2.1083110     2.4835370     1.0460470
  H        1.0258210     3.6366650     0.2171830
  H       -2.3391320    -0.8271260     1.6334900
  H       -3.6232280    -0.0028870     0.8299490
units angstrom
no_reorient  #important for SAPT in psi4, default
symmetry c1  #important for SAPT in psi4, default
}

set PROPERTIES_ORIGIN ["COM"]
properties('MP2/aug-cc-pvtz', properties = ['dipole'])
--------------------------------------------------------------------------

    Molecular point group: c1
  Charge       = 0
  Multiplicity = 1
  Basis Set: AUG-CC-PVTZ
    Blend: AUG-CC-PVTZ
  Basis Set: (AUG-CC-PVTZ AUX)
    Blend: AUG-CC-PVTZ-JKFIT

    Orbital Energies [Eh]
    ---------------------

    Doubly Occupied:

       1A    -20.591906     2A    -20.510210     3A    -15.577897
       4A    -11.354020     5A    -11.320800     6A    -11.288634
       7A    -11.258604     8A    -11.256763     9A    -11.253817
      10A    -11.244987    11A    -11.240635    12A     -1.415428
      13A     -1.369266    14A     -1.202571    15A     -1.161552
      16A     -1.047099    17A     -1.027103    18A     -0.951455
      19A     -0.885027    20A     -0.829001    21A     -0.801182
      22A     -0.729928    23A     -0.692395    24A     -0.688667
      25A     -0.675098    26A     -0.659092    27A     -0.640926
      28A     -0.623091    29A     -0.593374    30A     -0.578280
      31A     -0.559171    32A     -0.543648    33A     -0.532428
      34A     -0.520293    35A     -0.501488    36A     -0.477415
      37A     -0.420047    38A     -0.405748    39A     -0.354904
      40A     -0.325222

  @DF-RHF Final Energy:  -512.51453599829802

   => Energetics <=

    Nuclear Repulsion Energy =            592.0173056833835972
    One-Electron Energy =               -1872.8453361473134464
    Two-Electron Energy =                 768.3134944656317202
    Total Energy =                       -512.5145359982980153
  Basis Set: (AUG-CC-PVTZ AUX)
    Blend: AUG-CC-PVTZ-RI
    Molecular point group: c1

    Geometry (in Angstrom), charge = 0, multiplicity = 1:

       Center              X                  Y                   Z               Mass
    ------------   -----------------  -----------------  -----------------  -----------------
         O            0.414378447721     1.736196618661     0.173541059222    15.994914619570
         O           -2.150575552279     0.912934618661    -0.969563940778    15.994914619570
         N           -2.767979852279    -0.359210981339     0.743268259222    14.003074004430
         C           -0.407028552279    -0.455050381339    -0.028801940778    12.000000000000
         C            0.704036447721     0.406405618661     0.056890059222    12.000000000000
         C           -0.206691552279    -1.835782381339    -0.095531940778    12.000000000000
         C            1.996740447721    -0.128666381339     0.062809059222    12.000000000000
         C            1.083576447721    -2.371469381339    -0.097004940778    12.000000000000
         C            2.177542447721    -1.513146381339    -0.021285940778    12.000000000000
         C           -1.796600552279     0.104935618661    -0.115804940778    12.000000000000
         C            1.516008447721     2.639774618661     0.191237059222    12.000000000000
         H           -1.074162552279    -2.487534381339    -0.172294940778     1.007825032230
         H            2.866771447721     0.515154618661     0.133070059222     1.007825032230
         H            1.230065447721    -3.446113381339    -0.163801940778     1.007825032230
         H            3.188234447721    -1.914716381339    -0.022172940778     1.007825032230
         H            2.116309447721     2.550369618661    -0.720240940778     1.007825032230
         H            2.152348447721     2.479096618661     1.068672059222     1.007825032230
         H            1.069858447721     3.632224618661     0.239808059222     1.007825032230
         H           -2.295094552279    -0.831566381339     1.656115059222     1.007825032230
         H           -3.579190552279    -0.007327381339     0.852574059222     1.007825032230

  Basis Set: AUG-CC-PVTZ
    Blend: AUG-CC-PVTZ
  Basis Set: (AUG-CC-PVTZ AUX)
    Blend: AUG-CC-PVTZ-JKFIT
	 Reference Energy          =    -512.5145359982980153 [Eh]
	 Singles Energy            =      -0.0000000000000000 [Eh]
	 Same-Spin Energy          =      -0.5354604704086496 [Eh]
	 Opposite-Spin Energy      =      -1.6457147695085159 [Eh]
	 Correlation Energy        =      -2.1811752399171658 [Eh]
	 Total Energy              =    -514.6957112382151536 [Eh]

	 ================> DF-SCS-MP2 Energies <==================
	-----------------------------------------------------------
	 SCS Same-Spin Scale       =       0.3333333333333333 [-]
	 SCS Opposite-Spin Scale   =       1.2000000000000000 [-]
	 SCS Same-Spin Energy      =      -0.1784868234695499 [Eh]
	 SCS Opposite-Spin Energy  =      -1.9748577234102189 [Eh]
	 SCS Correlation Energy    =      -2.1533445468797687 [Eh]
	 SCS Total Energy          =    -514.6678805451778089 [Eh]
	-----------------------------------------------------------

  Dipole Moment: [D]
     X:     2.2824      Y:    -1.0225      Z:     2.8853     Total:     3.8184

*** Psi4 exiting successfully. Buy a developer a beer!
