                               Psi4 1.4a3.dev225

  ==> Input File <==

--------------------------------------------------------------------------
#psi4
#
memory 32 gb

molecule  {
0 1
  O        0.3703410     1.7406370     0.1509160
  O       -2.1946130     0.9173750    -0.9921890
  N       -2.7109060    -0.4412560     0.7761490
  C       -0.4510660    -0.4506100    -0.0514270
  C        0.6387936     0.5081979     0.0428048
  C       -0.2507290    -1.8313420    -0.1181570
  C        1.9527030    -0.1242260     0.0401840
  C        1.0395390    -2.3670290    -0.1196300
  C        2.1335050    -1.5087060    -0.0439110
  C       -1.8406380     0.1093760    -0.1384300
  C        1.4719710     2.6442150     0.1686120
  H       -1.1182000    -2.4830940    -0.1949200
  H        2.8227340     0.5195950     0.1104450
  H        1.1860280    -3.4416730    -0.1864270
  H        3.1441970    -1.9102760    -0.0447980
  H        2.0722720     2.5548100    -0.7428660
  H        2.1083110     2.4835370     1.0460470
  H        1.0258210     3.6366650     0.2171830
  H       -2.3391320    -0.8271260     1.6334900
  H       -3.6232280    -0.0028870     0.8299490
units angstrom
no_reorient  #important for SAPT in psi4, default
symmetry c1  #important for SAPT in psi4, default
}

set PROPERTIES_ORIGIN ["COM"]
properties('MP2/aug-cc-pvtz', properties = ['dipole'])
--------------------------------------------------------------------------

    Molecular point group: c1
  Charge       = 0
  Multiplicity = 1
  Basis Set: AUG-CC-PVTZ
    Blend: AUG-CC-PVTZ
  Basis Set: (AUG-CC-PVTZ AUX)
    Blend: AUG-CC-PVTZ-JKFIT

    Orbital Energies [Eh]
    ---------------------

    Doubly Occupied:

       1A    -20.610361     2A    -20.515004     3A    -15.579884
       4A    -11.350241     5A    -11.328133     6A    -11.300269
       7A    -11.251886     8A    -11.250662     9A    -11.244861
      10A    -11.241718    11A    -11.230976    12A     -1.470061
      13A     -1.367991    14A     -1.204745    15A     -1.144415
      16A     -1.039729    17A     -1.019281    18A     -0.964653
      19A     -0.871548    20A     -0.820023    21A     -0.786871
      22A     -0.739383    23A     -0.716702    24A     -0.690121
      25A     -0.683534    26A     -0.669283    27A     -0.640037
      28A     -0.616882    29A     -0.591873    30A     -0.583709
      31A     -0.555463    32A     -0.547943    33A     -0.540539
      34A     -0.527456    35A     -0.488628    36A     -0.478172
      37A     -0.420110    38A     -0.408992    39A     -0.347412
      40A     -0.306569

  @DF-RHF Final Energy:  -512.53342368988865

   => Energetics <=

    Nuclear Repulsion Energy =            592.7759486447325799
    One-Electron Energy =               -1874.3265059634761656
    Two-Electron Energy =                 769.0171336288549355
    Total Energy =                       -512.5334236898886502
  Basis Set: (AUG-CC-PVTZ AUX)
    Blend: AUG-CC-PVTZ-RI
    Molecular point group: c1

    Geometry (in Angstrom), charge = 0, multiplicity = 1:

       Center              X                  Y                   Z               Mass
    ------------   -----------------  -----------------  -----------------  -----------------
         O            0.406690253453     1.736480199441     0.167717478916    15.994914619570
         O           -2.158263746547     0.913218199441    -0.975387521084    15.994914619570
         N           -2.674556746547    -0.445412800559     0.792950478916    14.003074004430
         C           -0.414716746547    -0.454766800559    -0.034625521084    12.000000000000
         C            0.675142853453     0.504041099441     0.059606278916    12.000000000000
         C           -0.214379746547    -1.835498800559    -0.101355521084    12.000000000000
         C            1.989052253453    -0.128382800559     0.056985478916    12.000000000000
         C            1.075888253453    -2.371185800559    -0.102828521084    12.000000000000
         C            2.169854253453    -1.512862800559    -0.027109521084    12.000000000000
         C           -1.804288746547     0.105219199441    -0.121628521084    12.000000000000
         C            1.508320253453     2.640058199441     0.185413478916    12.000000000000
         H           -1.081850746547    -2.487250800559    -0.178118521084     1.007825032230
         H            2.859083253453     0.515438199441     0.127246478916     1.007825032230
         H            1.222377253453    -3.445829800559    -0.169625521084     1.007825032230
         H            3.180546253453    -1.914432800559    -0.027996521084     1.007825032230
         H            2.108621253453     2.550653199441    -0.726064521084     1.007825032230
         H            2.144660253453     2.479380199441     1.062848478916     1.007825032230
         H            1.062170253453     3.632508199441     0.233984478916     1.007825032230
         H           -2.302782746547    -0.831282800559     1.650291478916     1.007825032230
         H           -3.586878746547    -0.007043800559     0.846750478916     1.007825032230

  Basis Set: AUG-CC-PVTZ
    Blend: AUG-CC-PVTZ
  Basis Set: (AUG-CC-PVTZ AUX)
    Blend: AUG-CC-PVTZ-JKFIT
	 Reference Energy          =    -512.5334236898886502 [Eh]
	 Singles Energy            =      -0.0000000000000000 [Eh]
	 Same-Spin Energy          =      -0.5360446140330877 [Eh]
	 Opposite-Spin Energy      =      -1.6448499578048192 [Eh]
	 Correlation Energy        =      -2.1808945718379071 [Eh]
	 Total Energy              =    -514.7143182617265893 [Eh]

	 ================> DF-SCS-MP2 Energies <==================
	-----------------------------------------------------------
	 SCS Same-Spin Scale       =       0.3333333333333333 [-]
	 SCS Opposite-Spin Scale   =       1.2000000000000000 [-]
	 SCS Same-Spin Energy      =      -0.1786815380110292 [Eh]
	 SCS Opposite-Spin Energy  =      -1.9738199493657831 [Eh]
	 SCS Correlation Energy    =      -2.1525014873768122 [Eh]
	 SCS Total Energy          =    -514.6859251772655170 [Eh]
	-----------------------------------------------------------

  Dipole Moment: [D]
     X:     2.0387      Y:    -0.1239      Z:     2.9657     Total:     3.6009

*** Psi4 exiting successfully. Buy a developer a beer!
