                               Psi4 1.4a3.dev225

  ==> Input File <==

--------------------------------------------------------------------------
#psi4
#
memory 32 gb

molecule  {
0 1
  O        0.3703410     1.7406370     0.1509160
  O       -2.1946130     0.9173750    -0.9921890
  N       -2.7109060    -0.4412560     0.7761490
  C       -0.4510660    -0.4506100    -0.0514270
  C        0.6599990     0.4108460     0.0342650
  C       -0.2507290    -1.8313420    -0.1181570
  C        1.9527030    -0.1242260     0.0401840
  C        1.0395390    -2.3670290    -0.1196300
  C        2.1817755    -1.5016649    -0.0418771
  C       -1.8406380     0.1093760    -0.1384300
  C        1.4719710     2.6442150     0.1686120
  H       -1.1182000    -2.4830940    -0.1949200
  H        2.8227340     0.5195950     0.1104450
  H        1.1860280    -3.4416730    -0.1864270
  H        3.1441970    -1.9102760    -0.0447980
  H        2.0722720     2.5548100    -0.7428660
  H        2.1083110     2.4835370     1.0460470
  H        1.0258210     3.6366650     0.2171830
  H       -2.3391320    -0.8271260     1.6334900
  H       -3.6232280    -0.0028870     0.8299490
units angstrom
no_reorient  #important for SAPT in psi4, default
symmetry c1  #important for SAPT in psi4, default
}

set PROPERTIES_ORIGIN ["COM"]
properties('MP2/aug-cc-pvtz', properties = ['dipole'])
--------------------------------------------------------------------------

    Molecular point group: c1
  Charge       = 0
  Multiplicity = 1
  Basis Set: AUG-CC-PVTZ
    Blend: AUG-CC-PVTZ
  Basis Set: (AUG-CC-PVTZ AUX)
    Blend: AUG-CC-PVTZ-JKFIT

    Orbital Energies [Eh]
    ---------------------

    Doubly Occupied:

       1A    -20.590629     2A    -20.517460     3A    -15.582829
       4A    -11.355019     5A    -11.317832     6A    -11.287628
       7A    -11.255905     8A    -11.254780     9A    -11.248445
      10A    -11.244113    11A    -11.242925    12A     -1.414080
      13A     -1.369694    14A     -1.207847    15A     -1.154054
      16A     -1.042371    17A     -1.022537    18A     -0.948168
      19A     -0.880011    20A     -0.822437    21A     -0.790131
      22A     -0.735420    23A     -0.712463    24A     -0.681766
      25A     -0.665303    26A     -0.657064    27A     -0.639784
      28A     -0.623341    29A     -0.600193    30A     -0.580203
      31A     -0.557301    32A     -0.549318    33A     -0.528822
      34A     -0.516038    35A     -0.499984    36A     -0.473232
      37A     -0.424313    38A     -0.411599    39A     -0.353385
      40A     -0.319263

  @DF-RHF Final Energy:  -512.54151460498383

   => Energetics <=

    Nuclear Repulsion Energy =            591.8596019925959126
    One-Electron Energy =               -1872.6468553641827839
    Two-Electron Energy =                 768.2457387666029263
    Total Energy =                       -512.5415146049838313
  Basis Set: (AUG-CC-PVTZ AUX)
    Blend: AUG-CC-PVTZ-RI
    Molecular point group: c1

    Geometry (in Angstrom), charge = 0, multiplicity = 1:

       Center              X                  Y                   Z               Mass
    ------------   -----------------  -----------------  -----------------  -----------------
         O            0.401171304492     1.743654207921     0.168234287335    15.994914619570
         O           -2.163782695508     0.920392207921    -0.974870712665    15.994914619570
         N           -2.680075695508    -0.438238792079     0.793467287335    14.003074004430
         C           -0.420235695508    -0.447592792079    -0.034108712665    12.000000000000
         C            0.690829304492     0.413863207921     0.051583287335    12.000000000000
         C           -0.219898695508    -1.828324792079    -0.100838712665    12.000000000000
         C            1.983533304492    -0.121208792079     0.057502287335    12.000000000000
         C            1.070369304492    -2.364011792079    -0.102311712665    12.000000000000
         C            2.212605804492    -1.498647692079    -0.024558812665    12.000000000000
         C           -1.809807695508     0.112393207921    -0.121111712665    12.000000000000
         C            1.502801304492     2.647232207921     0.185930287335    12.000000000000
         H           -1.087369695508    -2.480076792079    -0.177601712665     1.007825032230
         H            2.853564304492     0.522612207921     0.127763287335     1.007825032230
         H            1.216858304492    -3.438655792079    -0.169108712665     1.007825032230
         H            3.175027304492    -1.907258792079    -0.027479712665     1.007825032230
         H            2.103102304492     2.557827207921    -0.725547712665     1.007825032230
         H            2.139141304492     2.486554207921     1.063365287335     1.007825032230
         H            1.056651304492     3.639682207921     0.234501287335     1.007825032230
         H           -2.308301695508    -0.824108792079     1.650808287335     1.007825032230
         H           -3.592397695508     0.000130207921     0.847267287335     1.007825032230

  Basis Set: AUG-CC-PVTZ
    Blend: AUG-CC-PVTZ
  Basis Set: (AUG-CC-PVTZ AUX)
    Blend: AUG-CC-PVTZ-JKFIT
	 Reference Energy          =    -512.5415146049838313 [Eh]
	 Singles Energy            =      -0.0000000000000000 [Eh]
	 Same-Spin Energy          =      -0.5358438366619980 [Eh]
	 Opposite-Spin Energy      =      -1.6458187451924884 [Eh]
	 Correlation Energy        =      -2.1816625818544866 [Eh]
	 Total Energy              =    -514.7231771868383703 [Eh]

	 ================> DF-SCS-MP2 Energies <==================
	-----------------------------------------------------------
	 SCS Same-Spin Scale       =       0.3333333333333333 [-]
	 SCS Opposite-Spin Scale   =       1.2000000000000000 [-]
	 SCS Same-Spin Energy      =      -0.1786146122206660 [Eh]
	 SCS Opposite-Spin Energy  =      -1.9749824942309859 [Eh]
	 SCS Correlation Energy    =      -2.1535971064516519 [Eh]
	 SCS Total Energy          =    -514.6951117114355156 [Eh]
	-----------------------------------------------------------

  Dipole Moment: [D]
     X:     2.0172      Y:    -0.9142      Z:     2.8994     Total:     3.6485

*** Psi4 exiting successfully. Buy a developer a beer!
