                               Psi4 1.4a3.dev225

  ==> Input File <==

--------------------------------------------------------------------------
#psi4
#
memory 32 gb

molecule  {
0 1
  O        0.3703410     1.7406370     0.1509160
  O       -2.1946130     0.9173750    -0.9921890
  N       -2.7109060    -0.4412560     0.7761490
  C       -0.4510660    -0.4506100    -0.0514270
  C        0.6599990     0.4108460     0.0342650
  C       -0.2507290    -1.8313420    -0.1181570
  C        1.9527030    -0.1242260     0.0401840
  C        1.1318955    -2.4053731    -0.1197354
  C        2.1335050    -1.5087060    -0.0439110
  C       -1.8406380     0.1093760    -0.1384300
  C        1.4719710     2.6442150     0.1686120
  H       -1.1182000    -2.4830940    -0.1949200
  H        2.8227340     0.5195950     0.1104450
  H        1.1860280    -3.4416730    -0.1864270
  H        3.1441970    -1.9102760    -0.0447980
  H        2.0722720     2.5548100    -0.7428660
  H        2.1083110     2.4835370     1.0460470
  H        1.0258210     3.6366650     0.2171830
  H       -2.3391320    -0.8271260     1.6334900
  H       -3.6232280    -0.0028870     0.8299490
units angstrom
no_reorient  #important for SAPT in psi4, default
symmetry c1  #important for SAPT in psi4, default
}

set PROPERTIES_ORIGIN ["COM"]
properties('MP2/aug-cc-pvtz', properties = ['dipole'])
--------------------------------------------------------------------------

    Molecular point group: c1
  Charge       = 0
  Multiplicity = 1
  Basis Set: AUG-CC-PVTZ
    Blend: AUG-CC-PVTZ
  Basis Set: (AUG-CC-PVTZ AUX)
    Blend: AUG-CC-PVTZ-JKFIT

    Orbital Energies [Eh]
    ---------------------

    Doubly Occupied:

       1A    -20.591307     2A    -20.518421     3A    -15.583633
       4A    -11.356320     5A    -11.318413     6A    -11.287597
       7A    -11.265878     8A    -11.250995     9A    -11.247920
      10A    -11.240171    11A    -11.239261    12A     -1.414515
      13A     -1.370704    14A     -1.208542    15A     -1.153874
      16A     -1.048458    17A     -1.016249    18A     -0.951621
      19A     -0.872457    20A     -0.828554    21A     -0.790666
      22A     -0.736141    23A     -0.708770    24A     -0.686347
      25A     -0.664958    26A     -0.657469    27A     -0.642363
      28A     -0.621449    29A     -0.595056    30A     -0.583399
      31A     -0.562982    32A     -0.537534    33A     -0.527626
      34A     -0.525288    35A     -0.496482    36A     -0.473547
      37A     -0.424018    38A     -0.412152    39A     -0.353428
      40A     -0.321269

  @DF-RHF Final Energy:  -512.53431617023989

   => Energetics <=

    Nuclear Repulsion Energy =            591.4735758284949725
    One-Electron Energy =               -1871.8441134571467046
    Two-Electron Energy =                 767.8362214584117282
    Total Energy =                       -512.5343161702398902
  Basis Set: (AUG-CC-PVTZ AUX)
    Blend: AUG-CC-PVTZ-RI
    Molecular point group: c1

    Geometry (in Angstrom), charge = 0, multiplicity = 1:

       Center              X                  Y                   Z               Mass
    ------------   -----------------  -----------------  -----------------  -----------------
         O            0.397669250055     1.747259466757     0.168404226659    15.994914619570
         O           -2.167284749945     0.923997466757    -0.974700773341    15.994914619570
         N           -2.683577749945    -0.434633533243     0.793637226659    14.003074004430
         C           -0.423737749945    -0.443987533243    -0.033938773341    12.000000000000
         C            0.687327250055     0.417468466757     0.051753226659    12.000000000000
         C           -0.223400749945    -1.824719533243    -0.100668773341    12.000000000000
         C            1.980031250055    -0.117603533243     0.057672226659    12.000000000000
         C            1.159223750055    -2.398750633243    -0.102247173341    12.000000000000
         C            2.160833250055    -1.502083533243    -0.026422773341    12.000000000000
         C           -1.813309749945     0.115998466757    -0.120941773341    12.000000000000
         C            1.499299250055     2.650837466757     0.186100226659    12.000000000000
         H           -1.090871749945    -2.476471533243    -0.177431773341     1.007825032230
         H            2.850062250055     0.526217466757     0.127933226659     1.007825032230
         H            1.213356250055    -3.435050533243    -0.168938773341     1.007825032230
         H            3.171525250055    -1.903653533243    -0.027309773341     1.007825032230
         H            2.099600250055     2.561432466757    -0.725377773341     1.007825032230
         H            2.135639250055     2.490159466757     1.063535226659     1.007825032230
         H            1.053149250055     3.643287466757     0.234671226659     1.007825032230
         H           -2.311803749945    -0.820503533243     1.650978226659     1.007825032230
         H           -3.595899749945     0.003735466757     0.847437226659     1.007825032230

  Basis Set: AUG-CC-PVTZ
    Blend: AUG-CC-PVTZ
  Basis Set: (AUG-CC-PVTZ AUX)
    Blend: AUG-CC-PVTZ-JKFIT
	 Reference Energy          =    -512.5343161702398902 [Eh]
	 Singles Energy            =      -0.0000000000000000 [Eh]
	 Same-Spin Energy          =      -0.5352034318194097 [Eh]
	 Opposite-Spin Energy      =      -1.6458300454647379 [Eh]
	 Correlation Energy        =      -2.1810334772841475 [Eh]
	 Total Energy              =    -514.7153496475240217 [Eh]

	 ================> DF-SCS-MP2 Energies <==================
	-----------------------------------------------------------
	 SCS Same-Spin Scale       =       0.3333333333333333 [-]
	 SCS Opposite-Spin Scale   =       1.2000000000000000 [-]
	 SCS Same-Spin Energy      =      -0.1784011439398032 [Eh]
	 SCS Opposite-Spin Energy  =      -1.9749960545576855 [Eh]
	 SCS Correlation Energy    =      -2.1533971984974887 [Eh]
	 SCS Total Energy          =    -514.6877133687373771 [Eh]
	-----------------------------------------------------------

  Dipole Moment: [D]
     X:     1.9150      Y:    -0.9162      Z:     2.8971     Total:     3.5916

*** Psi4 exiting successfully. Buy a developer a beer!
