                               Psi4 1.4a3.dev225

  ==> Input File <==

--------------------------------------------------------------------------
#psi4
#
memory 32 gb

molecule  {
0 1
  O        0.3703410     1.7406370     0.1509160
  O       -2.1946130     0.9173750    -0.9921890
  N       -2.7109060    -0.4412560     0.7761490
  C       -0.4510660    -0.4506100    -0.0514270
  C        0.6599990     0.4108460     0.0342650
  C       -0.2507290    -1.8313420    -0.1181570
  C        1.9527030    -0.1242260     0.0401840
  C        1.0395390    -2.3670290    -0.1196300
  C        2.1335050    -1.5087060    -0.0439110
  C       -1.8406380     0.1093760    -0.1384300
  C        1.4719710     2.6442150     0.1686120
  H       -1.1182000    -2.4830940    -0.1949200
  H        2.8227340     0.5195950     0.1104450
  H        1.1860280    -3.4416730    -0.1864270
  H        3.1441970    -1.9102760    -0.0447980
  H        2.0087582     2.5691478    -0.7828979
  H        2.1083110     2.4835370     1.0460470
  H        1.0258210     3.6366650     0.2171830
  H       -2.3391320    -0.8271260     1.6334900
  H       -3.6232280    -0.0028870     0.8299490
units angstrom
no_reorient  #important for SAPT in psi4, default
symmetry c1  #important for SAPT in psi4, default
}

set PROPERTIES_ORIGIN ["COM"]
properties('MP2/aug-cc-pvtz', properties = ['dipole'])
--------------------------------------------------------------------------

    Molecular point group: c1
  Charge       = 0
  Multiplicity = 1
  Basis Set: AUG-CC-PVTZ
    Blend: AUG-CC-PVTZ
  Basis Set: (AUG-CC-PVTZ AUX)
    Blend: AUG-CC-PVTZ-JKFIT

    Orbital Energies [Eh]
    ---------------------

    Doubly Occupied:

       1A    -20.589178     2A    -20.517268     3A    -15.582694
       4A    -11.354915     5A    -11.317121     6A    -11.287559
       7A    -11.255174     8A    -11.253901     9A    -11.248041
      10A    -11.242387    11A    -11.238192    12A     -1.413487
      13A     -1.369535    14A     -1.207754    15A     -1.157688
      16A     -1.042611    17A     -1.024580    18A     -0.949089
      19A     -0.876967    20A     -0.823788    21A     -0.788899
      22A     -0.734821    23A     -0.707719    24A     -0.681428
      25A     -0.666151    26A     -0.660124    27A     -0.638751
      28A     -0.622950    29A     -0.596389    30A     -0.581937
      31A     -0.558380    32A     -0.542080    33A     -0.532375
      34A     -0.518001    35A     -0.498092    36A     -0.476388
      37A     -0.423968    38A     -0.411505    39A     -0.352130
      40A     -0.322486

  @DF-RHF Final Energy:  -512.54489420449056

   => Energetics <=

    Nuclear Repulsion Energy =            592.6978820120892806
    One-Electron Energy =               -1874.3525402736515844
    Two-Electron Energy =                 769.1097640570718568
    Total Energy =                       -512.5448942044905607
  Basis Set: (AUG-CC-PVTZ AUX)
    Blend: AUG-CC-PVTZ-RI
    Molecular point group: c1

    Geometry (in Angstrom), charge = 0, multiplicity = 1:

       Center              X                  Y                   Z               Mass
    ------------   -----------------  -----------------  -----------------  -----------------
         O            0.405429497422     1.744117875755     0.168662928432    15.994914619570
         O           -2.159524502578     0.920855875755    -0.974442071568    15.994914619570
         N           -2.675817502578    -0.437775124245     0.793895928432    14.003074004430
         C           -0.415977502578    -0.447129124245    -0.033680071568    12.000000000000
         C            0.695087497422     0.414326875755     0.052011928432    12.000000000000
         C           -0.215640502578    -1.827861124245    -0.100410071568    12.000000000000
         C            1.987791497422    -0.120745124245     0.057930928432    12.000000000000
         C            1.074627497422    -2.363548124245    -0.101883071568    12.000000000000
         C            2.168593497422    -1.505225124245    -0.026164071568    12.000000000000
         C           -1.805549502578     0.112856875755    -0.120683071568    12.000000000000
         C            1.507059497422     2.647695875755     0.186358928432    12.000000000000
         H           -1.083111502578    -2.479613124245    -0.177173071568     1.007825032230
         H            2.857822497422     0.523075875755     0.128191928432     1.007825032230
         H            1.221116497422    -3.438192124245    -0.168680071568     1.007825032230
         H            3.179285497422    -1.906795124245    -0.027051071568     1.007825032230
         H            2.043846697422     2.572628675755    -0.765150971568     1.007825032230
         H            2.143399497422     2.487017875755     1.063793928432     1.007825032230
         H            1.060909497422     3.640145875755     0.234929928432     1.007825032230
         H           -2.304043502578    -0.823645124245     1.651236928432     1.007825032230
         H           -3.588139502578     0.000593875755     0.847695928432     1.007825032230

  Basis Set: AUG-CC-PVTZ
    Blend: AUG-CC-PVTZ
  Basis Set: (AUG-CC-PVTZ AUX)
    Blend: AUG-CC-PVTZ-JKFIT
	 Reference Energy          =    -512.5448942044905607 [Eh]
	 Singles Energy            =      -0.0000000000000000 [Eh]
	 Same-Spin Energy          =      -0.5356979095540161 [Eh]
	 Opposite-Spin Energy      =      -1.6452864306251005 [Eh]
	 Correlation Energy        =      -2.1809843401791165 [Eh]
	 Total Energy              =    -514.7258785446696265 [Eh]

	 ================> DF-SCS-MP2 Energies <==================
	-----------------------------------------------------------
	 SCS Same-Spin Scale       =       0.3333333333333333 [-]
	 SCS Opposite-Spin Scale   =       1.2000000000000000 [-]
	 SCS Same-Spin Energy      =      -0.1785659698513387 [Eh]
	 SCS Opposite-Spin Energy  =      -1.9743437167501205 [Eh]
	 SCS Correlation Energy    =      -2.1529096866014594 [Eh]
	 SCS Total Energy          =    -514.6978038910920077 [Eh]
	-----------------------------------------------------------

  Dipole Moment: [D]
     X:     1.9906      Y:    -0.8829      Z:     2.8978     Total:     3.6248

*** Psi4 exiting successfully. Buy a developer a beer!
