                               Psi4 1.4a3.dev225

  ==> Input File <==

--------------------------------------------------------------------------
#psi4
#
memory 32 gb

molecule  {
0 1
  O        0.3703410     1.7406370     0.1509160
  O       -2.1946130     0.9173750    -0.9921890
  N       -2.7109060    -0.4412560     0.7761490
  C       -0.4510660    -0.4506100    -0.0514270
  C        0.6599990     0.4108460     0.0342650
  C       -0.2507290    -1.8313420    -0.1181570
  C        1.9527030    -0.1242260     0.0401840
  C        1.0395390    -2.3670290    -0.1196300
  C        2.1909196    -1.5870333    -0.0479163
  C       -1.8406380     0.1093760    -0.1384300
  C        1.4719710     2.6442150     0.1686120
  H       -1.1182000    -2.4830940    -0.1949200
  H        2.8227340     0.5195950     0.1104450
  H        1.1860280    -3.4416730    -0.1864270
  H        3.1441970    -1.9102760    -0.0447980
  H        2.0722720     2.5548100    -0.7428660
  H        2.1083110     2.4835370     1.0460470
  H        1.0258210     3.6366650     0.2171830
  H       -2.3391320    -0.8271260     1.6334900
  H       -3.6232280    -0.0028870     0.8299490
units angstrom
no_reorient  #important for SAPT in psi4, default
symmetry c1  #important for SAPT in psi4, default
}

set PROPERTIES_ORIGIN ["COM"]
properties('MP2/aug-cc-pvtz', properties = ['dipole'])
--------------------------------------------------------------------------

    Molecular point group: c1
  Charge       = 0
  Multiplicity = 1
  Basis Set: AUG-CC-PVTZ
    Blend: AUG-CC-PVTZ
  Basis Set: (AUG-CC-PVTZ AUX)
    Blend: AUG-CC-PVTZ-JKFIT

    Orbital Energies [Eh]
    ---------------------

    Doubly Occupied:

       1A    -20.589304     2A    -20.518538     3A    -15.583747
       4A    -11.356220     5A    -11.316059     6A    -11.286527
       7A    -11.256737     8A    -11.256634     9A    -11.251863
      10A    -11.249218    11A    -11.241426    12A     -1.412831
      13A     -1.370697    14A     -1.208734    15A     -1.151317
      16A     -1.040936    17A     -1.019802    18A     -0.948494
      19A     -0.884537    20A     -0.820711    21A     -0.790570
      22A     -0.735304    23A     -0.716236    24A     -0.680149
      25A     -0.663870    26A     -0.655682    27A     -0.644603
      28A     -0.623204    29A     -0.605221    30A     -0.578159
      31A     -0.559602    32A     -0.547008    33A     -0.526829
      34A     -0.506957    35A     -0.504401    36A     -0.472678
      37A     -0.425322    38A     -0.412420    39A     -0.344101
      40A     -0.325921

  @DF-RHF Final Energy:  -512.53199174558097

   => Energetics <=

    Nuclear Repulsion Energy =            590.8848305732938115
    One-Electron Energy =               -1870.6685102980991360
    Two-Electron Energy =                 767.2516879792243572
    Total Energy =                       -512.5319917455809673
  Basis Set: (AUG-CC-PVTZ AUX)
    Blend: AUG-CC-PVTZ-RI
    Molecular point group: c1

    Geometry (in Angstrom), charge = 0, multiplicity = 1:

       Center              X                  Y                   Z               Mass
    ------------   -----------------  -----------------  -----------------  -----------------
         O            0.400444925688     1.750435607550     0.168714022561    15.994914619570
         O           -2.164509074312     0.927173607550    -0.974390977439    15.994914619570
         N           -2.680802074312    -0.431457392450     0.793947022561    14.003074004430
         C           -0.420962074312    -0.440811392450    -0.033628977439    12.000000000000
         C            0.690102925688     0.420644607550     0.052063022561    12.000000000000
         C           -0.220625074312    -1.821543392450    -0.100358977439    12.000000000000
         C            1.982806925688    -0.114427392450     0.057982022561    12.000000000000
         C            1.069642925688    -2.357230392450    -0.101831977439    12.000000000000
         C            2.221023525688    -1.577234692450    -0.030118277439    12.000000000000
         C           -1.810534074312     0.119174607550    -0.120631977439    12.000000000000
         C            1.502074925688     2.654013607550     0.186410022561    12.000000000000
         H           -1.088096074312    -2.473295392450    -0.177121977439     1.007825032230
         H            2.852837925688     0.529393607550     0.128243022561     1.007825032230
         H            1.216131925688    -3.431874392450    -0.168628977439     1.007825032230
         H            3.174300925688    -1.900477392450    -0.026999977439     1.007825032230
         H            2.102375925688     2.564608607550    -0.725067977439     1.007825032230
         H            2.138414925688     2.493335607550     1.063845022561     1.007825032230
         H            1.055924925688     3.646463607550     0.234981022561     1.007825032230
         H           -2.309028074312    -0.817327392450     1.651288022561     1.007825032230
         H           -3.593124074312     0.006911607550     0.847747022561     1.007825032230

  Basis Set: AUG-CC-PVTZ
    Blend: AUG-CC-PVTZ
  Basis Set: (AUG-CC-PVTZ AUX)
    Blend: AUG-CC-PVTZ-JKFIT
	 Reference Energy          =    -512.5319917455809673 [Eh]
	 Singles Energy            =      -0.0000000000000000 [Eh]
	 Same-Spin Energy          =      -0.5358139259684365 [Eh]
	 Opposite-Spin Energy      =      -1.6466684957029400 [Eh]
	 Correlation Energy        =      -2.1824824216713763 [Eh]
	 Total Energy              =    -514.7144741672523196 [Eh]

	 ================> DF-SCS-MP2 Energies <==================
	-----------------------------------------------------------
	 SCS Same-Spin Scale       =       0.3333333333333333 [-]
	 SCS Opposite-Spin Scale   =       1.2000000000000000 [-]
	 SCS Same-Spin Energy      =      -0.1786046419894788 [Eh]
	 SCS Opposite-Spin Energy  =      -1.9760021948435280 [Eh]
	 SCS Correlation Energy    =      -2.1546068368330067 [Eh]
	 SCS Total Energy          =    -514.6865985824139216 [Eh]
	-----------------------------------------------------------

  Dipole Moment: [D]
     X:     1.9651      Y:    -0.9549      Z:     2.8962     Total:     3.6278

*** Psi4 exiting successfully. Buy a developer a beer!
