                               Psi4 1.4a3.dev225

  ==> Input File <==

--------------------------------------------------------------------------
#psi4
#
memory 32 gb

molecule  {
0 1
  O        0.3703410     1.7406370     0.1509160
  O       -2.1946130     0.9173750    -0.9921890
  N       -2.7109060    -0.4412560     0.7761490
  C       -0.4510660    -0.4506100    -0.0514270
  C        0.6599990     0.4108460     0.0342650
  C       -0.2507290    -1.8313420    -0.1181570
  C        1.9527030    -0.1242260     0.0401840
  C        1.0395390    -2.3670290    -0.1196300
  C        2.1335050    -1.5087060    -0.0439110
  C       -1.8406380     0.1093760    -0.1384300
  C        1.4719710     2.6442150     0.1686120
  H       -1.1182000    -2.4830940    -0.1949200
  H        2.8227340     0.5195950     0.1104450
  H        1.1860280    -3.4416730    -0.1864270
  H        3.1441970    -1.9102760    -0.0447980
  H        2.0722720     2.5548100    -0.7428660
  H        2.1083110     2.4835370     1.0460470
  H        1.0258210     3.6366650     0.2171830
  H       -2.3391320    -0.8271260     1.6334900
  H       -3.7132357     0.0403615     0.8352568
units angstrom
no_reorient  #important for SAPT in psi4, default
symmetry c1  #important for SAPT in psi4, default
}

set PROPERTIES_ORIGIN ["COM"]
properties('MP2/aug-cc-pvtz', properties = ['dipole'])
--------------------------------------------------------------------------

    Molecular point group: c1
  Charge       = 0
  Multiplicity = 1
  Basis Set: AUG-CC-PVTZ
    Blend: AUG-CC-PVTZ
  Basis Set: (AUG-CC-PVTZ AUX)
    Blend: AUG-CC-PVTZ-JKFIT

    Orbital Energies [Eh]
    ---------------------

    Doubly Occupied:

       1A    -20.590177     2A    -20.516372     3A    -15.590751
       4A    -11.354495     5A    -11.317313     6A    -11.287518
       7A    -11.255157     8A    -11.253963     9A    -11.248416
      10A    -11.242572    11A    -11.238220    12A     -1.413702
      13A     -1.367981    14A     -1.198212    15A     -1.156692
      16A     -1.041574    17A     -1.024485    18A     -0.949061
      19A     -0.873857    20A     -0.823292    21A     -0.785334
      22A     -0.733556    23A     -0.702881    24A     -0.678595
      25A     -0.659563    26A     -0.652688    27A     -0.637745
      28A     -0.623162    29A     -0.593765    30A     -0.581016
      31A     -0.556378    32A     -0.543113    33A     -0.529852
      34A     -0.518310    35A     -0.500152    36A     -0.475557
      37A     -0.423214    38A     -0.409775    39A     -0.352065
      40A     -0.322604

  @DF-RHF Final Energy:  -512.53503652001461

   => Energetics <=

    Nuclear Repulsion Energy =            592.1147349056824396
    One-Electron Energy =               -1873.2532792778242765
    Two-Electron Energy =                 768.6035078521273363
    Total Energy =                       -512.5350365200146143
  Basis Set: (AUG-CC-PVTZ AUX)
    Blend: AUG-CC-PVTZ-RI
    Molecular point group: c1

    Geometry (in Angstrom), charge = 0, multiplicity = 1:

       Center              X                  Y                   Z               Mass
    ------------   -----------------  -----------------  -----------------  -----------------
         O            0.405606252535     1.743924996864     0.168360442812    15.994914619570
         O           -2.159347747465     0.920662996864    -0.974744557188    15.994914619570
         N           -2.675640747465    -0.437968003136     0.793593442812    14.003074004430
         C           -0.415800747465    -0.447322003136    -0.033982557188    12.000000000000
         C            0.695264252535     0.414133996864     0.051709442812    12.000000000000
         C           -0.215463747465    -1.828054003136    -0.100712557188    12.000000000000
         C            1.987968252535    -0.120938003136     0.057628442812    12.000000000000
         C            1.074804252535    -2.363741003136    -0.102185557188    12.000000000000
         C            2.168770252535    -1.505418003136    -0.026466557188    12.000000000000
         C           -1.805372747465     0.112663996864    -0.120985557188    12.000000000000
         C            1.507236252535     2.647502996864     0.186056442812    12.000000000000
         H           -1.082934747465    -2.479806003136    -0.177475557188     1.007825032230
         H            2.857999252535     0.522882996864     0.127889442812     1.007825032230
         H            1.221293252535    -3.438385003136    -0.168982557188     1.007825032230
         H            3.179462252535    -1.906988003136    -0.027353557188     1.007825032230
         H            2.107537252535     2.558097996864    -0.725421557188     1.007825032230
         H            2.143576252535     2.486824996864     1.063491442812     1.007825032230
         H            1.061086252535     3.639952996864     0.234627442812     1.007825032230
         H           -2.303866747465    -0.823838003136     1.650934442812     1.007825032230
         H           -3.677970447465     0.043649496864     0.852701242812     1.007825032230

  Basis Set: AUG-CC-PVTZ
    Blend: AUG-CC-PVTZ
  Basis Set: (AUG-CC-PVTZ AUX)
    Blend: AUG-CC-PVTZ-JKFIT
	 Reference Energy          =    -512.5350365200146143 [Eh]
	 Singles Energy            =      -0.0000000000000000 [Eh]
	 Same-Spin Energy          =      -0.5363904084011317 [Eh]
	 Opposite-Spin Energy      =      -1.6470960364966980 [Eh]
	 Correlation Energy        =      -2.1834864448978299 [Eh]
	 Total Energy              =    -514.7185229649124949 [Eh]

	 ================> DF-SCS-MP2 Energies <==================
	-----------------------------------------------------------
	 SCS Same-Spin Scale       =       0.3333333333333333 [-]
	 SCS Opposite-Spin Scale   =       1.2000000000000000 [-]
	 SCS Same-Spin Energy      =      -0.1787968028003772 [Eh]
	 SCS Opposite-Spin Energy  =      -1.9765152437960376 [Eh]
	 SCS Correlation Energy    =      -2.1553120465964146 [Eh]
	 SCS Total Energy          =    -514.6903485666110782 [Eh]
	-----------------------------------------------------------

  Dipole Moment: [D]
     X:     1.9165      Y:    -0.8810      Z:     2.9036     Total:     3.5889

*** Psi4 exiting successfully. Buy a developer a beer!
