                               Psi4 1.4a3.dev225

  ==> Input File <==

--------------------------------------------------------------------------
#psi4
#
memory 32 gb

molecule  {
0 1
  O        0.3703410     1.7406370     0.1509160
  O       -2.1946130     0.9173750    -0.9921890
  N       -2.7109060    -0.4412560     0.7761490
  C       -0.4510660    -0.4506100    -0.0514270
  C        0.6599990     0.4108460     0.0342650
  C       -0.2579004    -1.7819166    -0.1157683
  C        1.9527030    -0.1242260     0.0401840
  C        1.0395390    -2.3670290    -0.1196300
  C        2.1335050    -1.5087060    -0.0439110
  C       -1.8406380     0.1093760    -0.1384300
  C        1.4719710     2.6442150     0.1686120
  H       -1.1182000    -2.4830940    -0.1949200
  H        2.8227340     0.5195950     0.1104450
  H        1.1860280    -3.4416730    -0.1864270
  H        3.1441970    -1.9102760    -0.0447980
  H        2.0722720     2.5548100    -0.7428660
  H        2.1083110     2.4835370     1.0460470
  H        1.0258210     3.6366650     0.2171830
  H       -2.3391320    -0.8271260     1.6334900
  H       -3.6232280    -0.0028870     0.8299490
units angstrom
no_reorient  #important for SAPT in psi4, default
symmetry c1  #important for SAPT in psi4, default
}

set PROPERTIES_ORIGIN ["COM"]
properties('MP2/aug-cc-pvtz', properties = ['dipole'])
--------------------------------------------------------------------------

    Molecular point group: c1
  Charge       = 0
  Multiplicity = 1
  Basis Set: AUG-CC-PVTZ
    Blend: AUG-CC-PVTZ
  Basis Set: (AUG-CC-PVTZ AUX)
    Blend: AUG-CC-PVTZ-JKFIT

    Orbital Energies [Eh]
    ---------------------

    Doubly Occupied:

       1A    -20.591017     2A    -20.518170     3A    -15.583272
       4A    -11.355706     5A    -11.317839     6A    -11.287679
       7A    -11.254387     8A    -11.252966     9A    -11.244617
      10A    -11.240871    11A    -11.239763    12A     -1.414365
      13A     -1.370469    14A     -1.208918    15A     -1.160694
      16A     -1.047835    17A     -1.021102    18A     -0.950177
      19A     -0.874711    20A     -0.824761    21A     -0.791366
      22A     -0.736208    23A     -0.708156    24A     -0.682625
      25A     -0.667207    26A     -0.657490    27A     -0.638144
      28A     -0.620287    29A     -0.597019    30A     -0.584161
      31A     -0.558500    32A     -0.542441    33A     -0.529698
      34A     -0.520653    35A     -0.498363    36A     -0.475820
      37A     -0.424550    38A     -0.411690    39A     -0.358315
      40A     -0.319844

  @DF-RHF Final Energy:  -512.54272144140930

   => Energetics <=

    Nuclear Repulsion Energy =            593.4799121410421776
    One-Electron Energy =               -1875.8815622460983832
    Two-Electron Energy =                 769.8589286636469069
    Total Energy =                       -512.5427214414092987
  Basis Set: (AUG-CC-PVTZ AUX)
    Blend: AUG-CC-PVTZ-RI
    Molecular point group: c1

    Geometry (in Angstrom), charge = 0, multiplicity = 1:

       Center              X                  Y                   Z               Mass
    ------------   -----------------  -----------------  -----------------  -----------------
         O            0.405575436233     1.740287331228     0.168206103129    15.994914619570
         O           -2.159378563767     0.917025331228    -0.974898896871    15.994914619570
         N           -2.675671563767    -0.441605668772     0.793439103129    14.003074004430
         C           -0.415831563767    -0.450959668772    -0.034136896871    12.000000000000
         C            0.695233436233     0.410496331228     0.051555103129    12.000000000000
         C           -0.222665963767    -1.782266268772    -0.098478196871    12.000000000000
         C            1.987937436233    -0.124575668772     0.057474103129    12.000000000000
         C            1.074773436233    -2.367378668772    -0.102339896871    12.000000000000
         C            2.168739436233    -1.509055668772    -0.026620896871    12.000000000000
         C           -1.805403563767     0.109026331228    -0.121139896871    12.000000000000
         C            1.507205436233     2.643865331228     0.185902103129    12.000000000000
         H           -1.082965563767    -2.483443668772    -0.177629896871     1.007825032230
         H            2.857968436233     0.519245331228     0.127735103129     1.007825032230
         H            1.221262436233    -3.442022668772    -0.169136896871     1.007825032230
         H            3.179431436233    -1.910625668772    -0.027507896871     1.007825032230
         H            2.107506436233     2.554460331228    -0.725575896871     1.007825032230
         H            2.143545436233     2.483187331228     1.063337103129     1.007825032230
         H            1.061055436233     3.636315331228     0.234473103129     1.007825032230
         H           -2.303897563767    -0.827475668772     1.650780103129     1.007825032230
         H           -3.587993563767    -0.003236668772     0.847239103129     1.007825032230

  Basis Set: AUG-CC-PVTZ
    Blend: AUG-CC-PVTZ
  Basis Set: (AUG-CC-PVTZ AUX)
    Blend: AUG-CC-PVTZ-JKFIT
	 Reference Energy          =    -512.5427214414092987 [Eh]
	 Singles Energy            =      -0.0000000000000000 [Eh]
	 Same-Spin Energy          =      -0.5355161305960491 [Eh]
	 Opposite-Spin Energy      =      -1.6452259155173010 [Eh]
	 Correlation Energy        =      -2.1807420461133500 [Eh]
	 Total Energy              =    -514.7234634875226220 [Eh]

	 ================> DF-SCS-MP2 Energies <==================
	-----------------------------------------------------------
	 SCS Same-Spin Scale       =       0.3333333333333333 [-]
	 SCS Opposite-Spin Scale   =       1.2000000000000000 [-]
	 SCS Same-Spin Energy      =      -0.1785053768653497 [Eh]
	 SCS Opposite-Spin Energy  =      -1.9742710986207612 [Eh]
	 SCS Correlation Energy    =      -2.1527764754861107 [Eh]
	 SCS Total Energy          =    -514.6954979168954196 [Eh]
	-----------------------------------------------------------

  Dipole Moment: [D]
     X:     1.9625      Y:    -0.9005      Z:     2.9031     Total:     3.6181

*** Psi4 exiting successfully. Buy a developer a beer!
