                               Psi4 1.4a3.dev225

  ==> Input File <==

--------------------------------------------------------------------------
#psi4
#
memory 32 gb

molecule  {
0 1
  O        0.3703410     1.7406370     0.1509160
  O       -2.1946130     0.9173750    -0.9921890
  N       -2.7109060    -0.4412560     0.7761490
  C       -0.4510660    -0.4506100    -0.0514270
  C        0.6599990     0.4108460     0.0342650
  C       -0.2507290    -1.8313420    -0.1181570
  C        1.9527030    -0.1242260     0.0401840
  C        1.0395390    -2.3670290    -0.1196300
  C        2.1335050    -1.5087060    -0.0439110
  C       -1.8406380     0.1093760    -0.1384300
  C        1.4719710     2.6442150     0.1686120
  H       -1.1182000    -2.4830940    -0.1949200
  H        2.8227340     0.5195950     0.1104450
  H        1.1860280    -3.4416730    -0.1864270
  H        3.3300634    -1.9841248    -0.0449611
  H        2.0722720     2.5548100    -0.7428660
  H        2.1083110     2.4835370     1.0460470
  H        1.0258210     3.6366650     0.2171830
  H       -2.3391320    -0.8271260     1.6334900
  H       -3.6232280    -0.0028870     0.8299490
units angstrom
no_reorient  #important for SAPT in psi4, default
symmetry c1  #important for SAPT in psi4, default
}

set PROPERTIES_ORIGIN ["COM"]
properties('MP2/aug-cc-pvtz', properties = ['dipole'])
--------------------------------------------------------------------------

    Molecular point group: c1
  Charge       = 0
  Multiplicity = 1
  Basis Set: AUG-CC-PVTZ
    Blend: AUG-CC-PVTZ
  Basis Set: (AUG-CC-PVTZ AUX)
    Blend: AUG-CC-PVTZ-JKFIT

    Orbital Energies [Eh]
    ---------------------

    Doubly Occupied:

       1A    -20.591448     2A    -20.518056     3A    -15.583419
       4A    -11.355750     5A    -11.318968     6A    -11.288270
       7A    -11.275544     8A    -11.256984     9A    -11.249295
      10A    -11.244972    11A    -11.240683    12A     -1.414920
      13A     -1.370324    14A     -1.208526    15A     -1.158554
      16A     -1.040079    17A     -1.026235    18A     -0.950127
      19A     -0.870283    20A     -0.825384    21A     -0.788146
      22A     -0.734876    23A     -0.701398    24A     -0.680960
      25A     -0.666623    26A     -0.657787    27A     -0.633765
      28A     -0.623321    29A     -0.586626    30A     -0.583240
      31A     -0.559092    32A     -0.533697    33A     -0.530267
      34A     -0.520042    35A     -0.491998    36A     -0.477040
      37A     -0.424508    38A     -0.412187    39A     -0.353667
      40A     -0.324106

  @DF-RHF Final Energy:  -512.52316583296647

   => Energetics <=

    Nuclear Repulsion Energy =            591.7089797812149072
    One-Electron Energy =               -1872.3219589635073135
    Two-Electron Energy =                 768.0898133493258229
    Total Energy =                       -512.5231658329664697
  Basis Set: (AUG-CC-PVTZ AUX)
    Blend: AUG-CC-PVTZ-RI
    Molecular point group: c1

    Geometry (in Angstrom), charge = 0, multiplicity = 1:

       Center              X                  Y                   Z               Mass
    ------------   -----------------  -----------------  -----------------  -----------------
         O            0.403765747454     1.744706216180     0.168396942140    15.994914619570
         O           -2.161188252546     0.921444216180    -0.974708057860    15.994914619570
         N           -2.677481252546    -0.437186783820     0.793629942140    14.003074004430
         C           -0.417641252546    -0.446540783820    -0.033946057860    12.000000000000
         C            0.693423747454     0.414915216180     0.051745942140    12.000000000000
         C           -0.217304252546    -1.827272783820    -0.100676057860    12.000000000000
         C            1.986127747454    -0.120156783820     0.057664942140    12.000000000000
         C            1.072963747454    -2.362959783820    -0.102149057860    12.000000000000
         C            2.166929747454    -1.504636783820    -0.026430057860    12.000000000000
         C           -1.807213252546     0.113445216180    -0.120949057860    12.000000000000
         C            1.505395747454     2.648284216180     0.186092942140    12.000000000000
         H           -1.084775252546    -2.479024783820    -0.177439057860     1.007825032230
         H            2.856158747454     0.523664216180     0.127925942140     1.007825032230
         H            1.219452747454    -3.437603783820    -0.168946057860     1.007825032230
         H            3.363488147454    -1.980055583820    -0.027480157860     1.007825032230
         H            2.105696747454     2.558879216180    -0.725385057860     1.007825032230
         H            2.141735747454     2.487606216180     1.063527942140     1.007825032230
         H            1.059245747454     3.640734216180     0.234663942140     1.007825032230
         H           -2.305707252546    -0.823056783820     1.650970942140     1.007825032230
         H           -3.589803252546     0.001182216180     0.847429942140     1.007825032230

  Basis Set: AUG-CC-PVTZ
    Blend: AUG-CC-PVTZ
  Basis Set: (AUG-CC-PVTZ AUX)
    Blend: AUG-CC-PVTZ-JKFIT
	 Reference Energy          =    -512.5231658329664697 [Eh]
	 Singles Energy            =      -0.0000000000000000 [Eh]
	 Same-Spin Energy          =      -0.5361997985527942 [Eh]
	 Opposite-Spin Energy      =      -1.6475153844366905 [Eh]
	 Correlation Energy        =      -2.1837151829894847 [Eh]
	 Total Energy              =    -514.7068810159559007 [Eh]

	 ================> DF-SCS-MP2 Energies <==================
	-----------------------------------------------------------
	 SCS Same-Spin Scale       =       0.3333333333333333 [-]
	 SCS Opposite-Spin Scale   =       1.2000000000000000 [-]
	 SCS Same-Spin Energy      =      -0.1787332661842647 [Eh]
	 SCS Opposite-Spin Energy  =      -1.9770184613240285 [Eh]
	 SCS Correlation Energy    =      -2.1557517275082931 [Eh]
	 SCS Total Energy          =    -514.6789175604748152 [Eh]
	-----------------------------------------------------------

  Dipole Moment: [D]
     X:     1.8946      Y:    -0.8606      Z:     2.9004     Total:     3.5697

*** Psi4 exiting successfully. Buy a developer a beer!
