                               Psi4 1.4a3.dev225

  ==> Input File <==

--------------------------------------------------------------------------
#psi4
#
memory 32 gb

molecule  {
0 1
  O        0.3703410     1.7406370     0.1509160
  O       -2.1946130     0.9173750    -0.9921890
  N       -2.7109060    -0.4412560     0.7761490
  C       -0.4510660    -0.4506100    -0.0514270
  C        0.6599990     0.4108460     0.0342650
  C       -0.2507290    -1.8313420    -0.1181570
  C        1.9527030    -0.1242260     0.0401840
  C        1.0395390    -2.3670290    -0.1196300
  C        2.1335050    -1.5087060    -0.0439110
  C       -1.8406380     0.1093760    -0.1384300
  C        1.4719710     2.6442150     0.1686120
  H       -1.1182000    -2.4830940    -0.1949200
  H        2.8227340     0.5195950     0.1104450
  H        1.1860280    -3.4416730    -0.1864270
  H        3.0977304    -1.8918138    -0.0447572
  H        2.0722720     2.5548100    -0.7428660
  H        2.1083110     2.4835370     1.0460470
  H        1.0258210     3.6366650     0.2171830
  H       -2.3391320    -0.8271260     1.6334900
  H       -3.6232280    -0.0028870     0.8299490
units angstrom
no_reorient  #important for SAPT in psi4, default
symmetry c1  #important for SAPT in psi4, default
}

set PROPERTIES_ORIGIN ["COM"]
properties('MP2/aug-cc-pvtz', properties = ['dipole'])
--------------------------------------------------------------------------

    Molecular point group: c1
  Charge       = 0
  Multiplicity = 1
  Basis Set: AUG-CC-PVTZ
    Blend: AUG-CC-PVTZ
  Basis Set: (AUG-CC-PVTZ AUX)
    Blend: AUG-CC-PVTZ-JKFIT

    Orbital Energies [Eh]
    ---------------------

    Doubly Occupied:

       1A    -20.590156     2A    -20.517300     3A    -15.582712
       4A    -11.354945     5A    -11.317123     6A    -11.287563
       7A    -11.255041     8A    -11.248246     9A    -11.248139
      10A    -11.242294    11A    -11.238007    12A     -1.413721
      13A     -1.369566    14A     -1.207776    15A     -1.157990
      16A     -1.044182    17A     -1.024391    18A     -0.949464
      19A     -0.880095    20A     -0.824144    21A     -0.789971
      22A     -0.736096    23A     -0.711982    24A     -0.682120
      25A     -0.665777    26A     -0.657047    27A     -0.641387
      28A     -0.623634    29A     -0.598962    30A     -0.581984
      31A     -0.558181    32A     -0.545815    33A     -0.530073
      34A     -0.518481    35A     -0.501446    36A     -0.475566
      37A     -0.424052    38A     -0.411530    39A     -0.352108
      40A     -0.322558

  @DF-RHF Final Energy:  -512.54461735808684

   => Energetics <=

    Nuclear Repulsion Energy =            592.9341052038656699
    One-Electron Energy =               -1874.7941925745853951
    Two-Electron Energy =                 769.3154700126327725
    Total Energy =                       -512.5446173580868390
  Basis Set: (AUG-CC-PVTZ AUX)
    Blend: AUG-CC-PVTZ-RI
    Molecular point group: c1

    Geometry (in Angstrom), charge = 0, multiplicity = 1:

       Center              X                  Y                   Z               Mass
    ------------   -----------------  -----------------  -----------------  -----------------
         O            0.405315766346     1.744090359655     0.168395581813    15.994914619570
         O           -2.159638233654     0.920828359655    -0.974709418187    15.994914619570
         N           -2.675931233654    -0.437802640345     0.793628581813    14.003074004430
         C           -0.416091233654    -0.447156640345    -0.033947418187    12.000000000000
         C            0.694973766346     0.414299359655     0.051744581813    12.000000000000
         C           -0.215754233654    -1.827888640345    -0.100677418187    12.000000000000
         C            1.987677766346    -0.120772640345     0.057663581813    12.000000000000
         C            1.074513766346    -2.363575640345    -0.102150418187    12.000000000000
         C            2.168479766346    -1.505252640345    -0.026431418187    12.000000000000
         C           -1.805663233654     0.112829359655    -0.120950418187    12.000000000000
         C            1.506945766346     2.647668359655     0.186091581813    12.000000000000
         H           -1.083225233654    -2.479640640345    -0.177440418187     1.007825032230
         H            2.857708766346     0.523048359655     0.127924581813     1.007825032230
         H            1.221002766346    -3.438219640345    -0.168947418187     1.007825032230
         H            3.132705166346    -1.888360440345    -0.027277618187     1.007825032230
         H            2.107246766346     2.558263359655    -0.725386418187     1.007825032230
         H            2.143285766346     2.486990359655     1.063526581813     1.007825032230
         H            1.060795766346     3.640118359655     0.234662581813     1.007825032230
         H           -2.304157233654    -0.823672640345     1.650969581813     1.007825032230
         H           -3.588253233654     0.000566359655     0.847428581813     1.007825032230

  Basis Set: AUG-CC-PVTZ
    Blend: AUG-CC-PVTZ
  Basis Set: (AUG-CC-PVTZ AUX)
    Blend: AUG-CC-PVTZ-JKFIT
	 Reference Energy          =    -512.5446173580868390 [Eh]
	 Singles Energy            =      -0.0000000000000000 [Eh]
	 Same-Spin Energy          =      -0.5356264201352036 [Eh]
	 Opposite-Spin Energy      =      -1.6449839292540769 [Eh]
	 Correlation Energy        =      -2.1806103493892803 [Eh]
	 Total Energy              =    -514.7252277074761651 [Eh]

	 ================> DF-SCS-MP2 Energies <==================
	-----------------------------------------------------------
	 SCS Same-Spin Scale       =       0.3333333333333333 [-]
	 SCS Opposite-Spin Scale   =       1.2000000000000000 [-]
	 SCS Same-Spin Energy      =      -0.1785421400450679 [Eh]
	 SCS Opposite-Spin Energy  =      -1.9739807151048923 [Eh]
	 SCS Correlation Energy    =      -2.1525228551499600 [Eh]
	 SCS Total Energy          =    -514.6971402132368212 [Eh]
	-----------------------------------------------------------

  Dipole Moment: [D]
     X:     2.0122      Y:    -0.9225      Z:     2.8994     Total:     3.6477

*** Psi4 exiting successfully. Buy a developer a beer!
