                               Psi4 1.4a3.dev225

  ==> Input File <==

--------------------------------------------------------------------------
#psi4
#
memory 32 gb

molecule  {
0 1
  O        0.3703410     1.7406370     0.1509160
  O       -2.1946130     0.9173750    -0.9921890
  N       -2.7109060    -0.4412560     0.7761490
  C       -0.4510660    -0.4506100    -0.0514270
  C        0.6448123     0.4301608     0.0334767
  C       -0.2507290    -1.8313420    -0.1181570
  C        1.9527030    -0.1242260     0.0401840
  C        1.0395390    -2.3670290    -0.1196300
  C        2.1335050    -1.5087060    -0.0439110
  C       -1.8406380     0.1093760    -0.1384300
  C        1.4719710     2.6442150     0.1686120
  H       -1.1182000    -2.4830940    -0.1949200
  H        2.8227340     0.5195950     0.1104450
  H        1.1860280    -3.4416730    -0.1864270
  H        3.1441970    -1.9102760    -0.0447980
  H        2.0722720     2.5548100    -0.7428660
  H        2.1083110     2.4835370     1.0460470
  H        1.0258210     3.6366650     0.2171830
  H       -2.3391320    -0.8271260     1.6334900
  H       -3.6232280    -0.0028870     0.8299490
units angstrom
no_reorient  #important for SAPT in psi4, default
symmetry c1  #important for SAPT in psi4, default
}

set PROPERTIES_ORIGIN ["COM"]
properties('MP2/aug-cc-pvtz', properties = ['dipole'])
--------------------------------------------------------------------------

    Molecular point group: c1
  Charge       = 0
  Multiplicity = 1
  Basis Set: AUG-CC-PVTZ
    Blend: AUG-CC-PVTZ
  Basis Set: (AUG-CC-PVTZ AUX)
    Blend: AUG-CC-PVTZ-JKFIT

    Orbital Energies [Eh]
    ---------------------

    Doubly Occupied:

       1A    -20.593971     2A    -20.516958     3A    -15.582219
       4A    -11.353967     5A    -11.319624     6A    -11.290406
       7A    -11.254730     8A    -11.253234     9A    -11.246693
      10A    -11.243516    11A    -11.236988    12A     -1.424441
      13A     -1.369447    14A     -1.207282    15A     -1.155048
      16A     -1.042589    17A     -1.022414    18A     -0.953111
      19A     -0.875330    20A     -0.824461    21A     -0.788316
      22A     -0.735650    23A     -0.710297    24A     -0.683566
      25A     -0.667577    26A     -0.661019    27A     -0.640012
      28A     -0.621587    29A     -0.596227    30A     -0.583026
      31A     -0.557576    32A     -0.543547    33A     -0.531904
      34A     -0.521176    35A     -0.498637    36A     -0.477016
      37A     -0.423233    38A     -0.411149    39A     -0.351074
      40A     -0.319480

  @DF-RHF Final Energy:  -512.54509272698203

   => Energetics <=

    Nuclear Repulsion Energy =            592.7269991426308025
    One-Electron Energy =               -1874.3671907772704799
    Two-Electron Energy =                 769.0950989076576434
    Total Energy =                       -512.5450927269820340
  Basis Set: (AUG-CC-PVTZ AUX)
    Blend: AUG-CC-PVTZ-RI
    Molecular point group: c1

    Geometry (in Angstrom), charge = 0, multiplicity = 1:

       Center              X                  Y                   Z               Mass
    ------------   -----------------  -----------------  -----------------  -----------------
         O            0.406212146683     1.742679223447     0.168458474107    15.994914619570
         O           -2.158741853317     0.919417223447    -0.974646525893    15.994914619570
         N           -2.675034853317    -0.439213776553     0.793691474107    14.003074004430
         C           -0.415194853317    -0.448567776553    -0.033884525893    12.000000000000
         C            0.680683446683     0.432203023447     0.051019174107    12.000000000000
         C           -0.214857853317    -1.829299776553    -0.100614525893    12.000000000000
         C            1.988574146683    -0.122183776553     0.057726474107    12.000000000000
         C            1.075410146683    -2.364986776553    -0.102087525893    12.000000000000
         C            2.169376146683    -1.506663776553    -0.026368525893    12.000000000000
         C           -1.804766853317     0.111418223447    -0.120887525893    12.000000000000
         C            1.507842146683     2.646257223447     0.186154474107    12.000000000000
         H           -1.082328853317    -2.481051776553    -0.177377525893     1.007825032230
         H            2.858605146683     0.521637223447     0.127987474107     1.007825032230
         H            1.221899146683    -3.439630776553    -0.168884525893     1.007825032230
         H            3.180068146683    -1.908233776553    -0.027255525893     1.007825032230
         H            2.108143146683     2.556852223447    -0.725323525893     1.007825032230
         H            2.144182146683     2.485579223447     1.063589474107     1.007825032230
         H            1.061692146683     3.638707223447     0.234725474107     1.007825032230
         H           -2.303260853317    -0.825083776553     1.651032474107     1.007825032230
         H           -3.587356853317    -0.000844776553     0.847491474107     1.007825032230

  Basis Set: AUG-CC-PVTZ
    Blend: AUG-CC-PVTZ
  Basis Set: (AUG-CC-PVTZ AUX)
    Blend: AUG-CC-PVTZ-JKFIT
	 Reference Energy          =    -512.5450927269820340 [Eh]
	 Singles Energy            =      -0.0000000000000000 [Eh]
	 Same-Spin Energy          =      -0.5357180619096209 [Eh]
	 Opposite-Spin Energy      =      -1.6450306264025196 [Eh]
	 Correlation Energy        =      -2.1807486883121405 [Eh]
	 Total Energy              =    -514.7258414152942123 [Eh]

	 ================> DF-SCS-MP2 Energies <==================
	-----------------------------------------------------------
	 SCS Same-Spin Scale       =       0.3333333333333333 [-]
	 SCS Opposite-Spin Scale   =       1.2000000000000000 [-]
	 SCS Same-Spin Energy      =      -0.1785726873032070 [Eh]
	 SCS Opposite-Spin Energy  =      -1.9740367516830235 [Eh]
	 SCS Correlation Energy    =      -2.1526094389862305 [Eh]
	 SCS Total Energy          =    -514.6977021659682805 [Eh]
	-----------------------------------------------------------

  Dipole Moment: [D]
     X:     2.0047      Y:    -0.7528      Z:     2.9117     Total:     3.6143

*** Psi4 exiting successfully. Buy a developer a beer!
