                               Psi4 1.4a3.dev225

  ==> Input File <==

--------------------------------------------------------------------------
#psi4
#
memory 32 gb

molecule  {
0 1
  O        0.3703410     1.7406370     0.1509160
  O       -2.1946130     0.9173750    -0.9921890
  N       -2.7109060    -0.4412560     0.7761490
  C       -0.4510660    -0.4506100    -0.0514270
  C        0.6599990     0.4108460     0.0342650
  C       -0.2507290    -1.8313420    -0.1181570
  C        1.9527030    -0.1242260     0.0401840
  C        1.0395390    -2.3670290    -0.1196300
  C        2.1335050    -1.5087060    -0.0439110
  C       -1.8406380     0.1093760    -0.1384300
  C        1.4719710     2.6442150     0.1686120
  H       -1.1182000    -2.4830940    -0.1949200
  H        2.8227340     0.5195950     0.1104450
  H        1.1860280    -3.4416730    -0.1864270
  H        3.1441970    -1.9102760    -0.0447980
  H        2.0722720     2.5548100    -0.7428660
  H        2.1083110     2.4835370     1.0460470
  H        1.0258210     3.6366650     0.2171830
  H       -2.3391320    -0.8271260     1.6334900
  H       -3.8032435     0.0836101     0.8405646
units angstrom
no_reorient  #important for SAPT in psi4, default
symmetry c1  #important for SAPT in psi4, default
}

set PROPERTIES_ORIGIN ["COM"]
properties('MP2/aug-cc-pvtz', properties = ['dipole'])
--------------------------------------------------------------------------

    Molecular point group: c1
  Charge       = 0
  Multiplicity = 1
  Basis Set: AUG-CC-PVTZ
    Blend: AUG-CC-PVTZ
  Basis Set: (AUG-CC-PVTZ AUX)
    Blend: AUG-CC-PVTZ-JKFIT

    Orbital Energies [Eh]
    ---------------------

    Doubly Occupied:

       1A    -20.590044     2A    -20.515469     3A    -15.597131
       4A    -11.354043     5A    -11.317287     6A    -11.287401
       7A    -11.255039     8A    -11.253884     9A    -11.248661
      10A    -11.242485    11A    -11.238079    12A     -1.413551
      13A     -1.366605    14A     -1.191603    15A     -1.155523
      16A     -1.040636    17A     -1.024355    18A     -0.948746
      19A     -0.871614    20A     -0.822644    21A     -0.782555
      22A     -0.732387    23A     -0.699603    24A     -0.677083
      25A     -0.658326    26A     -0.644534    27A     -0.632582
      28A     -0.622875    29A     -0.590416    30A     -0.578772
      31A     -0.553892    32A     -0.542281    33A     -0.529388
      34A     -0.517925    35A     -0.499885    36A     -0.475375
      37A     -0.422344    38A     -0.408137    39A     -0.351863
      40A     -0.322479

  @DF-RHF Final Energy:  -512.51572648918841

   => Energetics <=

    Nuclear Repulsion Energy =            591.6293397091235420
    One-Electron Energy =               -1872.3351289235679360
    Two-Electron Energy =                 768.1900627252559843
    Total Energy =                       -512.5157264891884097
  Basis Set: (AUG-CC-PVTZ AUX)
    Blend: AUG-CC-PVTZ-RI
    Molecular point group: c1

    Geometry (in Angstrom), charge = 0, multiplicity = 1:

       Center              X                  Y                   Z               Mass
    ------------   -----------------  -----------------  -----------------  -----------------
         O            0.406206743169     1.743636462102     0.168325031612    15.994914619570
         O           -2.158747256831     0.920374462102    -0.974779968388    15.994914619570
         N           -2.675040256831    -0.438256537898     0.793558031612    14.003074004430
         C           -0.415200256831    -0.447610537898    -0.034017968388    12.000000000000
         C            0.695864743169     0.413845462102     0.051674031612    12.000000000000
         C           -0.214863256831    -1.828342537898    -0.100747968388    12.000000000000
         C            1.988568743169    -0.121226537898     0.057593031612    12.000000000000
         C            1.075404743169    -2.364029537898    -0.102220968388    12.000000000000
         C            2.169370743169    -1.505706537898    -0.026501968388    12.000000000000
         C           -1.804772256831     0.112375462102    -0.121020968388    12.000000000000
         C            1.507836743169     2.647214462102     0.186021031612    12.000000000000
         H           -1.082334256831    -2.480094537898    -0.177510968388     1.007825032230
         H            2.858599743169     0.522594462102     0.127854031612     1.007825032230
         H            1.221893743169    -3.438673537898    -0.169017968388     1.007825032230
         H            3.180062743169    -1.907276537898    -0.027388968388     1.007825032230
         H            2.108137743169     2.557809462102    -0.725456968388     1.007825032230
         H            2.144176743169     2.486536462102     1.063456031612     1.007825032230
         H            1.061686743169     3.639664462102     0.234592031612     1.007825032230
         H           -2.303266256831    -0.824126537898     1.650899031612     1.007825032230
         H           -3.767377756831     0.086609562102     0.857973631612     1.007825032230

  Basis Set: AUG-CC-PVTZ
    Blend: AUG-CC-PVTZ
  Basis Set: (AUG-CC-PVTZ AUX)
    Blend: AUG-CC-PVTZ-JKFIT
	 Reference Energy          =    -512.5157264891884097 [Eh]
	 Singles Energy            =      -0.0000000000000000 [Eh]
	 Same-Spin Energy          =      -0.5370981497871912 [Eh]
	 Opposite-Spin Energy      =      -1.6491927258154893 [Eh]
	 Correlation Energy        =      -2.1862908756026807 [Eh]
	 Total Energy              =    -514.7020173647911179 [Eh]

	 ================> DF-SCS-MP2 Energies <==================
	-----------------------------------------------------------
	 SCS Same-Spin Scale       =       0.3333333333333333 [-]
	 SCS Opposite-Spin Scale   =       1.2000000000000000 [-]
	 SCS Same-Spin Energy      =      -0.1790327165957304 [Eh]
	 SCS Opposite-Spin Energy  =      -1.9790312709785871 [Eh]
	 SCS Correlation Energy    =      -2.1580639875743173 [Eh]
	 SCS Total Energy          =    -514.6737904767627469 [Eh]
	-----------------------------------------------------------

  Dipole Moment: [D]
     X:     1.8449      Y:    -0.8462      Z:     2.9039     Total:     3.5429

*** Psi4 exiting successfully. Buy a developer a beer!
