                               Psi4 1.4a3.dev225

  ==> Input File <==

--------------------------------------------------------------------------
#psi4
#
memory 32 gb

molecule  {
0 1
  O        0.3703410     1.7406370     0.1509160
  O       -2.1946130     0.9173750    -0.9921890
  N       -2.7109060    -0.4412560     0.7761490
  C       -0.4510660    -0.4506100    -0.0514270
  C        0.6599990     0.4108460     0.0342650
  C       -0.2507290    -1.8313420    -0.1181570
  C        1.9527030    -0.1242260     0.0401840
  C        1.0857172    -2.3862010    -0.1196827
  C        2.1335050    -1.5087060    -0.0439110
  C       -1.8406380     0.1093760    -0.1384300
  C        1.4719710     2.6442150     0.1686120
  H       -1.1182000    -2.4830940    -0.1949200
  H        2.8227340     0.5195950     0.1104450
  H        1.1860280    -3.4416730    -0.1864270
  H        3.1441970    -1.9102760    -0.0447980
  H        2.0722720     2.5548100    -0.7428660
  H        2.1083110     2.4835370     1.0460470
  H        1.0258210     3.6366650     0.2171830
  H       -2.3391320    -0.8271260     1.6334900
  H       -3.6232280    -0.0028870     0.8299490
units angstrom
no_reorient  #important for SAPT in psi4, default
symmetry c1  #important for SAPT in psi4, default
}

set PROPERTIES_ORIGIN ["COM"]
properties('MP2/aug-cc-pvtz', properties = ['dipole'])
--------------------------------------------------------------------------

    Molecular point group: c1
  Charge       = 0
  Multiplicity = 1
  Basis Set: AUG-CC-PVTZ
    Blend: AUG-CC-PVTZ
  Basis Set: (AUG-CC-PVTZ AUX)
    Blend: AUG-CC-PVTZ-JKFIT

    Orbital Energies [Eh]
    ---------------------

    Doubly Occupied:

       1A    -20.590798     2A    -20.517957     3A    -15.583263
       4A    -11.355739     5A    -11.317869     6A    -11.287615
       7A    -11.261085     8A    -11.250891     9A    -11.249735
      10A    -11.241403    11A    -11.238860    12A     -1.414184
      13A     -1.370230    14A     -1.208241    15A     -1.155647
      16A     -1.045531    17A     -1.020125    18A     -0.950506
      19A     -0.874821    20A     -0.826536    21A     -0.789955
      22A     -0.735830    23A     -0.708848    24A     -0.683433
      25A     -0.665483    26A     -0.657326    27A     -0.640802
      28A     -0.622716    29A     -0.595582    30A     -0.582605
      31A     -0.560275    32A     -0.538782    33A     -0.530323
      34A     -0.523556    35A     -0.499392    36A     -0.474466
      37A     -0.424200    38A     -0.411960    39A     -0.352076
      40A     -0.322413

  @DF-RHF Final Energy:  -512.54249972728439

   => Energetics <=

    Nuclear Repulsion Energy =            592.0535529034041247
    One-Electron Energy =               -1873.0299851449096877
    Two-Electron Energy =                 768.4339325142211692
    Total Energy =                       -512.5424997272843939
  Basis Set: (AUG-CC-PVTZ AUX)
    Blend: AUG-CC-PVTZ-RI
    Molecular point group: c1

    Geometry (in Angstrom), charge = 0, multiplicity = 1:

       Center              X                  Y                   Z               Mass
    ------------   -----------------  -----------------  -----------------  -----------------
         O            0.401337510283     1.745736494887     0.168400040336    15.994914619570
         O           -2.163616489717     0.922474494887    -0.974704959664    15.994914619570
         N           -2.679909489717    -0.436156505113     0.793633040336    14.003074004430
         C           -0.420069489717    -0.445510505113    -0.033942959664    12.000000000000
         C            0.690995510283     0.415945494887     0.051749040336    12.000000000000
         C           -0.219732489717    -1.826242505113    -0.100672959664    12.000000000000
         C            1.983699510283    -0.119126505113     0.057668040336    12.000000000000
         C            1.116713710283    -2.381101505113    -0.102198659664    12.000000000000
         C            2.164501510283    -1.503606505113    -0.026426959664    12.000000000000
         C           -1.809641489717     0.114475494887    -0.120945959664    12.000000000000
         C            1.502967510283     2.649314494887     0.186096040336    12.000000000000
         H           -1.087203489717    -2.477994505113    -0.177435959664     1.007825032230
         H            2.853730510283     0.524694494887     0.127929040336     1.007825032230
         H            1.217024510283    -3.436573505113    -0.168942959664     1.007825032230
         H            3.175193510283    -1.905176505113    -0.027313959664     1.007825032230
         H            2.103268510283     2.559909494887    -0.725381959664     1.007825032230
         H            2.139307510283     2.488636494887     1.063531040336     1.007825032230
         H            1.056817510283     3.641764494887     0.234667040336     1.007825032230
         H           -2.308135489717    -0.822026505113     1.650974040336     1.007825032230
         H           -3.592231489717     0.002212494887     0.847433040336     1.007825032230

  Basis Set: AUG-CC-PVTZ
    Blend: AUG-CC-PVTZ
  Basis Set: (AUG-CC-PVTZ AUX)
    Blend: AUG-CC-PVTZ-JKFIT
	 Reference Energy          =    -512.5424997272843939 [Eh]
	 Singles Energy            =      -0.0000000000000000 [Eh]
	 Same-Spin Energy          =      -0.5354794731789908 [Eh]
	 Opposite-Spin Energy      =      -1.6454338441027612 [Eh]
	 Correlation Energy        =      -2.1809133172817519 [Eh]
	 Total Energy              =    -514.7234130445662004 [Eh]

	 ================> DF-SCS-MP2 Energies <==================
	-----------------------------------------------------------
	 SCS Same-Spin Scale       =       0.3333333333333333 [-]
	 SCS Opposite-Spin Scale   =       1.2000000000000000 [-]
	 SCS Same-Spin Energy      =      -0.1784931577263303 [Eh]
	 SCS Opposite-Spin Energy  =      -1.9745206129233133 [Eh]
	 SCS Correlation Energy    =      -2.1530137706496437 [Eh]
	 SCS Total Energy          =    -514.6955134979340301 [Eh]
	-----------------------------------------------------------

  Dipole Moment: [D]
     X:     1.9555      Y:    -0.9163      Z:     2.8982     Total:     3.6143

*** Psi4 exiting successfully. Buy a developer a beer!
