                               Psi4 1.4a3.dev225

  ==> Input File <==

--------------------------------------------------------------------------
#psi4
#
memory 32 gb

molecule  {
0 1
  O        0.3703410     1.7406370     0.1509160
  O       -2.1946130     0.9173750    -0.9921890
  N       -2.7109060    -0.4412560     0.7761490
  C       -0.4510660    -0.4506100    -0.0514270
  C        0.6599990     0.4108460     0.0342650
  C       -0.2794144    -1.6336406    -0.1086022
  C        1.9527030    -0.1242260     0.0401840
  C        1.0395390    -2.3670290    -0.1196300
  C        2.1335050    -1.5087060    -0.0439110
  C       -1.8406380     0.1093760    -0.1384300
  C        1.4719710     2.6442150     0.1686120
  H       -1.1182000    -2.4830940    -0.1949200
  H        2.8227340     0.5195950     0.1104450
  H        1.1860280    -3.4416730    -0.1864270
  H        3.1441970    -1.9102760    -0.0447980
  H        2.0722720     2.5548100    -0.7428660
  H        2.1083110     2.4835370     1.0460470
  H        1.0258210     3.6366650     0.2171830
  H       -2.3391320    -0.8271260     1.6334900
  H       -3.6232280    -0.0028870     0.8299490
units angstrom
no_reorient  #important for SAPT in psi4, default
symmetry c1  #important for SAPT in psi4, default
}

set PROPERTIES_ORIGIN ["COM"]
properties('MP2/aug-cc-pvtz', properties = ['dipole'])
--------------------------------------------------------------------------

    Molecular point group: c1
  Charge       = 0
  Multiplicity = 1
  Basis Set: AUG-CC-PVTZ
    Blend: AUG-CC-PVTZ
  Basis Set: (AUG-CC-PVTZ AUX)
    Blend: AUG-CC-PVTZ-JKFIT

    Orbital Energies [Eh]
    ---------------------

    Doubly Occupied:

       1A    -20.593233     2A    -20.520607     3A    -15.584601
       4A    -11.357802     5A    -11.319378     6A    -11.287876
       7A    -11.249790     8A    -11.248602     9A    -11.243865
      10A    -11.236144    11A    -11.229466    12A     -1.415962
      13A     -1.373025    14A     -1.213700    15A     -1.175424
      16A     -1.064820    17A     -1.011758    18A     -0.950493
      19A     -0.868531    20A     -0.829059    21A     -0.794083
      22A     -0.738635    23A     -0.707911    24A     -0.684580
      25A     -0.670123    26A     -0.658614    27A     -0.639077
      28A     -0.607450    29A     -0.600724    30A     -0.588646
      31A     -0.561702    32A     -0.544656    33A     -0.532531
      34A     -0.514961    35A     -0.483843    36A     -0.477896
      37A     -0.423418    38A     -0.409452    39A     -0.381582
      40A     -0.310629

  @DF-RHF Final Energy:  -512.48473561577180

   => Energetics <=

    Nuclear Repulsion Energy =            596.2330574700059742
    One-Electron Energy =               -1881.2262887196550309
    Two-Electron Energy =                 772.5084956338771462
    Total Energy =                       -512.4847356157717968
  Basis Set: (AUG-CC-PVTZ AUX)
    Blend: AUG-CC-PVTZ-RI
    Molecular point group: c1

    Geometry (in Angstrom), charge = 0, multiplicity = 1:

       Center              X                  Y                   Z               Mass
    ------------   -----------------  -----------------  -----------------  -----------------
         O            0.407284441340     1.728508747920     0.167636850479    15.994914619570
         O           -2.157669558660     0.905246747920    -0.975468149521    15.994914619570
         N           -2.673962558660    -0.453384252080     0.792869850479    14.003074004430
         C           -0.414122558660    -0.462738252080    -0.034706149521    12.000000000000
         C            0.696942441340     0.398717747920     0.050985850479    12.000000000000
         C           -0.242470958660    -1.645768852080    -0.091881349521    12.000000000000
         C            1.989646441340    -0.136354252080     0.056904850479    12.000000000000
         C            1.076482441340    -2.379157252080    -0.102909149521    12.000000000000
         C            2.170448441340    -1.520834252080    -0.027190149521    12.000000000000
         C           -1.803694558660     0.097247747920    -0.121709149521    12.000000000000
         C            1.508914441340     2.632086747920     0.185332850479    12.000000000000
         H           -1.081256558660    -2.495222252080    -0.178199149521     1.007825032230
         H            2.859677441340     0.507466747920     0.127165850479     1.007825032230
         H            1.222971441340    -3.453801252080    -0.169706149521     1.007825032230
         H            3.181140441340    -1.922404252080    -0.028077149521     1.007825032230
         H            2.109215441340     2.542681747920    -0.726145149521     1.007825032230
         H            2.145254441340     2.471408747920     1.062767850479     1.007825032230
         H            1.062764441340     3.624536747920     0.233903850479     1.007825032230
         H           -2.302188558660    -0.839254252080     1.650210850479     1.007825032230
         H           -3.586284558660    -0.015015252080     0.846669850479     1.007825032230

  Basis Set: AUG-CC-PVTZ
    Blend: AUG-CC-PVTZ
  Basis Set: (AUG-CC-PVTZ AUX)
    Blend: AUG-CC-PVTZ-JKFIT
	 Reference Energy          =    -512.4847356157717968 [Eh]
	 Singles Energy            =      -0.0000000000000000 [Eh]
	 Same-Spin Energy          =      -0.5348061471677057 [Eh]
	 Opposite-Spin Energy      =      -1.6466286829226524 [Eh]
	 Correlation Energy        =      -2.1814348300903581 [Eh]
	 Total Energy              =    -514.6661704458621216 [Eh]

	 ================> DF-SCS-MP2 Energies <==================
	-----------------------------------------------------------
	 SCS Same-Spin Scale       =       0.3333333333333333 [-]
	 SCS Opposite-Spin Scale   =       1.2000000000000000 [-]
	 SCS Same-Spin Energy      =      -0.1782687157225686 [Eh]
	 SCS Opposite-Spin Energy  =      -1.9759544195071828 [Eh]
	 SCS Correlation Energy    =      -2.1542231352297514 [Eh]
	 SCS Total Energy          =    -514.6389587510014962 [Eh]
	-----------------------------------------------------------

  Dipole Moment: [D]
     X:     1.8532      Y:    -0.8371      Z:     2.9158     Total:     3.5549

*** Psi4 exiting successfully. Buy a developer a beer!
