                               Psi4 1.4a3.dev225

  ==> Input File <==

--------------------------------------------------------------------------
#psi4
#
memory 32 gb

molecule  {
0 1
  O        0.3703410     1.7406370     0.1509160
  O       -2.1946130     0.9173750    -0.9921890
  N       -2.7109060    -0.4412560     0.7761490
  C       -0.4510660    -0.4506100    -0.0514270
  C        0.6599990     0.4108460     0.0342650
  C       -0.2435576    -1.8807674    -0.1205457
  C        1.9527030    -0.1242260     0.0401840
  C        1.0395390    -2.3670290    -0.1196300
  C        2.1335050    -1.5087060    -0.0439110
  C       -1.8406380     0.1093760    -0.1384300
  C        1.4719710     2.6442150     0.1686120
  H       -1.1182000    -2.4830940    -0.1949200
  H        2.8227340     0.5195950     0.1104450
  H        1.1860280    -3.4416730    -0.1864270
  H        3.1441970    -1.9102760    -0.0447980
  H        2.0722720     2.5548100    -0.7428660
  H        2.1083110     2.4835370     1.0460470
  H        1.0258210     3.6366650     0.2171830
  H       -2.3391320    -0.8271260     1.6334900
  H       -3.6232280    -0.0028870     0.8299490
units angstrom
no_reorient  #important for SAPT in psi4, default
symmetry c1  #important for SAPT in psi4, default
}

set PROPERTIES_ORIGIN ["COM"]
properties('MP2/aug-cc-pvtz', properties = ['dipole'])
--------------------------------------------------------------------------

    Molecular point group: c1
  Charge       = 0
  Multiplicity = 1
  Basis Set: AUG-CC-PVTZ
    Blend: AUG-CC-PVTZ
  Basis Set: (AUG-CC-PVTZ AUX)
    Blend: AUG-CC-PVTZ-JKFIT

    Orbital Energies [Eh]
    ---------------------

    Doubly Occupied:

       1A    -20.589739     2A    -20.516632     3A    -15.582326
       4A    -11.354382     5A    -11.316991     6A    -11.287667
       7A    -11.255950     8A    -11.255215     9A    -11.251217
      10A    -11.244631    11A    -11.237139    12A     -1.413472
      13A     -1.368873    14A     -1.206944    15A     -1.155910
      16A     -1.038615    17A     -1.028161    18A     -0.948621
      19A     -0.879707    20A     -0.824216    21A     -0.787125
      22A     -0.734876    23A     -0.710026    24A     -0.681393
      25A     -0.664605    26A     -0.656767    27A     -0.641915
      28A     -0.625124    29A     -0.596478    30A     -0.580180
      31A     -0.558737    32A     -0.545889    33A     -0.530072
      34A     -0.514288    35A     -0.501529    36A     -0.476067
      37A     -0.423310    38A     -0.411390    39A     -0.348124
      40A     -0.324866

  @DF-RHF Final Energy:  -512.54187788681315

   => Energetics <=

    Nuclear Repulsion Energy =            591.8812869672393617
    One-Electron Energy =               -1872.7079943306655423
    Two-Electron Energy =                 768.2848294766129129
    Total Energy =                       -512.5418778868131540
  Basis Set: (AUG-CC-PVTZ AUX)
    Blend: AUG-CC-PVTZ-RI
    Molecular point group: c1

    Geometry (in Angstrom), charge = 0, multiplicity = 1:

       Center              X                  Y                   Z               Mass
    ------------   -----------------  -----------------  -----------------  -----------------
         O            0.404436088903     1.748139730692     0.168585604895    15.994914619570
         O           -2.160517911097     0.924877730692    -0.974519395105    15.994914619570
         N           -2.676810911097    -0.433753269308     0.793818604895    14.003074004430
         C           -0.416970911097    -0.443107269308    -0.033757395105    12.000000000000
         C            0.694094088903     0.418348730692     0.051934604895    12.000000000000
         C           -0.209462511097    -1.873264669308    -0.102876095105    12.000000000000
         C            1.986798088903    -0.116723269308     0.057853604895    12.000000000000
         C            1.073634088903    -2.359526269308    -0.101960395105    12.000000000000
         C            2.167600088903    -1.501203269308    -0.026241395105    12.000000000000
         C           -1.806542911097     0.116878730692    -0.120760395105    12.000000000000
         C            1.506066088903     2.651717730692     0.186281604895    12.000000000000
         H           -1.084104911097    -2.475591269308    -0.177250395105     1.007825032230
         H            2.856829088903     0.527097730692     0.128114604895     1.007825032230
         H            1.220123088903    -3.434170269308    -0.168757395105     1.007825032230
         H            3.178292088903    -1.902773269308    -0.027128395105     1.007825032230
         H            2.106367088903     2.562312730692    -0.725196395105     1.007825032230
         H            2.142406088903     2.491039730692     1.063716604895     1.007825032230
         H            1.059916088903     3.644167730692     0.234852604895     1.007825032230
         H           -2.305036911097    -0.819623269308     1.651159604895     1.007825032230
         H           -3.589132911097     0.004615730692     0.847618604895     1.007825032230

  Basis Set: AUG-CC-PVTZ
    Blend: AUG-CC-PVTZ
  Basis Set: (AUG-CC-PVTZ AUX)
    Blend: AUG-CC-PVTZ-JKFIT
	 Reference Energy          =    -512.5418778868131540 [Eh]
	 Singles Energy            =      -0.0000000000000000 [Eh]
	 Same-Spin Energy          =      -0.5358313432074298 [Eh]
	 Opposite-Spin Energy      =      -1.6456330889608013 [Eh]
	 Correlation Energy        =      -2.1814644321682310 [Eh]
	 Total Energy              =    -514.7233423189813948 [Eh]

	 ================> DF-SCS-MP2 Energies <==================
	-----------------------------------------------------------
	 SCS Same-Spin Scale       =       0.3333333333333333 [-]
	 SCS Opposite-Spin Scale   =       1.2000000000000000 [-]
	 SCS Same-Spin Energy      =      -0.1786104477358099 [Eh]
	 SCS Opposite-Spin Energy  =      -1.9747597067529614 [Eh]
	 SCS Correlation Energy    =      -2.1533701544887713 [Eh]
	 SCS Total Energy          =    -514.6952480413019657 [Eh]
	-----------------------------------------------------------

  Dipole Moment: [D]
     X:     2.0308      Y:    -0.9277      Z:     2.8960     Total:     3.6567

*** Psi4 exiting successfully. Buy a developer a beer!
