                               Psi4 1.4a3.dev225

  ==> Input File <==

--------------------------------------------------------------------------
#psi4
#
memory 32 gb

molecule  {
0 1
  O        0.3703410     1.7406370     0.1509160
  O       -2.1946130     0.9173750    -0.9921890
  N       -2.7109060    -0.4412560     0.7761490
  C       -0.4510660    -0.4506100    -0.0514270
  C        0.6599990     0.4108460     0.0342650
  C       -0.2507290    -1.8313420    -0.1181570
  C        1.9527030    -0.1242260     0.0401840
  C        1.0580103    -2.3746978    -0.1196511
  C        2.1335050    -1.5087060    -0.0439110
  C       -1.8406380     0.1093760    -0.1384300
  C        1.4719710     2.6442150     0.1686120
  H       -1.1182000    -2.4830940    -0.1949200
  H        2.8227340     0.5195950     0.1104450
  H        1.1860280    -3.4416730    -0.1864270
  H        3.1441970    -1.9102760    -0.0447980
  H        2.0722720     2.5548100    -0.7428660
  H        2.1083110     2.4835370     1.0460470
  H        1.0258210     3.6366650     0.2171830
  H       -2.3391320    -0.8271260     1.6334900
  H       -3.6232280    -0.0028870     0.8299490
units angstrom
no_reorient  #important for SAPT in psi4, default
symmetry c1  #important for SAPT in psi4, default
}

set PROPERTIES_ORIGIN ["COM"]
properties('MP2/aug-cc-pvtz', properties = ['dipole'])
--------------------------------------------------------------------------

    Molecular point group: c1
  Charge       = 0
  Multiplicity = 1
  Basis Set: AUG-CC-PVTZ
    Blend: AUG-CC-PVTZ
  Basis Set: (AUG-CC-PVTZ AUX)
    Blend: AUG-CC-PVTZ-JKFIT

    Orbital Energies [Eh]
    ---------------------

    Doubly Occupied:

       1A    -20.590526     2A    -20.517631     3A    -15.582997
       4A    -11.355336     5A    -11.317584     6A    -11.287642
       7A    -11.257750     8A    -11.252799     9A    -11.248882
      10A    -11.242182    11A    -11.238607    12A     -1.414010
      13A     -1.369900    14A     -1.208026    15A     -1.156926
      16A     -1.043860    17A     -1.022784    18A     -0.949889
      19A     -0.876251    20A     -0.825223    21A     -0.789555
      22A     -0.735639    23A     -0.708915    24A     -0.682278
      25A     -0.665748    26A     -0.657211    27A     -0.639883
      28A     -0.623267    29A     -0.596105    30A     -0.582319
      31A     -0.558951    32A     -0.541627    33A     -0.530337
      34A     -0.520999    35A     -0.500240    36A     -0.475207
      37A     -0.424172    38A     -0.411768    39A     -0.351999
      40A     -0.322751

  @DF-RHF Final Energy:  -512.54492299904746

   => Energetics <=

    Nuclear Repulsion Energy =            592.4145034306233129
    One-Electron Energy =               -1873.7633055733954279
    Two-Electron Energy =                 768.8038791437245436
    Total Energy =                       -512.5449229990474578
  Basis Set: (AUG-CC-PVTZ AUX)
    Blend: AUG-CC-PVTZ-RI
    Molecular point group: c1

    Geometry (in Angstrom), charge = 0, multiplicity = 1:

       Center              X                  Y                   Z               Mass
    ------------   -----------------  -----------------  -----------------  -----------------
         O            0.403538460065     1.744822716531     0.168397530130    15.994914619570
         O           -2.161415539935     0.921560716531    -0.974707469870    15.994914619570
         N           -2.677708539935    -0.437070283469     0.793630530130    14.003074004430
         C           -0.417868539935    -0.446424283469    -0.033945469870    12.000000000000
         C            0.693196460065     0.415031716531     0.051746530130    12.000000000000
         C           -0.217531539935    -1.827156283469    -0.100675469870    12.000000000000
         C            1.985900460065    -0.120040283469     0.057665530130    12.000000000000
         C            1.091207760065    -2.370512083469    -0.102169569870    12.000000000000
         C            2.166702460065    -1.504520283469    -0.026429469870    12.000000000000
         C           -1.807440539935     0.113561716531    -0.120948469870    12.000000000000
         C            1.505168460065     2.648400716531     0.186093530130    12.000000000000
         H           -1.085002539935    -2.478908283469    -0.177438469870     1.007825032230
         H            2.855931460065     0.523780716531     0.127926530130     1.007825032230
         H            1.219225460065    -3.437487283469    -0.168945469870     1.007825032230
         H            3.177394460065    -1.906090283469    -0.027316469870     1.007825032230
         H            2.105469460065     2.558995716531    -0.725384469870     1.007825032230
         H            2.141508460065     2.487722716531     1.063528530130     1.007825032230
         H            1.059018460065     3.640850716531     0.234664530130     1.007825032230
         H           -2.305934539935    -0.822940283469     1.650971530130     1.007825032230
         H           -3.590030539935     0.001298716531     0.847430530130     1.007825032230

  Basis Set: AUG-CC-PVTZ
    Blend: AUG-CC-PVTZ
  Basis Set: (AUG-CC-PVTZ AUX)
    Blend: AUG-CC-PVTZ-JKFIT
	 Reference Energy          =    -512.5449229990474578 [Eh]
	 Singles Energy            =      -0.0000000000000000 [Eh]
	 Same-Spin Energy          =      -0.5356243969906292 [Eh]
	 Opposite-Spin Energy      =      -1.6453159823996222 [Eh]
	 Correlation Energy        =      -2.1809403793902513 [Eh]
	 Total Energy              =    -514.7258633784376798 [Eh]

	 ================> DF-SCS-MP2 Energies <==================
	-----------------------------------------------------------
	 SCS Same-Spin Scale       =       0.3333333333333333 [-]
	 SCS Opposite-Spin Scale   =       1.2000000000000000 [-]
	 SCS Same-Spin Energy      =      -0.1785414656635431 [Eh]
	 SCS Opposite-Spin Energy  =      -1.9743791788795466 [Eh]
	 SCS Correlation Energy    =      -2.1529206445430895 [Eh]
	 SCS Total Energy          =    -514.6978436435905451 [Eh]
	-----------------------------------------------------------

  Dipole Moment: [D]
     X:     1.9804      Y:    -0.9153      Z:     2.8989     Total:     3.6282

*** Psi4 exiting successfully. Buy a developer a beer!
