                               Psi4 1.4a3.dev225

  ==> Input File <==

--------------------------------------------------------------------------
#psi4
#
memory 32 gb

molecule  {
0 1
  O        0.3703410     1.7406370     0.1509160
  O       -2.1946130     0.9173750    -0.9921890
  N       -2.7109060    -0.4412560     0.7761490
  C       -0.4510660    -0.4506100    -0.0514270
  C        0.6599990     0.4108460     0.0342650
  C       -0.2507290    -1.8313420    -0.1181570
  C        2.1374966    -0.2007152     0.0410301
  C        1.0395390    -2.3670290    -0.1196300
  C        2.1335050    -1.5087060    -0.0439110
  C       -1.8406380     0.1093760    -0.1384300
  C        1.4719710     2.6442150     0.1686120
  H       -1.1182000    -2.4830940    -0.1949200
  H        2.8227340     0.5195950     0.1104450
  H        1.1860280    -3.4416730    -0.1864270
  H        3.1441970    -1.9102760    -0.0447980
  H        2.0722720     2.5548100    -0.7428660
  H        2.1083110     2.4835370     1.0460470
  H        1.0258210     3.6366650     0.2171830
  H       -2.3391320    -0.8271260     1.6334900
  H       -3.6232280    -0.0028870     0.8299490
units angstrom
no_reorient  #important for SAPT in psi4, default
symmetry c1  #important for SAPT in psi4, default
}

set PROPERTIES_ORIGIN ["COM"]
properties('MP2/aug-cc-pvtz', properties = ['dipole'])
--------------------------------------------------------------------------

    Molecular point group: c1
  Charge       = 0
  Multiplicity = 1
  Basis Set: AUG-CC-PVTZ
    Blend: AUG-CC-PVTZ
  Basis Set: (AUG-CC-PVTZ AUX)
    Blend: AUG-CC-PVTZ-JKFIT

    Orbital Energies [Eh]
    ---------------------

    Doubly Occupied:

       1A    -20.598057     2A    -20.516189     3A    -15.581925
       4A    -11.353676     5A    -11.335350     6A    -11.292472
       7A    -11.256354     8A    -11.249077     9A    -11.244520
      10A    -11.242640    11A    -11.234971    12A     -1.417542
      13A     -1.368619    14A     -1.206882    15A     -1.152775
      16A     -1.055917    17A     -1.013408    18A     -0.951357
      19A     -0.865191    20A     -0.835066    21A     -0.788338
      22A     -0.735515    23A     -0.705498    24A     -0.688362
      25A     -0.672186    26A     -0.660809    27A     -0.643485
      28A     -0.619873    29A     -0.596733    30A     -0.591678
      31A     -0.558058    32A     -0.542131    33A     -0.533747
      34A     -0.523812    35A     -0.482066    36A     -0.475511
      37A     -0.420246    38A     -0.410546    39A     -0.366596
      40A     -0.306231

  @DF-RHF Final Energy:  -512.50425817621976

   => Energetics <=

    Nuclear Repulsion Energy =            589.7055201872821044
    One-Electron Energy =               -1868.2327375637344176
    Two-Electron Energy =                 766.0229592002326626
    Total Energy =                       -512.5042581762197642
  Basis Set: (AUG-CC-PVTZ AUX)
    Blend: AUG-CC-PVTZ-RI
    Molecular point group: c1

    Geometry (in Angstrom), charge = 0, multiplicity = 1:

       Center              X                  Y                   Z               Mass
    ------------   -----------------  -----------------  -----------------  -----------------
         O            0.390326334930     1.750289594615     0.168328642465    15.994914619570
         O           -2.174627665070     0.927027594615    -0.974776357535    15.994914619570
         N           -2.690920665070    -0.431603405385     0.793561642465    14.003074004430
         C           -0.431080665070    -0.440957405385    -0.034014357535    12.000000000000
         C            0.679984334930     0.420498594615     0.051677642465    12.000000000000
         C           -0.230743665070    -1.821689405385    -0.100744357535    12.000000000000
         C            2.157481934930    -0.191062605385     0.058442742465    12.000000000000
         C            1.059524334930    -2.357376405385    -0.102217357535    12.000000000000
         C            2.153490334930    -1.499053405385    -0.026498357535    12.000000000000
         C           -1.820652665070     0.119028594615    -0.121017357535    12.000000000000
         C            1.491956334930     2.653867594615     0.186024642465    12.000000000000
         H           -1.098214665070    -2.473441405385    -0.177507357535     1.007825032230
         H            2.842719334930     0.529247594615     0.127857642465     1.007825032230
         H            1.206013334930    -3.432020405385    -0.169014357535     1.007825032230
         H            3.164182334930    -1.900623405385    -0.027385357535     1.007825032230
         H            2.092257334930     2.564462594615    -0.725453357535     1.007825032230
         H            2.128296334930     2.493189594615     1.063459642465     1.007825032230
         H            1.045806334930     3.646317594615     0.234595642465     1.007825032230
         H           -2.319146665070    -0.817473405385     1.650902642465     1.007825032230
         H           -3.603242665070     0.006765594615     0.847361642465     1.007825032230

  Basis Set: AUG-CC-PVTZ
    Blend: AUG-CC-PVTZ
  Basis Set: (AUG-CC-PVTZ AUX)
    Blend: AUG-CC-PVTZ-JKFIT
	 Reference Energy          =    -512.5042581762197642 [Eh]
	 Singles Energy            =      -0.0000000000000000 [Eh]
	 Same-Spin Energy          =      -0.5353042844376790 [Eh]
	 Opposite-Spin Energy      =      -1.6471330542335612 [Eh]
	 Correlation Energy        =      -2.1824373386712401 [Eh]
	 Total Energy              =    -514.6866955148909710 [Eh]

	 ================> DF-SCS-MP2 Energies <==================
	-----------------------------------------------------------
	 SCS Same-Spin Scale       =       0.3333333333333333 [-]
	 SCS Opposite-Spin Scale   =       1.2000000000000000 [-]
	 SCS Same-Spin Energy      =      -0.1784347614792263 [Eh]
	 SCS Opposite-Spin Energy  =      -1.9765596650802733 [Eh]
	 SCS Correlation Energy    =      -2.1549944265594996 [Eh]
	 SCS Total Energy          =    -514.6592526027792474 [Eh]
	-----------------------------------------------------------

  Dipole Moment: [D]
     X:     2.0225      Y:    -0.6496      Z:     2.9196     Total:     3.6106

*** Psi4 exiting successfully. Buy a developer a beer!
