                               Psi4 1.4a3.dev225

  ==> Input File <==

--------------------------------------------------------------------------
#psi4
#
memory 32 gb

molecule  {
0 1
  O        0.3703410     1.7406370     0.1509160
  O       -2.1946130     0.9173750    -0.9921890
  N       -2.7109060    -0.4412560     0.7761490
  C       -0.4510660    -0.4506100    -0.0514270
  C        0.6599990     0.4108460     0.0342650
  C       -0.2507290    -1.8313420    -0.1181570
  C        1.9527030    -0.1242260     0.0401840
  C        1.0395390    -2.3670290    -0.1196300
  C        2.0707607    -1.4345603    -0.0402746
  C       -1.8406380     0.1093760    -0.1384300
  C        1.4719710     2.6442150     0.1686120
  H       -1.1182000    -2.4830940    -0.1949200
  H        2.8227340     0.5195950     0.1104450
  H        1.1860280    -3.4416730    -0.1864270
  H        3.1441970    -1.9102760    -0.0447980
  H        2.0722720     2.5548100    -0.7428660
  H        2.1083110     2.4835370     1.0460470
  H        1.0258210     3.6366650     0.2171830
  H       -2.3391320    -0.8271260     1.6334900
  H       -3.6232280    -0.0028870     0.8299490
units angstrom
no_reorient  #important for SAPT in psi4, default
symmetry c1  #important for SAPT in psi4, default
}

set PROPERTIES_ORIGIN ["COM"]
properties('MP2/aug-cc-pvtz', properties = ['dipole'])
--------------------------------------------------------------------------

    Molecular point group: c1
  Charge       = 0
  Multiplicity = 1
  Basis Set: AUG-CC-PVTZ
    Blend: AUG-CC-PVTZ
  Basis Set: (AUG-CC-PVTZ AUX)
    Blend: AUG-CC-PVTZ-JKFIT

    Orbital Energies [Eh]
    ---------------------

    Doubly Occupied:

       1A    -20.591652     2A    -20.516531     3A    -15.582103
       4A    -11.354194     5A    -11.319136     6A    -11.289020
       7A    -11.254450     8A    -11.252112     9A    -11.245148
      10A    -11.236925    11A    -11.235629    12A     -1.415257
      13A     -1.368901    14A     -1.207356    15A     -1.167335
      16A     -1.048881    17A     -1.027727    18A     -0.950685
      19A     -0.871369    20A     -0.828509    21A     -0.790083
      22A     -0.736100    23A     -0.705018    24A     -0.683300
      25A     -0.668286    26A     -0.658809    27A     -0.636428
      28A     -0.623956    29A     -0.589366    30A     -0.588096
      31A     -0.559797    32A     -0.542289    33A     -0.531674
      34A     -0.524349    35A     -0.487083    36A     -0.479746
      37A     -0.422897    38A     -0.411025    39A     -0.361661
      40A     -0.320149

  @DF-RHF Final Energy:  -512.53372755601606

   => Energetics <=

    Nuclear Repulsion Energy =            594.5858877532380120
    One-Electron Energy =               -1878.0731604286620495
    Two-Electron Energy =                 770.9535451194079769
    Total Energy =                       -512.5337275560160606
  Basis Set: (AUG-CC-PVTZ AUX)
    Blend: AUG-CC-PVTZ-RI
    Molecular point group: c1

    Geometry (in Angstrom), charge = 0, multiplicity = 1:

       Center              X                  Y                   Z               Mass
    ------------   -----------------  -----------------  -----------------  -----------------
         O            0.409989974205     1.738323627642     0.168106989729    15.994914619570
         O           -2.154964025795     0.915061627642    -0.974998010271    15.994914619570
         N           -2.671257025795    -0.443569372358     0.793339989729    14.003074004430
         C           -0.411417025795    -0.452923372358    -0.034236010271    12.000000000000
         C            0.699647974205     0.408532627642     0.051455989729    12.000000000000
         C           -0.211080025795    -1.833655372358    -0.100966010271    12.000000000000
         C            1.992351974205    -0.126539372358     0.057374989729    12.000000000000
         C            1.079187974205    -2.369342372358    -0.102439010271    12.000000000000
         C            2.110409674205    -1.436873672358    -0.023083610271    12.000000000000
         C           -1.800989025795     0.107062627642    -0.121239010271    12.000000000000
         C            1.511619974205     2.641901627642     0.185802989729    12.000000000000
         H           -1.078551025795    -2.485407372358    -0.177729010271     1.007825032230
         H            2.862382974205     0.517281627642     0.127635989729     1.007825032230
         H            1.225676974205    -3.443986372358    -0.169236010271     1.007825032230
         H            3.183845974205    -1.912589372358    -0.027607010271     1.007825032230
         H            2.111920974205     2.552496627642    -0.725675010271     1.007825032230
         H            2.147959974205     2.481223627642     1.063237989729     1.007825032230
         H            1.065469974205     3.634351627642     0.234373989729     1.007825032230
         H           -2.299483025795    -0.829439372358     1.650680989729     1.007825032230
         H           -3.583579025795    -0.005200372358     0.847139989729     1.007825032230

  Basis Set: AUG-CC-PVTZ
    Blend: AUG-CC-PVTZ
  Basis Set: (AUG-CC-PVTZ AUX)
    Blend: AUG-CC-PVTZ-JKFIT
	 Reference Energy          =    -512.5337275560160606 [Eh]
	 Singles Energy            =      -0.0000000000000000 [Eh]
	 Same-Spin Energy          =      -0.5358633803538757 [Eh]
	 Opposite-Spin Energy      =      -1.6453508685212506 [Eh]
	 Correlation Energy        =      -2.1812142488751265 [Eh]
	 Total Energy              =    -514.7149418048911684 [Eh]

	 ================> DF-SCS-MP2 Energies <==================
	-----------------------------------------------------------
	 SCS Same-Spin Scale       =       0.3333333333333333 [-]
	 SCS Opposite-Spin Scale   =       1.2000000000000000 [-]
	 SCS Same-Spin Energy      =      -0.1786211267846252 [Eh]
	 SCS Opposite-Spin Energy  =      -1.9744210422255006 [Eh]
	 SCS Correlation Energy    =      -2.1530421690101260 [Eh]
	 SCS Total Energy          =    -514.6867697250262381 [Eh]
	-----------------------------------------------------------

  Dipole Moment: [D]
     X:     1.9857      Y:    -0.8555      Z:     2.9030     Total:     3.6197

*** Psi4 exiting successfully. Buy a developer a beer!
