                               Psi4 1.4a3.dev225

  ==> Input File <==

--------------------------------------------------------------------------
#psi4
#
memory 32 gb

molecule  {
0 1
  O        0.3703410     1.7406370     0.1509160
  O       -2.1946130     0.9173750    -0.9921890
  N       -2.7109060    -0.4412560     0.7761490
  C       -0.4510660    -0.4506100    -0.0514270
  C        0.6599990     0.4108460     0.0342650
  C       -0.2507290    -1.8313420    -0.1181570
  C        1.9527030    -0.1242260     0.0401840
  C        1.0395390    -2.3670290    -0.1196300
  C        2.1335050    -1.5087060    -0.0439110
  C       -1.9332337     0.1466913    -0.1442275
  C        1.4719710     2.6442150     0.1686120
  H       -1.1182000    -2.4830940    -0.1949200
  H        2.8227340     0.5195950     0.1104450
  H        1.1860280    -3.4416730    -0.1864270
  H        3.1441970    -1.9102760    -0.0447980
  H        2.0722720     2.5548100    -0.7428660
  H        2.1083110     2.4835370     1.0460470
  H        1.0258210     3.6366650     0.2171830
  H       -2.3391320    -0.8271260     1.6334900
  H       -3.6232280    -0.0028870     0.8299490
units angstrom
no_reorient  #important for SAPT in psi4, default
symmetry c1  #important for SAPT in psi4, default
}

set PROPERTIES_ORIGIN ["COM"]
properties('MP2/aug-cc-pvtz', properties = ['dipole'])
--------------------------------------------------------------------------

    Molecular point group: c1
  Charge       = 0
  Multiplicity = 1
  Basis Set: AUG-CC-PVTZ
    Blend: AUG-CC-PVTZ
  Basis Set: (AUG-CC-PVTZ AUX)
    Blend: AUG-CC-PVTZ-JKFIT

    Orbital Energies [Eh]
    ---------------------

    Doubly Occupied:

       1A    -20.586017     2A    -20.525014     3A    -15.588363
       4A    -11.354413     5A    -11.309459     6A    -11.284953
       7A    -11.247315     8A    -11.246950     9A    -11.243387
      10A    -11.237579    11A    -11.233173    12A     -1.413117
      13A     -1.403607    14A     -1.229754    15A     -1.150596
      16A     -1.029580    17A     -1.018651    18A     -0.944155
      19A     -0.860894    20A     -0.817925    21A     -0.794389
      22A     -0.743576    23A     -0.708340    24A     -0.677350
      25A     -0.662407    26A     -0.653918    27A     -0.644173
      28A     -0.622314    29A     -0.598277    30A     -0.579781
      31A     -0.574132    32A     -0.541930    33A     -0.526623
      34A     -0.515835    35A     -0.498020    36A     -0.471433
      37A     -0.430743    38A     -0.412228    39A     -0.345767
      40A     -0.316643

  @DF-RHF Final Energy:  -512.53885028473519

   => Energetics <=

    Nuclear Repulsion Energy =            592.1158420122501411
    One-Electron Energy =               -1873.2238220248393645
    Two-Electron Energy =                 768.5691297278540333
    Total Energy =                       -512.5388502847351901
  Basis Set: (AUG-CC-PVTZ AUX)
    Blend: AUG-CC-PVTZ-RI
    Molecular point group: c1

    Geometry (in Angstrom), charge = 0, multiplicity = 1:

       Center              X                  Y                   Z               Mass
    ------------   -----------------  -----------------  -----------------  -----------------
         O            0.412361276383     1.741249319829     0.168856389343    15.994914619570
         O           -2.152592723617     0.917987319829    -0.974248610657    15.994914619570
         N           -2.668885723617    -0.440643680171     0.794089389343    14.003074004430
         C           -0.409045723617    -0.449997680171    -0.033486610657    12.000000000000
         C            0.702019276383     0.411458319829     0.052205389343    12.000000000000
         C           -0.208708723617    -1.830729680171    -0.100216610657    12.000000000000
         C            1.994723276383    -0.123613680171     0.058124389343    12.000000000000
         C            1.081559276383    -2.366416680171    -0.101689610657    12.000000000000
         C            2.175525276383    -1.508093680171    -0.025970610657    12.000000000000
         C           -1.891213423617     0.147303619829    -0.126287110657    12.000000000000
         C            1.513991276383     2.644827319829     0.186552389343    12.000000000000
         H           -1.076179723617    -2.482481680171    -0.176979610657     1.007825032230
         H            2.864754276383     0.520207319829     0.128385389343     1.007825032230
         H            1.228048276383    -3.441060680171    -0.168486610657     1.007825032230
         H            3.186217276383    -1.909663680171    -0.026857610657     1.007825032230
         H            2.114292276383     2.555422319829    -0.724925610657     1.007825032230
         H            2.150331276383     2.484149319829     1.063987389343     1.007825032230
         H            1.067841276383     3.637277319829     0.235123389343     1.007825032230
         H           -2.297111723617    -0.826513680171     1.651430389343     1.007825032230
         H           -3.581207723617    -0.002274680171     0.847889389343     1.007825032230

  Basis Set: AUG-CC-PVTZ
    Blend: AUG-CC-PVTZ
  Basis Set: (AUG-CC-PVTZ AUX)
    Blend: AUG-CC-PVTZ-JKFIT
	 Reference Energy          =    -512.5388502847351901 [Eh]
	 Singles Energy            =      -0.0000000000000000 [Eh]
	 Same-Spin Energy          =      -0.5345711931836383 [Eh]
	 Opposite-Spin Energy      =      -1.6425666249285600 [Eh]
	 Correlation Energy        =      -2.1771378181121985 [Eh]
	 Total Energy              =    -514.7159881028474047 [Eh]

	 ================> DF-SCS-MP2 Energies <==================
	-----------------------------------------------------------
	 SCS Same-Spin Scale       =       0.3333333333333333 [-]
	 SCS Opposite-Spin Scale   =       1.2000000000000000 [-]
	 SCS Same-Spin Energy      =      -0.1781903977278794 [Eh]
	 SCS Opposite-Spin Energy  =      -1.9710799499142719 [Eh]
	 SCS Correlation Energy    =      -2.1492703476421515 [Eh]
	 SCS Total Energy          =    -514.6881206323773768 [Eh]
	-----------------------------------------------------------

  Dipole Moment: [D]
     X:     1.2738      Y:    -0.7070      Z:     2.8898     Total:     3.2363

*** Psi4 exiting successfully. Buy a developer a beer!
