                               Psi4 1.4a3.dev225

  ==> Input File <==

--------------------------------------------------------------------------
#psi4
#
memory 32 gb

molecule  {
0 1
  O        0.3703410     1.7406370     0.1509160
  O       -2.1946130     0.9173750    -0.9921890
  N       -2.7109060    -0.4412560     0.7761490
  C       -0.4510660    -0.4506100    -0.0514270
  C        0.6599990     0.4108460     0.0342650
  C       -0.2507290    -1.8313420    -0.1181570
  C        1.9527030    -0.1242260     0.0401840
  C        1.0395390    -2.3670290    -0.1196300
  C        2.1092835    -1.5115945    -0.0448897
  C       -1.8406380     0.1093760    -0.1384300
  C        1.4719710     2.6442150     0.1686120
  H       -1.1182000    -2.4830940    -0.1949200
  H        2.8227340     0.5195950     0.1104450
  H        1.1860280    -3.4416730    -0.1864270
  H        3.1441970    -1.9102760    -0.0447980
  H        2.0722720     2.5548100    -0.7428660
  H        2.1083110     2.4835370     1.0460470
  H        1.0258210     3.6366650     0.2171830
  H       -2.3391320    -0.8271260     1.6334900
  H       -3.6232280    -0.0028870     0.8299490
units angstrom
no_reorient  #important for SAPT in psi4, default
symmetry c1  #important for SAPT in psi4, default
}

set PROPERTIES_ORIGIN ["COM"]
properties('MP2/aug-cc-pvtz', properties = ['dipole'])
--------------------------------------------------------------------------

    Molecular point group: c1
  Charge       = 0
  Multiplicity = 1
  Basis Set: AUG-CC-PVTZ
    Blend: AUG-CC-PVTZ
  Basis Set: (AUG-CC-PVTZ AUX)
    Blend: AUG-CC-PVTZ-JKFIT

    Orbital Energies [Eh]
    ---------------------

    Doubly Occupied:

       1A    -20.590243     2A    -20.517388     3A    -15.582813
       4A    -11.355088     5A    -11.317244     6A    -11.287699
       7A    -11.255669     8A    -11.253245     9A    -11.248232
      10A    -11.242159    11A    -11.236103    12A     -1.413840
      13A     -1.369672    14A     -1.207916    15A     -1.160045
      16A     -1.043357    17A     -1.025667    18A     -0.950217
      19A     -0.876059    20A     -0.825170    21A     -0.788930
      22A     -0.735628    23A     -0.707388    24A     -0.682081
      25A     -0.666272    26A     -0.657184    27A     -0.639238
      28A     -0.623654    29A     -0.594936    30A     -0.583183
      31A     -0.558821    32A     -0.540538    33A     -0.531124
      34A     -0.520410    35A     -0.499130    36A     -0.477166
      37A     -0.424005    38A     -0.411639    39A     -0.351928
      40A     -0.324561

  @DF-RHF Final Energy:  -512.54490010851214

   => Energetics <=

    Nuclear Repulsion Energy =            593.0775683938944667
    One-Electron Energy =               -1875.0936542323879621
    Two-Electron Energy =                 769.4711857299812436
    Total Energy =                       -512.5449001085121381
  Basis Set: (AUG-CC-PVTZ AUX)
    Blend: AUG-CC-PVTZ-RI
    Molecular point group: c1

    Geometry (in Angstrom), charge = 0, multiplicity = 1:

       Center              X                  Y                   Z               Mass
    ------------   -----------------  -----------------  -----------------  -----------------
         O            0.406929843037     1.744442984398     0.168473598890    15.994914619570
         O           -2.158024156963     0.921180984398    -0.974631401110    15.994914619570
         N           -2.674317156963    -0.437450015602     0.793706598890    14.003074004430
         C           -0.414477156963    -0.446804015602    -0.033869401110    12.000000000000
         C            0.696587843037     0.414651984398     0.051822598890    12.000000000000
         C           -0.214140156963    -1.827536015602    -0.100599401110    12.000000000000
         C            1.989291843037    -0.120420015602     0.057741598890    12.000000000000
         C            1.076127843037    -2.363223015602    -0.102072401110    12.000000000000
         C            2.145872343037    -1.507788515602    -0.027332101110    12.000000000000
         C           -1.804049156963     0.113181984398    -0.120872401110    12.000000000000
         C            1.508559843037     2.648020984398     0.186169598890    12.000000000000
         H           -1.081611156963    -2.479288015602    -0.177362401110     1.007825032230
         H            2.859322843037     0.523400984398     0.128002598890     1.007825032230
         H            1.222616843037    -3.437867015602    -0.168869401110     1.007825032230
         H            3.180785843037    -1.906470015602    -0.027240401110     1.007825032230
         H            2.108860843037     2.558615984398    -0.725308401110     1.007825032230
         H            2.144899843037     2.487342984398     1.063604598890     1.007825032230
         H            1.062409843037     3.640470984398     0.234740598890     1.007825032230
         H           -2.302543156963    -0.823320015602     1.651047598890     1.007825032230
         H           -3.586639156963     0.000918984398     0.847506598890     1.007825032230

  Basis Set: AUG-CC-PVTZ
    Blend: AUG-CC-PVTZ
  Basis Set: (AUG-CC-PVTZ AUX)
    Blend: AUG-CC-PVTZ-JKFIT
	 Reference Energy          =    -512.5449001085121381 [Eh]
	 Singles Energy            =      -0.0000000000000000 [Eh]
	 Same-Spin Energy          =      -0.5356665461359114 [Eh]
	 Opposite-Spin Energy      =      -1.6451604322128723 [Eh]
	 Correlation Energy        =      -2.1808269783487839 [Eh]
	 Total Energy              =    -514.7257270868609567 [Eh]

	 ================> DF-SCS-MP2 Energies <==================
	-----------------------------------------------------------
	 SCS Same-Spin Scale       =       0.3333333333333333 [-]
	 SCS Opposite-Spin Scale   =       1.2000000000000000 [-]
	 SCS Same-Spin Energy      =      -0.1785555153786371 [Eh]
	 SCS Opposite-Spin Energy  =      -1.9741925186554468 [Eh]
	 SCS Correlation Energy    =      -2.1527480340340839 [Eh]
	 SCS Total Energy          =    -514.6976481425461998 [Eh]
	-----------------------------------------------------------

  Dipole Moment: [D]
     X:     1.9825      Y:    -0.9119      Z:     2.8995     Total:     3.6290

*** Psi4 exiting successfully. Buy a developer a beer!
