                               Psi4 1.4a3.dev225

  ==> Input File <==

--------------------------------------------------------------------------
#psi4
#
memory 32 gb

molecule  {
0 1
  O        0.3703410     1.7406370     0.1509160
  O       -2.1946130     0.9173750    -0.9921890
  N       -2.7109060    -0.4412560     0.7761490
  C       -0.4510660    -0.4506100    -0.0514270
  C        0.6557579     0.4303164     0.0359730
  C       -0.2507290    -1.8313420    -0.1181570
  C        1.9527030    -0.1242260     0.0401840
  C        1.0395390    -2.3670290    -0.1196300
  C        2.1335050    -1.5087060    -0.0439110
  C       -1.8406380     0.1093760    -0.1384300
  C        1.4719710     2.6442150     0.1686120
  H       -1.1182000    -2.4830940    -0.1949200
  H        2.8227340     0.5195950     0.1104450
  H        1.1860280    -3.4416730    -0.1864270
  H        3.1441970    -1.9102760    -0.0447980
  H        2.0722720     2.5548100    -0.7428660
  H        2.1083110     2.4835370     1.0460470
  H        1.0258210     3.6366650     0.2171830
  H       -2.3391320    -0.8271260     1.6334900
  H       -3.6232280    -0.0028870     0.8299490
units angstrom
no_reorient  #important for SAPT in psi4, default
symmetry c1  #important for SAPT in psi4, default
}

set PROPERTIES_ORIGIN ["COM"]
properties('MP2/aug-cc-pvtz', properties = ['dipole'])
--------------------------------------------------------------------------

    Molecular point group: c1
  Charge       = 0
  Multiplicity = 1
  Basis Set: AUG-CC-PVTZ
    Blend: AUG-CC-PVTZ
  Basis Set: (AUG-CC-PVTZ AUX)
    Blend: AUG-CC-PVTZ-JKFIT

    Orbital Energies [Eh]
    ---------------------

    Doubly Occupied:

       1A    -20.594075     2A    -20.516946     3A    -15.582253
       4A    -11.354115     5A    -11.319370     6A    -11.289999
       7A    -11.254674     8A    -11.253428     9A    -11.247697
      10A    -11.242624    11A    -11.237120    12A     -1.423889
      13A     -1.369417    14A     -1.207272    15A     -1.155143
      16A     -1.041689    17A     -1.023434    18A     -0.952874
      19A     -0.876071    20A     -0.823255    21A     -0.788618
      22A     -0.735551    23A     -0.710628    24A     -0.683087
      25A     -0.667616    26A     -0.660896    27A     -0.639782
      28A     -0.621987    29A     -0.595758    30A     -0.582802
      31A     -0.557602    32A     -0.543735    33A     -0.531667
      34A     -0.520633    35A     -0.499162    36A     -0.477007
      37A     -0.423421    38A     -0.411157    39A     -0.351324
      40A     -0.319716

  @DF-RHF Final Energy:  -512.54520312175111

   => Energetics <=

    Nuclear Repulsion Energy =            592.6651364663115373
    One-Electron Energy =               -1874.2456962000696876
    Two-Electron Energy =                 769.0353566120069218
    Total Energy =                       -512.5452031217511148
  Basis Set: (AUG-CC-PVTZ AUX)
    Blend: AUG-CC-PVTZ-RI
    Molecular point group: c1

    Geometry (in Angstrom), charge = 0, multiplicity = 1:

       Center              X                  Y                   Z               Mass
    ------------   -----------------  -----------------  -----------------  -----------------
         O            0.405342662334     1.742666863068     0.168260175815    15.994914619570
         O           -2.159611337666     0.919404863068    -0.974844824185    15.994914619570
         N           -2.675904337666    -0.439226136932     0.793493175815    14.003074004430
         C           -0.416064337666    -0.448580136932    -0.034082824185    12.000000000000
         C            0.690759562334     0.432346263068     0.053317175815    12.000000000000
         C           -0.215727337666    -1.829312136932    -0.100812824185    12.000000000000
         C            1.987704662334    -0.122196136932     0.057528175815    12.000000000000
         C            1.074540662334    -2.364999136932    -0.102285824185    12.000000000000
         C            2.168506662334    -1.506676136932    -0.026566824185    12.000000000000
         C           -1.805636337666     0.111405863068    -0.121085824185    12.000000000000
         C            1.506972662334     2.646244863068     0.185956175815    12.000000000000
         H           -1.083198337666    -2.481064136932    -0.177575824185     1.007825032230
         H            2.857735662334     0.521624863068     0.127789175815     1.007825032230
         H            1.221029662334    -3.439643136932    -0.169082824185     1.007825032230
         H            3.179198662334    -1.908246136932    -0.027453824185     1.007825032230
         H            2.107273662334     2.556839863068    -0.725521824185     1.007825032230
         H            2.143312662334     2.485566863068     1.063391175815     1.007825032230
         H            1.060822662334     3.638694863068     0.234527175815     1.007825032230
         H           -2.304130337666    -0.825096136932     1.650834175815     1.007825032230
         H           -3.588226337666    -0.000857136932     0.847293175815     1.007825032230

  Basis Set: AUG-CC-PVTZ
    Blend: AUG-CC-PVTZ
  Basis Set: (AUG-CC-PVTZ AUX)
    Blend: AUG-CC-PVTZ-JKFIT
	 Reference Energy          =    -512.5452031217511148 [Eh]
	 Singles Energy            =      -0.0000000000000000 [Eh]
	 Same-Spin Energy          =      -0.5357315375347050 [Eh]
	 Opposite-Spin Energy      =      -1.6451149540939058 [Eh]
	 Correlation Energy        =      -2.1808464916286110 [Eh]
	 Total Energy              =    -514.7260496133797005 [Eh]

	 ================> DF-SCS-MP2 Energies <==================
	-----------------------------------------------------------
	 SCS Same-Spin Scale       =       0.3333333333333333 [-]
	 SCS Opposite-Spin Scale   =       1.2000000000000000 [-]
	 SCS Same-Spin Energy      =      -0.1785771791782350 [Eh]
	 SCS Opposite-Spin Energy  =      -1.9741379449126870 [Eh]
	 SCS Correlation Energy    =      -2.1527151240909221 [Eh]
	 SCS Total Energy          =    -514.6979182458420610 [Eh]
	-----------------------------------------------------------

  Dipole Moment: [D]
     X:     2.0053      Y:    -0.7661      Z:     2.9120     Total:     3.6178

*** Psi4 exiting successfully. Buy a developer a beer!
