                               Psi4 1.4a3.dev225

  ==> Input File <==

--------------------------------------------------------------------------
#psi4
#
memory 32 gb

molecule  {
0 1
  O        0.3703410     1.7406370     0.1509160
  O       -2.1946130     0.9173750    -0.9921890
  N       -2.7109060    -0.4412560     0.7761490
  C       -0.4510660    -0.4506100    -0.0514270
  C        0.6493963     0.4595220     0.0385349
  C       -0.2507290    -1.8313420    -0.1181570
  C        1.9527030    -0.1242260     0.0401840
  C        1.0395390    -2.3670290    -0.1196300
  C        2.1335050    -1.5087060    -0.0439110
  C       -1.8406380     0.1093760    -0.1384300
  C        1.4719710     2.6442150     0.1686120
  H       -1.1182000    -2.4830940    -0.1949200
  H        2.8227340     0.5195950     0.1104450
  H        1.1860280    -3.4416730    -0.1864270
  H        3.1441970    -1.9102760    -0.0447980
  H        2.0722720     2.5548100    -0.7428660
  H        2.1083110     2.4835370     1.0460470
  H        1.0258210     3.6366650     0.2171830
  H       -2.3391320    -0.8271260     1.6334900
  H       -3.6232280    -0.0028870     0.8299490
units angstrom
no_reorient  #important for SAPT in psi4, default
symmetry c1  #important for SAPT in psi4, default
}

set PROPERTIES_ORIGIN ["COM"]
properties('MP2/aug-cc-pvtz', properties = ['dipole'])
--------------------------------------------------------------------------

    Molecular point group: c1
  Charge       = 0
  Multiplicity = 1
  Basis Set: AUG-CC-PVTZ
    Blend: AUG-CC-PVTZ
  Basis Set: (AUG-CC-PVTZ AUX)
    Blend: AUG-CC-PVTZ-JKFIT

    Orbital Energies [Eh]
    ---------------------

    Doubly Occupied:

       1A    -20.599891     2A    -20.516245     3A    -15.581396
       4A    -11.352691     5A    -11.322499     6A    -11.293663
       7A    -11.253652     8A    -11.252409     9A    -11.246742
      10A    -11.242396    11A    -11.235007    12A     -1.440014
      13A     -1.368946    14A     -1.206350    15A     -1.151080
      16A     -1.040384    17A     -1.021695    18A     -0.957735
      19A     -0.874369    20A     -0.821828    21A     -0.787754
      22A     -0.736181    23A     -0.713299    24A     -0.685223
      25A     -0.671678    26A     -0.665622    27A     -0.640134
      28A     -0.619881    29A     -0.594408    30A     -0.583426
      31A     -0.556608    32A     -0.544400    33A     -0.534583
      34A     -0.523707    35A     -0.495931    36A     -0.478153
      37A     -0.422286    38A     -0.410417    39A     -0.349854
      40A     -0.314938

  @DF-RHF Final Energy:  -512.54295482893872

   => Energetics <=

    Nuclear Repulsion Energy =            592.6878954244529041
    One-Electron Energy =               -1874.2467549857747144
    Two-Electron Energy =                 769.0159047323829782
    Total Energy =                       -512.5429548289387185
  Basis Set: (AUG-CC-PVTZ AUX)
    Blend: AUG-CC-PVTZ-RI
    Molecular point group: c1

    Geometry (in Angstrom), charge = 0, multiplicity = 1:

       Center              X                  Y                   Z               Mass
    ------------   -----------------  -----------------  -----------------  -----------------
         O            0.405848008010     1.740346861229     0.168056666464    15.994914619570
         O           -2.159105991990     0.917084861229    -0.975048333536    15.994914619570
         N           -2.675398991990    -0.441546138771     0.793289666464    14.003074004430
         C           -0.415558991990    -0.450900138771    -0.034286333536    12.000000000000
         C            0.684903308010     0.459231861229     0.055675566464    12.000000000000
         C           -0.215221991990    -1.831632138771    -0.101016333536    12.000000000000
         C            1.988210008010    -0.124516138771     0.057324666464    12.000000000000
         C            1.075046008010    -2.367319138771    -0.102489333536    12.000000000000
         C            2.169012008010    -1.508996138771    -0.026770333536    12.000000000000
         C           -1.805130991990     0.109085861229    -0.121289333536    12.000000000000
         C            1.507478008010     2.643924861229     0.185752666464    12.000000000000
         H           -1.082692991990    -2.483384138771    -0.177779333536     1.007825032230
         H            2.858241008010     0.519304861229     0.127585666464     1.007825032230
         H            1.221535008010    -3.441963138771    -0.169286333536     1.007825032230
         H            3.179704008010    -1.910566138771    -0.027657333536     1.007825032230
         H            2.107779008010     2.554519861229    -0.725725333536     1.007825032230
         H            2.143818008010     2.483246861229     1.063187666464     1.007825032230
         H            1.061328008010     3.636374861229     0.234323666464     1.007825032230
         H           -2.303624991990    -0.827416138771     1.650630666464     1.007825032230
         H           -3.587720991990    -0.003177138771     0.847089666464     1.007825032230

  Basis Set: AUG-CC-PVTZ
    Blend: AUG-CC-PVTZ
  Basis Set: (AUG-CC-PVTZ AUX)
    Blend: AUG-CC-PVTZ-JKFIT
	 Reference Energy          =    -512.5429548289387185 [Eh]
	 Singles Energy            =      -0.0000000000000000 [Eh]
	 Same-Spin Energy          =      -0.5358143565209793 [Eh]
	 Opposite-Spin Energy      =      -1.6449406755295923 [Eh]
	 Correlation Energy        =      -2.1807550320505715 [Eh]
	 Total Energy              =    -514.7237098609892882 [Eh]

	 ================> DF-SCS-MP2 Energies <==================
	-----------------------------------------------------------
	 SCS Same-Spin Scale       =       0.3333333333333333 [-]
	 SCS Opposite-Spin Scale   =       1.2000000000000000 [-]
	 SCS Same-Spin Energy      =      -0.1786047855069931 [Eh]
	 SCS Opposite-Spin Energy  =      -1.9739288106355106 [Eh]
	 SCS Correlation Energy    =      -2.1525335961425038 [Eh]
	 SCS Total Energy          =    -514.6954884250811801 [Eh]
	-----------------------------------------------------------

  Dipole Moment: [D]
     X:     2.0177      Y:    -0.5350      Z:     2.9315     Total:     3.5988

*** Psi4 exiting successfully. Buy a developer a beer!
