                               Psi4 1.4a3.dev225

  ==> Input File <==

--------------------------------------------------------------------------
#psi4
#
memory 32 gb

molecule  {
0 1
  O        0.3703410     1.7406370     0.1509160
  O       -2.1946130     0.9173750    -0.9921890
  N       -2.7109060    -0.4412560     0.7761490
  C       -0.4510660    -0.4506100    -0.0514270
  C        0.6599990     0.4108460     0.0342650
  C       -0.2989087    -1.8372514    -0.1227179
  C        1.9527030    -0.1242260     0.0401840
  C        1.0395390    -2.3670290    -0.1196300
  C        2.1335050    -1.5087060    -0.0439110
  C       -1.8406380     0.1093760    -0.1384300
  C        1.4719710     2.6442150     0.1686120
  H       -1.1182000    -2.4830940    -0.1949200
  H        2.8227340     0.5195950     0.1104450
  H        1.1860280    -3.4416730    -0.1864270
  H        3.1441970    -1.9102760    -0.0447980
  H        2.0722720     2.5548100    -0.7428660
  H        2.1083110     2.4835370     1.0460470
  H        1.0258210     3.6366650     0.2171830
  H       -2.3391320    -0.8271260     1.6334900
  H       -3.6232280    -0.0028870     0.8299490
units angstrom
no_reorient  #important for SAPT in psi4, default
symmetry c1  #important for SAPT in psi4, default
}

set PROPERTIES_ORIGIN ["COM"]
properties('MP2/aug-cc-pvtz', properties = ['dipole'])
--------------------------------------------------------------------------

    Molecular point group: c1
  Charge       = 0
  Multiplicity = 1
  Basis Set: AUG-CC-PVTZ
    Blend: AUG-CC-PVTZ
  Basis Set: (AUG-CC-PVTZ AUX)
    Blend: AUG-CC-PVTZ-JKFIT

    Orbital Energies [Eh]
    ---------------------

    Doubly Occupied:

       1A    -20.590588     2A    -20.516894     3A    -15.582719
       4A    -11.354130     5A    -11.317680     6A    -11.287824
       7A    -11.257067     8A    -11.253512     9A    -11.250115
      10A    -11.243033    11A    -11.242890    12A     -1.414039
      13A     -1.369366    14A     -1.207921    15A     -1.154136
      16A     -1.043892    17A     -1.021541    18A     -0.948876
      19A     -0.875997    20A     -0.828952    21A     -0.787327
      22A     -0.735606    23A     -0.710275    24A     -0.680382
      25A     -0.665609    26A     -0.657128    27A     -0.637912
      28A     -0.630661    29A     -0.596812    30A     -0.582134
      31A     -0.558814    32A     -0.538896    33A     -0.531087
      34A     -0.521548    35A     -0.501547    36A     -0.473339
      37A     -0.422920    38A     -0.411309    39A     -0.352880
      40A     -0.320235

  @DF-RHF Final Energy:  -512.54182158223330

   => Energetics <=

    Nuclear Repulsion Energy =            592.1820646933870194
    One-Electron Energy =               -1873.2925818911260194
    Two-Electron Energy =                 768.5686956155057032
    Total Energy =                       -512.5418215822332968
  Basis Set: (AUG-CC-PVTZ AUX)
    Blend: AUG-CC-PVTZ-RI
    Molecular point group: c1

    Geometry (in Angstrom), charge = 0, multiplicity = 1:

       Center              X                  Y                   Z               Mass
    ------------   -----------------  -----------------  -----------------  -----------------
         O            0.408833007774     1.744682955278     0.168758157693    15.994914619570
         O           -2.156120992226     0.921420955278    -0.974346842307    15.994914619570
         N           -2.672413992226    -0.437210044722     0.793991157693    14.003074004430
         C           -0.412573992226    -0.446564044722    -0.033584842307    12.000000000000
         C            0.698491007774     0.414891955278     0.052107157693    12.000000000000
         C           -0.260416692226    -1.833205444722    -0.104875742307    12.000000000000
         C            1.991195007774    -0.120180044722     0.058026157693    12.000000000000
         C            1.078031007774    -2.362983044722    -0.101787842307    12.000000000000
         C            2.171997007774    -1.504660044722    -0.026068842307    12.000000000000
         C           -1.802145992226     0.113421955278    -0.120587842307    12.000000000000
         C            1.510463007774     2.648260955278     0.186454157693    12.000000000000
         H           -1.079707992226    -2.479048044722    -0.177077842307     1.007825032230
         H            2.861226007774     0.523640955278     0.128287157693     1.007825032230
         H            1.224520007774    -3.437627044722    -0.168584842307     1.007825032230
         H            3.182689007774    -1.906230044722    -0.026955842307     1.007825032230
         H            2.110764007774     2.558855955278    -0.725023842307     1.007825032230
         H            2.146803007774     2.487582955278     1.063889157693     1.007825032230
         H            1.064313007774     3.640710955278     0.235025157693     1.007825032230
         H           -2.300639992226    -0.823080044722     1.651332157693     1.007825032230
         H           -3.584735992226     0.001158955278     0.847791157693     1.007825032230

  Basis Set: AUG-CC-PVTZ
    Blend: AUG-CC-PVTZ
  Basis Set: (AUG-CC-PVTZ AUX)
    Blend: AUG-CC-PVTZ-JKFIT
	 Reference Energy          =    -512.5418215822332968 [Eh]
	 Singles Energy            =      -0.0000000000000000 [Eh]
	 Same-Spin Energy          =      -0.5356830265171120 [Eh]
	 Opposite-Spin Energy      =      -1.6456559111595985 [Eh]
	 Correlation Energy        =      -2.1813389376767107 [Eh]
	 Total Energy              =    -514.7231605199100386 [Eh]

	 ================> DF-SCS-MP2 Energies <==================
	-----------------------------------------------------------
	 SCS Same-Spin Scale       =       0.3333333333333333 [-]
	 SCS Opposite-Spin Scale   =       1.2000000000000000 [-]
	 SCS Same-Spin Energy      =      -0.1785610088390373 [Eh]
	 SCS Opposite-Spin Energy  =      -1.9747870933915181 [Eh]
	 SCS Correlation Energy    =      -2.1533481022305554 [Eh]
	 SCS Total Energy          =    -514.6951696844638491 [Eh]
	-----------------------------------------------------------

  Dipole Moment: [D]
     X:     1.9940      Y:    -0.9152      Z:     2.9002     Total:     3.6366

*** Psi4 exiting successfully. Buy a developer a beer!
