                               Psi4 1.4a3.dev225

  ==> Input File <==

--------------------------------------------------------------------------
#psi4
#
memory 32 gb

molecule  {
0 1
  O        0.3703410     1.7406370     0.1509160
  O       -2.1946130     0.9173750    -0.9921890
  N       -2.7109060    -0.4412560     0.7761490
  C       -0.4510660    -0.4506100    -0.0514270
  C        0.6599990     0.4108460     0.0342650
  C       -0.2507290    -1.8313420    -0.1181570
  C        1.9065046    -0.1051037     0.0399725
  C        1.0395390    -2.3670290    -0.1196300
  C        2.1335050    -1.5087060    -0.0439110
  C       -1.8406380     0.1093760    -0.1384300
  C        1.4719710     2.6442150     0.1686120
  H       -1.1182000    -2.4830940    -0.1949200
  H        2.8227340     0.5195950     0.1104450
  H        1.1860280    -3.4416730    -0.1864270
  H        3.1441970    -1.9102760    -0.0447980
  H        2.0722720     2.5548100    -0.7428660
  H        2.1083110     2.4835370     1.0460470
  H        1.0258210     3.6366650     0.2171830
  H       -2.3391320    -0.8271260     1.6334900
  H       -3.6232280    -0.0028870     0.8299490
units angstrom
no_reorient  #important for SAPT in psi4, default
symmetry c1  #important for SAPT in psi4, default
}

set PROPERTIES_ORIGIN ["COM"]
properties('MP2/aug-cc-pvtz', properties = ['dipole'])
--------------------------------------------------------------------------

    Molecular point group: c1
  Charge       = 0
  Multiplicity = 1
  Basis Set: AUG-CC-PVTZ
    Blend: AUG-CC-PVTZ
  Basis Set: (AUG-CC-PVTZ AUX)
    Blend: AUG-CC-PVTZ-JKFIT

    Orbital Energies [Eh]
    ---------------------

    Doubly Occupied:

       1A    -20.587714     2A    -20.517573     3A    -15.582939
       4A    -11.355265     5A    -11.310282     6A    -11.286120
       7A    -11.256908     8A    -11.255381     9A    -11.249612
      10A    -11.240951    11A    -11.239515    12A     -1.412600
      13A     -1.369796    14A     -1.208051    15A     -1.160191
      16A     -1.039779    17A     -1.029715    18A     -0.948948
      19A     -0.880496    20A     -0.820799    21A     -0.790408
      22A     -0.735475    23A     -0.709933    24A     -0.680677
      25A     -0.665905    26A     -0.656214    27A     -0.640768
      28A     -0.621866    29A     -0.596097    30A     -0.578164
      31A     -0.558437    32A     -0.544936    33A     -0.530736
      34A     -0.513277    35A     -0.502216    36A     -0.474494
      37A     -0.424545    38A     -0.411706    39A     -0.350468
      40A     -0.327554

  @DF-RHF Final Energy:  -512.54236203467076

   => Energetics <=

    Nuclear Repulsion Energy =            593.4817301067730568
    One-Electron Energy =               -1875.9151657991874345
    Two-Electron Energy =                 769.8910736577436182
    Total Energy =                       -512.5423620346707594
  Basis Set: (AUG-CC-PVTZ AUX)
    Blend: AUG-CC-PVTZ-RI
    Molecular point group: c1

    Geometry (in Angstrom), charge = 0, multiplicity = 1:

       Center              X                  Y                   Z               Mass
    ------------   -----------------  -----------------  -----------------  -----------------
         O            0.408675619477     1.742694515047     0.168412654913    15.994914619570
         O           -2.156278380523     0.919432515047    -0.974692345087    15.994914619570
         N           -2.672571380523    -0.439198484953     0.793645654913    14.003074004430
         C           -0.412731380523    -0.448552484953    -0.033930345087    12.000000000000
         C            0.698333619477     0.412903515047     0.051761654913    12.000000000000
         C           -0.212394380523    -1.829284484953    -0.100660345087    12.000000000000
         C            1.944839219477    -0.103046184953     0.057469154913    12.000000000000
         C            1.077873619477    -2.364971484953    -0.102133345087    12.000000000000
         C            2.171839619477    -1.506648484953    -0.026414345087    12.000000000000
         C           -1.802303380523     0.111433515047    -0.120933345087    12.000000000000
         C            1.510305619477     2.646272515047     0.186108654913    12.000000000000
         H           -1.079865380523    -2.481036484953    -0.177423345087     1.007825032230
         H            2.861068619477     0.521652515047     0.127941654913     1.007825032230
         H            1.224362619477    -3.439615484953    -0.168930345087     1.007825032230
         H            3.182531619477    -1.908218484953    -0.027301345087     1.007825032230
         H            2.110606619477     2.556867515047    -0.725369345087     1.007825032230
         H            2.146645619477     2.485594515047     1.063543654913     1.007825032230
         H            1.064155619477     3.638722515047     0.234679654913     1.007825032230
         H           -2.300797380523    -0.825068484953     1.650986654913     1.007825032230
         H           -3.584893380523    -0.000829484953     0.847445654913     1.007825032230

  Basis Set: AUG-CC-PVTZ
    Blend: AUG-CC-PVTZ
  Basis Set: (AUG-CC-PVTZ AUX)
    Blend: AUG-CC-PVTZ-JKFIT
	 Reference Energy          =    -512.5423620346707594 [Eh]
	 Singles Energy            =      -0.0000000000000000 [Eh]
	 Same-Spin Energy          =      -0.5356752486729132 [Eh]
	 Opposite-Spin Energy      =      -1.6453759681342841 [Eh]
	 Correlation Energy        =      -2.1810512168071972 [Eh]
	 Total Energy              =    -514.7234132514779503 [Eh]

	 ================> DF-SCS-MP2 Energies <==================
	-----------------------------------------------------------
	 SCS Same-Spin Scale       =       0.3333333333333333 [-]
	 SCS Opposite-Spin Scale   =       1.2000000000000000 [-]
	 SCS Same-Spin Energy      =      -0.1785584162243044 [Eh]
	 SCS Opposite-Spin Energy  =      -1.9744511617611409 [Eh]
	 SCS Correlation Energy    =      -2.1530095779854452 [Eh]
	 SCS Total Energy          =    -514.6953716126562313 [Eh]
	-----------------------------------------------------------

  Dipole Moment: [D]
     X:     1.9969      Y:    -1.0083      Z:     2.8922     Total:     3.6564

*** Psi4 exiting successfully. Buy a developer a beer!
