                               Psi4 1.4a3.dev225

  ==> Input File <==

--------------------------------------------------------------------------
#psi4
#
memory 32 gb

molecule  {
0 1
  O        0.3703410     1.7406370     0.1509160
  O       -2.1946130     0.9173750    -0.9921890
  N       -2.7109060    -0.4412560     0.7761490
  C       -0.4510660    -0.4506100    -0.0514270
  C        0.6599990     0.4108460     0.0342650
  C       -0.2507290    -1.8313420    -0.1181570
  C        1.9527030    -0.1242260     0.0401840
  C        1.0395390    -2.3670290    -0.1196300
  C        2.0363623    -1.5177213    -0.0476690
  C       -1.8406380     0.1093760    -0.1384300
  C        1.4719710     2.6442150     0.1686120
  H       -1.1182000    -2.4830940    -0.1949200
  H        2.8227340     0.5195950     0.1104450
  H        1.1860280    -3.4416730    -0.1864270
  H        3.1441970    -1.9102760    -0.0447980
  H        2.0722720     2.5548100    -0.7428660
  H        2.1083110     2.4835370     1.0460470
  H        1.0258210     3.6366650     0.2171830
  H       -2.3391320    -0.8271260     1.6334900
  H       -3.6232280    -0.0028870     0.8299490
units angstrom
no_reorient  #important for SAPT in psi4, default
symmetry c1  #important for SAPT in psi4, default
}

set PROPERTIES_ORIGIN ["COM"]
properties('MP2/aug-cc-pvtz', properties = ['dipole'])
--------------------------------------------------------------------------

    Molecular point group: c1
  Charge       = 0
  Multiplicity = 1
  Basis Set: AUG-CC-PVTZ
    Blend: AUG-CC-PVTZ
  Basis Set: (AUG-CC-PVTZ AUX)
    Blend: AUG-CC-PVTZ-JKFIT

    Orbital Energies [Eh]
    ---------------------

    Doubly Occupied:

       1A    -20.590004     2A    -20.517467     3A    -15.582930
       4A    -11.355327     5A    -11.316947     6A    -11.287858
       7A    -11.256848     8A    -11.250942     9A    -11.248255
      10A    -11.241094    11A    -11.229177    12A     -1.413759
      13A     -1.369798    14A     -1.208194    15A     -1.167611
      16A     -1.046548    17A     -1.028050    18A     -0.952484
      19A     -0.873759    20A     -0.827255    21A     -0.788144
      22A     -0.736207    23A     -0.703345    24A     -0.683989
      25A     -0.667796    26A     -0.657469    27A     -0.639540
      28A     -0.624442    29A     -0.592456    30A     -0.585195
      31A     -0.560517    32A     -0.535573    33A     -0.530596
      34A     -0.525176    35A     -0.489583    36A     -0.481605
      37A     -0.423649    38A     -0.411767    39A     -0.351536
      40A     -0.329746

  @DF-RHF Final Energy:  -512.53364536440711

   => Energetics <=

    Nuclear Repulsion Energy =            594.3857066598561687
    One-Electron Energy =               -1877.6734277277837464
    Two-Electron Energy =                 770.7540757035204706
    Total Energy =                       -512.5336453644071071
  Basis Set: (AUG-CC-PVTZ AUX)
    Blend: AUG-CC-PVTZ-RI
    Molecular point group: c1

    Geometry (in Angstrom), charge = 0, multiplicity = 1:

       Center              X                  Y                   Z               Mass
    ------------   -----------------  -----------------  -----------------  -----------------
         O            0.412722475891     1.744929678294     0.168694377819    15.994914619570
         O           -2.152231524109     0.921667678294    -0.974410622181    15.994914619570
         N           -2.668524524109    -0.436963321706     0.793927377819    14.003074004430
         C           -0.408684524109    -0.446317321706    -0.033648622181    12.000000000000
         C            0.702380475891     0.415138678294     0.052043377819    12.000000000000
         C           -0.208347524109    -1.827049321706    -0.100378622181    12.000000000000
         C            1.995084475891    -0.119933321706     0.057962377819    12.000000000000
         C            1.081920475891    -2.362736321706    -0.101851622181    12.000000000000
         C            2.078743775891    -1.513428621706    -0.029890622181    12.000000000000
         C           -1.798256524109     0.113668678294    -0.120651622181    12.000000000000
         C            1.514352475891     2.648507678294     0.186390377819    12.000000000000
         H           -1.075818524109    -2.478801321706    -0.177141622181     1.007825032230
         H            2.865115475891     0.523887678294     0.128223377819     1.007825032230
         H            1.228409475891    -3.437380321706    -0.168648622181     1.007825032230
         H            3.186578475891    -1.905983321706    -0.027019622181     1.007825032230
         H            2.114653475891     2.559102678294    -0.725087622181     1.007825032230
         H            2.150692475891     2.487829678294     1.063825377819     1.007825032230
         H            1.068202475891     3.640957678294     0.234961377819     1.007825032230
         H           -2.296750524109    -0.822833321706     1.651268377819     1.007825032230
         H           -3.580846524109     0.001405678294     0.847727377819     1.007825032230

  Basis Set: AUG-CC-PVTZ
    Blend: AUG-CC-PVTZ
  Basis Set: (AUG-CC-PVTZ AUX)
    Blend: AUG-CC-PVTZ-JKFIT
	 Reference Energy          =    -512.5336453644071071 [Eh]
	 Singles Energy            =      -0.0000000000000000 [Eh]
	 Same-Spin Energy          =      -0.5356639414742971 [Eh]
	 Opposite-Spin Energy      =      -1.6452817875576686 [Eh]
	 Correlation Energy        =      -2.1809457290319658 [Eh]
	 Total Energy              =    -514.7145910934390258 [Eh]

	 ================> DF-SCS-MP2 Energies <==================
	-----------------------------------------------------------
	 SCS Same-Spin Scale       =       0.3333333333333333 [-]
	 SCS Opposite-Spin Scale   =       1.2000000000000000 [-]
	 SCS Same-Spin Energy      =      -0.1785546471580990 [Eh]
	 SCS Opposite-Spin Energy  =      -1.9743381450692024 [Eh]
	 SCS Correlation Energy    =      -2.1528927922273016 [Eh]
	 SCS Total Energy          =    -514.6865381566343558 [Eh]
	-----------------------------------------------------------

  Dipole Moment: [D]
     X:     1.9177      Y:    -0.8968      Z:     2.8998     Total:     3.5904

*** Psi4 exiting successfully. Buy a developer a beer!
