                               Psi4 1.4a3.dev225

  ==> Input File <==

--------------------------------------------------------------------------
#psi4
#
memory 32 gb

molecule  {
0 1
  O        0.3703410     1.7406370     0.1509160
  O       -2.1946130     0.9173750    -0.9921890
  N       -2.7109060    -0.4412560     0.7761490
  C       -0.4510660    -0.4506100    -0.0514270
  C        0.6706017     0.3621700     0.0299951
  C       -0.2507290    -1.8313420    -0.1181570
  C        1.9527030    -0.1242260     0.0401840
  C        1.0395390    -2.3670290    -0.1196300
  C        2.1335050    -1.5087060    -0.0439110
  C       -1.8406380     0.1093760    -0.1384300
  C        1.4719710     2.6442150     0.1686120
  H       -1.1182000    -2.4830940    -0.1949200
  H        2.8227340     0.5195950     0.1104450
  H        1.1860280    -3.4416730    -0.1864270
  H        3.1441970    -1.9102760    -0.0447980
  H        2.0722720     2.5548100    -0.7428660
  H        2.1083110     2.4835370     1.0460470
  H        1.0258210     3.6366650     0.2171830
  H       -2.3391320    -0.8271260     1.6334900
  H       -3.6232280    -0.0028870     0.8299490
units angstrom
no_reorient  #important for SAPT in psi4, default
symmetry c1  #important for SAPT in psi4, default
}

set PROPERTIES_ORIGIN ["COM"]
properties('MP2/aug-cc-pvtz', properties = ['dipole'])
--------------------------------------------------------------------------

    Molecular point group: c1
  Charge       = 0
  Multiplicity = 1
  Basis Set: AUG-CC-PVTZ
    Blend: AUG-CC-PVTZ
  Basis Set: (AUG-CC-PVTZ AUX)
    Blend: AUG-CC-PVTZ-JKFIT

    Orbital Energies [Eh]
    ---------------------

    Doubly Occupied:

       1A    -20.581488     2A    -20.518476     3A    -15.584130
       4A    -11.357334     5A    -11.313031     6A    -11.282165
       7A    -11.257025     8A    -11.255802     9A    -11.249598
      10A    -11.242792    11A    -11.241282    12A     -1.391758
      13A     -1.369707    14A     -1.209347    15A     -1.164857
      16A     -1.046296    17A     -1.027878    18A     -0.941006
      19A     -0.879915    20A     -0.827211    21A     -0.791174
      22A     -0.736208    23A     -0.706102    24A     -0.678443
      25A     -0.662815    26A     -0.647938    27A     -0.637364
      28A     -0.627589    29A     -0.598130    30A     -0.579999
      31A     -0.559991    32A     -0.544169    33A     -0.528801
      34A     -0.516852    35A     -0.498376    36A     -0.471356
      37A     -0.425578    38A     -0.412675    39A     -0.354870
      40A     -0.330013

  @DF-RHF Final Energy:  -512.54163077905287

   => Energetics <=

    Nuclear Repulsion Energy =            592.6879636611015485
    One-Electron Energy =               -1874.3601071778828100
    Two-Electron Energy =                 769.1305127377283952
    Total Energy =                       -512.5416307790528663
  Basis Set: (AUG-CC-PVTZ AUX)
    Blend: AUG-CC-PVTZ-RI
    Molecular point group: c1

    Geometry (in Angstrom), charge = 0, multiplicity = 1:

       Center              X                  Y                   Z               Mass
    ------------   -----------------  -----------------  -----------------  -----------------
         O            0.404163517125     1.748080200692     0.168735041560    15.994914619570
         O           -2.160790482875     0.924818200692    -0.974369958440    15.994914619570
         N           -2.677083482875    -0.433812799308     0.793968041560    14.003074004430
         C           -0.417243482875    -0.443166799308    -0.033607958440    12.000000000000
         C            0.704424217125     0.369613200692     0.047814141560    12.000000000000
         C           -0.216906482875    -1.823898799308    -0.100337958440    12.000000000000
         C            1.986525517125    -0.116782799308     0.058003041560    12.000000000000
         C            1.073361517125    -2.359585799308    -0.101810958440    12.000000000000
         C            2.167327517125    -1.501262799308    -0.026091958440    12.000000000000
         C           -1.806815482875     0.116819200692    -0.120610958440    12.000000000000
         C            1.505793517125     2.651658200692     0.186431041560    12.000000000000
         H           -1.084377482875    -2.475650799308    -0.177100958440     1.007825032230
         H            2.856556517125     0.527038200692     0.128264041560     1.007825032230
         H            1.219850517125    -3.434229799308    -0.168607958440     1.007825032230
         H            3.178019517125    -1.902832799308    -0.026978958440     1.007825032230
         H            2.106094517125     2.562253200692    -0.725046958440     1.007825032230
         H            2.142133517125     2.490980200692     1.063866041560     1.007825032230
         H            1.059643517125     3.644108200692     0.235002041560     1.007825032230
         H           -2.305309482875    -0.819682799308     1.651309041560     1.007825032230
         H           -3.589405482875     0.004556200692     0.847768041560     1.007825032230

  Basis Set: AUG-CC-PVTZ
    Blend: AUG-CC-PVTZ
  Basis Set: (AUG-CC-PVTZ AUX)
    Blend: AUG-CC-PVTZ-JKFIT
	 Reference Energy          =    -512.5416307790528663 [Eh]
	 Singles Energy            =      -0.0000000000000000 [Eh]
	 Same-Spin Energy          =      -0.5357740933129719 [Eh]
	 Opposite-Spin Energy      =      -1.6459531717129676 [Eh]
	 Correlation Energy        =      -2.1817272650259394 [Eh]
	 Total Energy              =    -514.7233580440788501 [Eh]

	 ================> DF-SCS-MP2 Energies <==================
	-----------------------------------------------------------
	 SCS Same-Spin Scale       =       0.3333333333333333 [-]
	 SCS Opposite-Spin Scale   =       1.2000000000000000 [-]
	 SCS Same-Spin Energy      =      -0.1785913644376573 [Eh]
	 SCS Opposite-Spin Energy  =      -1.9751438060555611 [Eh]
	 SCS Correlation Energy    =      -2.1537351704932184 [Eh]
	 SCS Total Energy          =    -514.6953659495460442 [Eh]
	-----------------------------------------------------------

  Dipole Moment: [D]
     X:     1.9763      Y:    -1.2634      Z:     2.8695     Total:     3.7062

*** Psi4 exiting successfully. Buy a developer a beer!
