                               Psi4 1.4a3.dev225

  ==> Input File <==

--------------------------------------------------------------------------
#psi4
#
memory 32 gb

molecule  {
0 1
  O        0.3703410     1.7406370     0.1509160
  O       -2.1946130     0.9173750    -0.9921890
  N       -2.6002598    -0.5217085     0.8216344
  C       -0.4510660    -0.4506100    -0.0514270
  C        0.6599990     0.4108460     0.0342650
  C       -0.2507290    -1.8313420    -0.1181570
  C        1.9527030    -0.1242260     0.0401840
  C        1.0395390    -2.3670290    -0.1196300
  C        2.1335050    -1.5087060    -0.0439110
  C       -1.8406380     0.1093760    -0.1384300
  C        1.4719710     2.6442150     0.1686120
  H       -1.1182000    -2.4830940    -0.1949200
  H        2.8227340     0.5195950     0.1104450
  H        1.1860280    -3.4416730    -0.1864270
  H        3.1441970    -1.9102760    -0.0447980
  H        2.0722720     2.5548100    -0.7428660
  H        2.1083110     2.4835370     1.0460470
  H        1.0258210     3.6366650     0.2171830
  H       -2.3391320    -0.8271260     1.6334900
  H       -3.6232280    -0.0028870     0.8299490
units angstrom
no_reorient  #important for SAPT in psi4, default
symmetry c1  #important for SAPT in psi4, default
}

set PROPERTIES_ORIGIN ["COM"]
properties('MP2/aug-cc-pvtz', properties = ['dipole'])
--------------------------------------------------------------------------

    Molecular point group: c1
  Charge       = 0
  Multiplicity = 1
  Basis Set: AUG-CC-PVTZ
    Blend: AUG-CC-PVTZ
  Basis Set: (AUG-CC-PVTZ AUX)
    Blend: AUG-CC-PVTZ-JKFIT

    Orbital Energies [Eh]
    ---------------------

    Doubly Occupied:

       1A    -20.589369     2A    -20.526554     3A    -15.587655
       4A    -11.360864     5A    -11.314679     6A    -11.287102
       7A    -11.252669     8A    -11.251964     9A    -11.243924
      10A    -11.240955    11A    -11.236634    12A     -1.412994
      13A     -1.373012    14A     -1.221211    15A     -1.155372
      16A     -1.040094    17A     -1.022815    18A     -0.948479
      19A     -0.878658    20A     -0.824414    21A     -0.805670
      22A     -0.744188    23A     -0.704364    24A     -0.677355
      25A     -0.658194    26A     -0.645209    27A     -0.639883
      28A     -0.623913    29A     -0.592148    30A     -0.581475
      31A     -0.556378    32A     -0.543286    33A     -0.527893
      34A     -0.517691    35A     -0.499862    36A     -0.474732
      37A     -0.428790    38A     -0.417580    39A     -0.349858
      40A     -0.320838

  @DF-RHF Final Energy:  -512.51277958649280

   => Energetics <=

    Nuclear Repulsion Energy =            593.6497023646121534
    One-Electron Energy =               -1876.1675156938945292
    Two-Electron Energy =                 770.0050337427896920
    Total Energy =                       -512.5127795864927975
  Basis Set: (AUG-CC-PVTZ AUX)
    Blend: AUG-CC-PVTZ-RI
    Molecular point group: c1

    Geometry (in Angstrom), charge = 0, multiplicity = 1:

       Center              X                  Y                   Z               Mass
    ------------   -----------------  -----------------  -----------------  -----------------
         O            0.394749223526     1.751671213260     0.164179506944    15.994914619570
         O           -2.170204776474     0.928409213260    -0.978925493056    15.994914619570
         N           -2.575851576474    -0.510674286740     0.834897906944    14.003074004430
         C           -0.426657776474    -0.439575786740    -0.038163493056    12.000000000000
         C            0.684407223526     0.421880213260     0.047528506944    12.000000000000
         C           -0.226320776474    -1.820307786740    -0.104893493056    12.000000000000
         C            1.977111223526    -0.113191786740     0.053447506944    12.000000000000
         C            1.063947223526    -2.355994786740    -0.106366493056    12.000000000000
         C            2.157913223526    -1.497671786740    -0.030647493056    12.000000000000
         C           -1.816229776474     0.120410213260    -0.125166493056    12.000000000000
         C            1.496379223526     2.655249213260     0.181875506944    12.000000000000
         H           -1.093791776474    -2.472059786740    -0.181656493056     1.007825032230
         H            2.847142223526     0.530629213260     0.123708506944     1.007825032230
         H            1.210436223526    -3.430638786740    -0.173163493056     1.007825032230
         H            3.168605223526    -1.899241786740    -0.031534493056     1.007825032230
         H            2.096680223526     2.565844213260    -0.729602493056     1.007825032230
         H            2.132719223526     2.494571213260     1.059310506944     1.007825032230
         H            1.050229223526     3.647699213260     0.230446506944     1.007825032230
         H           -2.314723776474    -0.816091786740     1.646753506944     1.007825032230
         H           -3.598819776474     0.008147213260     0.843212506944     1.007825032230

  Basis Set: AUG-CC-PVTZ
    Blend: AUG-CC-PVTZ
  Basis Set: (AUG-CC-PVTZ AUX)
    Blend: AUG-CC-PVTZ-JKFIT
	 Reference Energy          =    -512.5127795864927975 [Eh]
	 Singles Energy            =      -0.0000000000000000 [Eh]
	 Same-Spin Energy          =      -0.5368966722016373 [Eh]
	 Opposite-Spin Energy      =      -1.6479540823406971 [Eh]
	 Correlation Energy        =      -2.1848507545423344 [Eh]
	 Total Energy              =    -514.6976303410351647 [Eh]

	 ================> DF-SCS-MP2 Energies <==================
	-----------------------------------------------------------
	 SCS Same-Spin Scale       =       0.3333333333333333 [-]
	 SCS Opposite-Spin Scale   =       1.2000000000000000 [-]
	 SCS Same-Spin Energy      =      -0.1789655574005458 [Eh]
	 SCS Opposite-Spin Energy  =      -1.9775448988088364 [Eh]
	 SCS Correlation Energy    =      -2.1565104562093822 [Eh]
	 SCS Total Energy          =    -514.6692900427021868 [Eh]
	-----------------------------------------------------------

  Dipole Moment: [D]
     X:     1.8018      Y:    -0.7782      Z:     2.8397     Total:     3.4520

*** Psi4 exiting successfully. Buy a developer a beer!
