                               Psi4 1.4a3.dev225

  ==> Input File <==

--------------------------------------------------------------------------
#psi4
#
memory 32 gb

molecule  {
0 1
  O        0.3703410     1.7406370     0.1509160
  O       -2.1946130     0.9173750    -0.9921890
  N       -2.7109060    -0.4412560     0.7761490
  C       -0.4510660    -0.4506100    -0.0514270
  C        0.6599990     0.4108460     0.0342650
  C       -0.2507290    -1.8313420    -0.1181570
  C        1.9527030    -0.1242260     0.0401840
  C        1.0395390    -2.3670290    -0.1196300
  C        2.1335050    -1.5087060    -0.0439110
  C       -1.8869358     0.1280336    -0.1413288
  C        1.4719710     2.6442150     0.1686120
  H       -1.1182000    -2.4830940    -0.1949200
  H        2.8227340     0.5195950     0.1104450
  H        1.1860280    -3.4416730    -0.1864270
  H        3.1441970    -1.9102760    -0.0447980
  H        2.0722720     2.5548100    -0.7428660
  H        2.1083110     2.4835370     1.0460470
  H        1.0258210     3.6366650     0.2171830
  H       -2.3391320    -0.8271260     1.6334900
  H       -3.6232280    -0.0028870     0.8299490
units angstrom
no_reorient  #important for SAPT in psi4, default
symmetry c1  #important for SAPT in psi4, default
}

set PROPERTIES_ORIGIN ["COM"]
properties('MP2/aug-cc-pvtz', properties = ['dipole'])
--------------------------------------------------------------------------

    Molecular point group: c1
  Charge       = 0
  Multiplicity = 1
  Basis Set: AUG-CC-PVTZ
    Blend: AUG-CC-PVTZ
  Basis Set: (AUG-CC-PVTZ AUX)
    Blend: AUG-CC-PVTZ-JKFIT

    Orbital Energies [Eh]
    ---------------------

    Doubly Occupied:

       1A    -20.588210     2A    -20.520865     3A    -15.585370
       4A    -11.354255     5A    -11.313472     6A    -11.286332
       7A    -11.251377     8A    -11.250542     9A    -11.246493
      10A    -11.240207    11A    -11.235856    12A     -1.412089
      13A     -1.387847    14A     -1.218623    15A     -1.154345
      16A     -1.035926    17A     -1.021717    18A     -0.946809
      19A     -0.868667    20A     -0.821097    21A     -0.791307
      22A     -0.739689    23A     -0.709057    24A     -0.679087
      25A     -0.663594    26A     -0.655429    27A     -0.641186
      28A     -0.623680    29A     -0.596924    30A     -0.581054
      31A     -0.566006    32A     -0.542657    33A     -0.528741
      34A     -0.517756    35A     -0.499291    36A     -0.473688
      37A     -0.425286    38A     -0.415467    39A     -0.349165
      40A     -0.319805

  @DF-RHF Final Energy:  -512.54529088078777

   => Energetics <=

    Nuclear Repulsion Energy =            592.3801355163225253
    One-Electron Energy =               -1873.7329178755996963
    Two-Electron Energy =                 768.8074914784893963
    Total Energy =                       -512.5452908807877748
  Basis Set: (AUG-CC-PVTZ AUX)
    Blend: AUG-CC-PVTZ-RI
    Molecular point group: c1

    Geometry (in Angstrom), charge = 0, multiplicity = 1:

       Center              X                  Y                   Z               Mass
    ------------   -----------------  -----------------  -----------------  -----------------
         O            0.408683515504     1.742731429366     0.168626125649    15.994914619570
         O           -2.156270484496     0.919469429366    -0.974478874351    15.994914619570
         N           -2.672563484496    -0.439161570634     0.793859125649    14.003074004430
         C           -0.412723484496    -0.448515570634    -0.033716874351    12.000000000000
         C            0.698341515504     0.412940429366     0.051975125649    12.000000000000
         C           -0.212386484496    -1.829247570634    -0.100446874351    12.000000000000
         C            1.991045515504    -0.122131570634     0.057894125649    12.000000000000
         C            1.077881515504    -2.364934570634    -0.101919874351    12.000000000000
         C            2.171847515504    -1.506611570634    -0.026200874351    12.000000000000
         C           -1.848593284496     0.130128029366    -0.123618674351    12.000000000000
         C            1.510313515504     2.646309429366     0.186322125649    12.000000000000
         H           -1.079857484496    -2.480999570634    -0.177209874351     1.007825032230
         H            2.861076515504     0.521689429366     0.128155125649     1.007825032230
         H            1.224370515504    -3.439578570634    -0.168716874351     1.007825032230
         H            3.182539515504    -1.908181570634    -0.027087874351     1.007825032230
         H            2.110614515504     2.556904429366    -0.725155874351     1.007825032230
         H            2.146653515504     2.485631429366     1.063757125649     1.007825032230
         H            1.064163515504     3.638759429366     0.234893125649     1.007825032230
         H           -2.300789484496    -0.825031570634     1.651200125649     1.007825032230
         H           -3.584885484496    -0.000792570634     0.847659125649     1.007825032230

  Basis Set: AUG-CC-PVTZ
    Blend: AUG-CC-PVTZ
  Basis Set: (AUG-CC-PVTZ AUX)
    Blend: AUG-CC-PVTZ-JKFIT
	 Reference Energy          =    -512.5452908807877748 [Eh]
	 Singles Energy            =      -0.0000000000000000 [Eh]
	 Same-Spin Energy          =      -0.5349804218829300 [Eh]
	 Opposite-Spin Energy      =      -1.6436437909973884 [Eh]
	 Correlation Energy        =      -2.1786242128803184 [Eh]
	 Total Energy              =    -514.7239150936680971 [Eh]

	 ================> DF-SCS-MP2 Energies <==================
	-----------------------------------------------------------
	 SCS Same-Spin Scale       =       0.3333333333333333 [-]
	 SCS Opposite-Spin Scale   =       1.2000000000000000 [-]
	 SCS Same-Spin Energy      =      -0.1783268072943100 [Eh]
	 SCS Opposite-Spin Energy  =      -1.9723725491968660 [Eh]
	 SCS Correlation Energy    =      -2.1506993564911761 [Eh]
	 SCS Total Energy          =    -514.6959902372789202 [Eh]
	-----------------------------------------------------------

  Dipole Moment: [D]
     X:     1.6452      Y:    -0.8174      Z:     2.8993     Total:     3.4323

*** Psi4 exiting successfully. Buy a developer a beer!
