                               Psi4 1.4a3.dev225

  ==> Input File <==

--------------------------------------------------------------------------
#psi4
#
memory 32 gb

molecule  {
0 1
  O        0.3703410     1.7406370     0.1509160
  O       -2.1946130     0.9173750    -0.9921890
  N       -2.7109060    -0.4412560     0.7761490
  C       -0.4510660    -0.4506100    -0.0514270
  C        0.6599990     0.4108460     0.0342650
  C       -0.2507290    -1.8313420    -0.1181570
  C        1.9527030    -0.1242260     0.0401840
  C        1.0395390    -2.3670290    -0.1196300
  C        2.1335050    -1.5087060    -0.0439110
  C       -1.8406380     0.1093760    -0.1384300
  C        1.4719710     2.6442150     0.1686120
  H       -1.1182000    -2.4830940    -0.1949200
  H        2.8227340     0.5195950     0.1104450
  H        1.1860280    -3.4416730    -0.1864270
  H        3.1441970    -1.9102760    -0.0447980
  H        2.0722720     2.5548100    -0.7428660
  H        2.1083110     2.4835370     1.0460470
  H        1.0258210     3.6366650     0.2171830
  H       -2.3391320    -0.8271260     1.6334900
  H       -3.5782241    -0.0245113     0.8272951
units angstrom
no_reorient  #important for SAPT in psi4, default
symmetry c1  #important for SAPT in psi4, default
}

set PROPERTIES_ORIGIN ["COM"]
properties('MP2/aug-cc-pvtz', properties = ['dipole'])
--------------------------------------------------------------------------

    Molecular point group: c1
  Charge       = 0
  Multiplicity = 1
  Basis Set: AUG-CC-PVTZ
    Blend: AUG-CC-PVTZ
  Basis Set: (AUG-CC-PVTZ AUX)
    Blend: AUG-CC-PVTZ-JKFIT

    Orbital Energies [Eh]
    ---------------------

    Doubly Occupied:

       1A    -20.590464     2A    -20.517944     3A    -15.578232
       4A    -11.355359     5A    -11.317487     6A    -11.287752
       7A    -11.255465     8A    -11.254193     9A    -11.248249
      10A    -11.242805    11A    -11.238525    12A     -1.414024
      13A     -1.370657    14A     -1.214203    15A     -1.158464
      16A     -1.043553    17A     -1.024793    18A     -0.949786
      19A     -0.879440    20A     -0.825020    21A     -0.791818
      22A     -0.737070    23A     -0.713206    24A     -0.683974
      25A     -0.668860    26A     -0.657580    27A     -0.639789
      28A     -0.623711    29A     -0.597683    30A     -0.582607
      31A     -0.559133    32A     -0.543902    33A     -0.530444
      34A     -0.518934    35A     -0.500591    36A     -0.475917
      37A     -0.424569    38A     -0.412610    39A     -0.352456
      40A     -0.322896

  @DF-RHF Final Energy:  -512.54485792014043

   => Energetics <=

    Nuclear Repulsion Energy =            592.9629137306292250
    One-Electron Energy =               -1874.8072108137298528
    Two-Electron Energy =                 769.2994391629601978
    Total Energy =                       -512.5448579201404300
  Basis Set: (AUG-CC-PVTZ AUX)
    Blend: AUG-CC-PVTZ-RI
    Molecular point group: c1

    Geometry (in Angstrom), charge = 0, multiplicity = 1:

       Center              X                  Y                   Z               Mass
    ------------   -----------------  -----------------  -----------------  -----------------
         O            0.404705517251     1.744357798342     0.168413559612    15.994914619570
         O           -2.160248482749     0.921095798342    -0.974691440388    15.994914619570
         N           -2.676541482749    -0.437535201658     0.793646559612    14.003074004430
         C           -0.416701482749    -0.446889201658    -0.033929440388    12.000000000000
         C            0.694363517251     0.414566798342     0.051762559612    12.000000000000
         C           -0.216364482749    -1.827621201658    -0.100659440388    12.000000000000
         C            1.987067517251    -0.120505201658     0.057681559612    12.000000000000
         C            1.073903517251    -2.363308201658    -0.102132440388    12.000000000000
         C            2.167869517251    -1.504985201658    -0.026413440388    12.000000000000
         C           -1.806273482749     0.113096798342    -0.120932440388    12.000000000000
         C            1.506335517251     2.647935798342     0.186109559612    12.000000000000
         H           -1.083835482749    -2.479373201658    -0.177422440388     1.007825032230
         H            2.857098517251     0.523315798342     0.127942559612     1.007825032230
         H            1.220392517251    -3.437952201658    -0.168929440388     1.007825032230
         H            3.178561517251    -1.906555201658    -0.027300440388     1.007825032230
         H            2.106636517251     2.558530798342    -0.725368440388     1.007825032230
         H            2.142675517251     2.487257798342     1.063544559612     1.007825032230
         H            1.060185517251     3.640385798342     0.234680559612     1.007825032230
         H           -2.304767482749    -0.823405201658     1.650987559612     1.007825032230
         H           -3.543859582749    -0.020790501658     0.844792659612     1.007825032230

  Basis Set: AUG-CC-PVTZ
    Blend: AUG-CC-PVTZ
  Basis Set: (AUG-CC-PVTZ AUX)
    Blend: AUG-CC-PVTZ-JKFIT
	 Reference Energy          =    -512.5448579201404300 [Eh]
	 Singles Energy            =      -0.0000000000000000 [Eh]
	 Same-Spin Energy          =      -0.5353858040499894 [Eh]
	 Opposite-Spin Energy      =      -1.6445134653531157 [Eh]
	 Correlation Energy        =      -2.1798992694031050 [Eh]
	 Total Energy              =    -514.7247571895435385 [Eh]

	 ================> DF-SCS-MP2 Energies <==================
	-----------------------------------------------------------
	 SCS Same-Spin Scale       =       0.3333333333333333 [-]
	 SCS Opposite-Spin Scale   =       1.2000000000000000 [-]
	 SCS Same-Spin Energy      =      -0.1784619346833298 [Eh]
	 SCS Opposite-Spin Energy  =      -1.9734161584237389 [Eh]
	 SCS Correlation Energy    =      -2.1518780931070687 [Eh]
	 SCS Total Energy          =    -514.6967360132474596 [Eh]
	-----------------------------------------------------------

  Dipole Moment: [D]
     X:     2.0399      Y:    -0.9296      Z:     2.8962     Total:     3.6624

*** Psi4 exiting successfully. Buy a developer a beer!
