                               Psi4 1.4a3.dev225

  ==> Input File <==

--------------------------------------------------------------------------
#psi4
#
memory 32 gb

molecule  {
0 1
  O        0.3703410     1.7406370     0.1509160
  O       -2.1946130     0.9173750    -0.9921890
  N       -2.7109060    -0.4412560     0.7761490
  C       -0.4510660    -0.4506100    -0.0514270
  C        0.6599990     0.4108460     0.0342650
  C       -0.2507290    -1.8313420    -0.1181570
  C        1.9527030    -0.1242260     0.0401840
  C        1.0395390    -2.3670290    -0.1196300
  C        2.1576714    -1.5053958    -0.0429067
  C       -1.8406380     0.1093760    -0.1384300
  C        1.4719710     2.6442150     0.1686120
  H       -1.1182000    -2.4830940    -0.1949200
  H        2.8227340     0.5195950     0.1104450
  H        1.1860280    -3.4416730    -0.1864270
  H        3.1441970    -1.9102760    -0.0447980
  H        2.0722720     2.5548100    -0.7428660
  H        2.1083110     2.4835370     1.0460470
  H        1.0258210     3.6366650     0.2171830
  H       -2.3391320    -0.8271260     1.6334900
  H       -3.6232280    -0.0028870     0.8299490
units angstrom
no_reorient  #important for SAPT in psi4, default
symmetry c1  #important for SAPT in psi4, default
}

set PROPERTIES_ORIGIN ["COM"]
properties('MP2/aug-cc-pvtz', properties = ['dipole'])
--------------------------------------------------------------------------

    Molecular point group: c1
  Charge       = 0
  Multiplicity = 1
  Basis Set: AUG-CC-PVTZ
    Blend: AUG-CC-PVTZ
  Basis Set: (AUG-CC-PVTZ AUX)
    Blend: AUG-CC-PVTZ-JKFIT

    Orbital Energies [Eh]
    ---------------------

    Doubly Occupied:

       1A    -20.590487     2A    -20.517421     3A    -15.582811
       4A    -11.355025     5A    -11.317608     6A    -11.287643
       7A    -11.255055     8A    -11.254986     9A    -11.248350
      10A    -11.243367    11A    -11.240691    12A     -1.413985
      13A     -1.369672    14A     -1.207851    15A     -1.155889
      16A     -1.042492    17A     -1.023622    18A     -0.948820
      19A     -0.878511    20A     -0.823389    21A     -0.789689
      22A     -0.735444    23A     -0.710646    24A     -0.681655
      25A     -0.665542    26A     -0.657085    27A     -0.639531
      28A     -0.623414    29A     -0.598340    30A     -0.581184
      31A     -0.557783    32A     -0.546632    33A     -0.529479
      34A     -0.517193    35A     -0.500752    36A     -0.474474
      37A     -0.424209    38A     -0.411603    39A     -0.352804
      40A     -0.321015

  @DF-RHF Final Energy:  -512.54425530291167

   => Energetics <=

    Nuclear Repulsion Energy =            592.2553338726362426
    One-Electron Energy =               -1873.4468760387571820
    Two-Electron Energy =                 768.6472868632093878
    Total Energy =                       -512.5442553029116652
  Basis Set: (AUG-CC-PVTZ AUX)
    Blend: AUG-CC-PVTZ-RI
    Molecular point group: c1

    Geometry (in Angstrom), charge = 0, multiplicity = 1:

       Center              X                  Y                   Z               Mass
    ------------   -----------------  -----------------  -----------------  -----------------
         O            0.403086059071     1.743950578989     0.168316075550    15.994914619570
         O           -2.161867940929     0.920688578989    -0.974788924450    15.994914619570
         N           -2.678160940929    -0.437942421011     0.793549075550    14.003074004430
         C           -0.418320940929    -0.447296421011    -0.034026924450    12.000000000000
         C            0.692744059071     0.414159578989     0.051665075550    12.000000000000
         C           -0.217983940929    -1.828028421011    -0.100756924450    12.000000000000
         C            1.985448059071    -0.120912421011     0.057584075550    12.000000000000
         C            1.072284059071    -2.363715421011    -0.102229924450    12.000000000000
         C            2.190416459071    -1.502082221011    -0.025506624450    12.000000000000
         C           -1.807892940929     0.112689578989    -0.121029924450    12.000000000000
         C            1.504716059071     2.647528578989     0.186012075550    12.000000000000
         H           -1.085454940929    -2.479780421011    -0.177519924450     1.007825032230
         H            2.855479059071     0.522908578989     0.127845075550     1.007825032230
         H            1.218773059071    -3.438359421011    -0.169026924450     1.007825032230
         H            3.176942059071    -1.906962421011    -0.027397924450     1.007825032230
         H            2.105017059071     2.558123578989    -0.725465924450     1.007825032230
         H            2.141056059071     2.486850578989     1.063447075550     1.007825032230
         H            1.058566059071     3.639978578989     0.234583075550     1.007825032230
         H           -2.306386940929    -0.823812421011     1.650890075550     1.007825032230
         H           -3.590482940929     0.000426578989     0.847349075550     1.007825032230

  Basis Set: AUG-CC-PVTZ
    Blend: AUG-CC-PVTZ
  Basis Set: (AUG-CC-PVTZ AUX)
    Blend: AUG-CC-PVTZ-JKFIT
	 Reference Energy          =    -512.5442553029116652 [Eh]
	 Singles Energy            =      -0.0000000000000000 [Eh]
	 Same-Spin Energy          =      -0.5357662931276823 [Eh]
	 Opposite-Spin Energy      =      -1.6455086545994637 [Eh]
	 Correlation Energy        =      -2.1812749477271458 [Eh]
	 Total Energy              =    -514.7255302506388261 [Eh]

	 ================> DF-SCS-MP2 Energies <==================
	-----------------------------------------------------------
	 SCS Same-Spin Scale       =       0.3333333333333333 [-]
	 SCS Opposite-Spin Scale   =       1.2000000000000000 [-]
	 SCS Same-Spin Energy      =      -0.1785887643758941 [Eh]
	 SCS Opposite-Spin Energy  =      -1.9746103855193564 [Eh]
	 SCS Correlation Energy    =      -2.1531991498952503 [Eh]
	 SCS Total Energy          =    -514.6974544528069373 [Eh]
	-----------------------------------------------------------

  Dipole Moment: [D]
     X:     2.0085      Y:    -0.9148      Z:     2.8994     Total:     3.6439

*** Psi4 exiting successfully. Buy a developer a beer!
