                               Psi4 1.4a3.dev225

  ==> Input File <==

--------------------------------------------------------------------------
#psi4
#
memory 32 gb

molecule  {
0 1
  O        0.3703410     1.7406370     0.1509160
  O       -2.1946130     0.9173750    -0.9921890
  N       -2.7109060    -0.4412560     0.7761490
  C       -0.4510660    -0.4506100    -0.0514270
  C        0.6599990     0.4108460     0.0342650
  C       -0.2507290    -1.8313420    -0.1181570
  C        1.9527030    -0.1242260     0.0401840
  C        1.0395390    -2.3670290    -0.1196300
  C        1.9876085    -1.5196845    -0.0493886
  C       -1.8406380     0.1093760    -0.1384300
  C        1.4719710     2.6442150     0.1686120
  H       -1.1182000    -2.4830940    -0.1949200
  H        2.8227340     0.5195950     0.1104450
  H        1.1860280    -3.4416730    -0.1864270
  H        3.1441970    -1.9102760    -0.0447980
  H        2.0722720     2.5548100    -0.7428660
  H        2.1083110     2.4835370     1.0460470
  H        1.0258210     3.6366650     0.2171830
  H       -2.3391320    -0.8271260     1.6334900
  H       -3.6232280    -0.0028870     0.8299490
units angstrom
no_reorient  #important for SAPT in psi4, default
symmetry c1  #important for SAPT in psi4, default
}

set PROPERTIES_ORIGIN ["COM"]
properties('MP2/aug-cc-pvtz', properties = ['dipole'])
--------------------------------------------------------------------------

    Molecular point group: c1
  Charge       = 0
  Multiplicity = 1
  Basis Set: AUG-CC-PVTZ
    Blend: AUG-CC-PVTZ
  Basis Set: (AUG-CC-PVTZ AUX)
    Blend: AUG-CC-PVTZ-JKFIT

    Orbital Energies [Eh]
    ---------------------

    Doubly Occupied:

       1A    -20.589949     2A    -20.517623     3A    -15.583099
       4A    -11.355600     5A    -11.316951     6A    -11.288030
       7A    -11.257867     8A    -11.249757     9A    -11.248427
      10A    -11.240921    11A    -11.224752    12A     -1.413819
      13A     -1.369983    14A     -1.208552    15A     -1.173608
      16A     -1.049944    17A     -1.029133    18A     -0.954072
      19A     -0.873086    20A     -0.828158    21A     -0.787884
      22A     -0.736789    23A     -0.701190    24A     -0.685866
      25A     -0.668955    26A     -0.657756    27A     -0.640227
      28A     -0.625375    29A     -0.593410    30A     -0.585074
      31A     -0.561732    32A     -0.538262    33A     -0.528312
      34A     -0.526003    35A     -0.485398    36A     -0.478017
      37A     -0.423281    38A     -0.411887    39A     -0.352096
      40A     -0.332883

  @DF-RHF Final Energy:  -512.51796814337081

   => Energetics <=

    Nuclear Repulsion Energy =            595.3046699734983349
    One-Electron Energy =               -1879.4578247996396385
    Two-Electron Energy =                 771.6351866827706090
    Total Energy =                       -512.5179681433708083
  Basis Set: (AUG-CC-PVTZ AUX)
    Blend: AUG-CC-PVTZ-RI
    Molecular point group: c1

    Geometry (in Angstrom), charge = 0, multiplicity = 1:

       Center              X                  Y                   Z               Mass
    ------------   -----------------  -----------------  -----------------  -----------------
         O            0.416595325812     1.745085628784     0.168830977484    15.994914619570
         O           -2.148358674188     0.921823628784    -0.974274022516    15.994914619570
         N           -2.664651674188    -0.436807371216     0.794063977484    14.003074004430
         C           -0.404811674188    -0.446161371216    -0.033512022516    12.000000000000
         C            0.706253325812     0.415294628784     0.052179977484    12.000000000000
         C           -0.204474674188    -1.826893371216    -0.100242022516    12.000000000000
         C            1.998957325812    -0.119777371216     0.058098977484    12.000000000000
         C            1.085793325812    -2.362580371216    -0.101715022516    12.000000000000
         C            2.033862825812    -1.515235871216    -0.031473622516    12.000000000000
         C           -1.794383674188     0.113824628784    -0.120515022516    12.000000000000
         C            1.518225325812     2.648663628784     0.186526977484    12.000000000000
         H           -1.071945674188    -2.478645371216    -0.177005022516     1.007825032230
         H            2.868988325812     0.524043628784     0.128359977484     1.007825032230
         H            1.232282325812    -3.437224371216    -0.168512022516     1.007825032230
         H            3.190451325812    -1.905827371216    -0.026883022516     1.007825032230
         H            2.118526325812     2.559258628784    -0.724951022516     1.007825032230
         H            2.154565325812     2.487985628784     1.063961977484     1.007825032230
         H            1.072075325812     3.641113628784     0.235097977484     1.007825032230
         H           -2.292877674188    -0.822677371216     1.651404977484     1.007825032230
         H           -3.576973674188     0.001561628784     0.847863977484     1.007825032230

  Basis Set: AUG-CC-PVTZ
    Blend: AUG-CC-PVTZ
  Basis Set: (AUG-CC-PVTZ AUX)
    Blend: AUG-CC-PVTZ-JKFIT
	 Reference Energy          =    -512.5179681433708083 [Eh]
	 Singles Energy            =      -0.0000000000000000 [Eh]
	 Same-Spin Energy          =      -0.5357704305904321 [Eh]
	 Opposite-Spin Energy      =      -1.6457580673780803 [Eh]
	 Correlation Energy        =      -2.1815284979685123 [Eh]
	 Total Energy              =    -514.6994966413393513 [Eh]

	 ================> DF-SCS-MP2 Energies <==================
	-----------------------------------------------------------
	 SCS Same-Spin Scale       =       0.3333333333333333 [-]
	 SCS Opposite-Spin Scale   =       1.2000000000000000 [-]
	 SCS Same-Spin Energy      =      -0.1785901435301440 [Eh]
	 SCS Opposite-Spin Energy  =      -1.9749096808536963 [Eh]
	 SCS Correlation Energy    =      -2.1534998243838404 [Eh]
	 SCS Total Energy          =    -514.6714679677546656 [Eh]
	-----------------------------------------------------------

  Dipole Moment: [D]
     X:     1.8538      Y:    -0.8791      Z:     2.8999     Total:     3.5523

*** Psi4 exiting successfully. Buy a developer a beer!
