                               Psi4 1.4a3.dev225

  ==> Input File <==

--------------------------------------------------------------------------
#psi4
#
memory 32 gb

molecule  {
0 1
  O        0.3703410     1.7406370     0.1509160
  O       -2.1946130     0.9173750    -0.9921890
  N       -2.7109060    -0.4412560     0.7761490
  C       -0.4510660    -0.4506100    -0.0514270
  C        0.6599990     0.4108460     0.0342650
  C       -0.2507290    -1.8313420    -0.1181570
  C        1.9527030    -0.1242260     0.0401840
  C        1.0395390    -2.3670290    -0.1196300
  C        2.1335050    -1.5087060    -0.0439110
  C       -1.8406380     0.1093760    -0.1384300
  C        1.4719710     2.6442150     0.1686120
  H       -1.1182000    -2.4830940    -0.1949200
  H        2.8227340     0.5195950     0.1104450
  H        1.1860280    -3.4416730    -0.1864270
  H        3.1441970    -1.9102760    -0.0447980
  H        2.0722720     2.5548100    -0.7428660
  H        2.1083110     2.4835370     1.0460470
  H        1.0176288     3.6548884     0.2180749
  H       -2.3391320    -0.8271260     1.6334900
  H       -3.6232280    -0.0028870     0.8299490
units angstrom
no_reorient  #important for SAPT in psi4, default
symmetry c1  #important for SAPT in psi4, default
}

set PROPERTIES_ORIGIN ["COM"]
properties('MP2/aug-cc-pvtz', properties = ['dipole'])
--------------------------------------------------------------------------

    Molecular point group: c1
  Charge       = 0
  Multiplicity = 1
  Basis Set: AUG-CC-PVTZ
    Blend: AUG-CC-PVTZ
  Basis Set: (AUG-CC-PVTZ AUX)
    Blend: AUG-CC-PVTZ-JKFIT

    Orbital Energies [Eh]
    ---------------------

    Doubly Occupied:

       1A    -20.590558     2A    -20.517441     3A    -15.582843
       4A    -11.355096     5A    -11.317547     6A    -11.289999
       7A    -11.255427     8A    -11.254188     9A    -11.248374
      10A    -11.242828    11A    -11.238495    12A     -1.414034
      13A     -1.369708    14A     -1.207914    15A     -1.157948
      16A     -1.042811    17A     -1.024503    18A     -0.948025
      19A     -0.877261    20A     -0.824024    21A     -0.789336
      22A     -0.735571    23A     -0.709042    24A     -0.681545
      25A     -0.665619    26A     -0.657293    27A     -0.639083
      28A     -0.623318    29A     -0.596148    30A     -0.581088
      31A     -0.558344    32A     -0.542932    33A     -0.530145
      34A     -0.518367    35A     -0.499987    36A     -0.475902
      37A     -0.424147    38A     -0.411655    39A     -0.352400
      40A     -0.322888

  @DF-RHF Final Energy:  -512.54483343156198

   => Energetics <=

    Nuclear Repulsion Energy =            592.5658232615252246
    One-Electron Energy =               -1874.0736450334984511
    Two-Electron Energy =                 768.9629883404113571
    Total Energy =                       -512.5448334315619832
  Basis Set: (AUG-CC-PVTZ AUX)
    Blend: AUG-CC-PVTZ-RI
    Molecular point group: c1

    Geometry (in Angstrom), charge = 0, multiplicity = 1:

       Center              X                  Y                   Z               Mass
    ------------   -----------------  -----------------  -----------------  -----------------
         O            0.405060417157     1.744091952819     0.168389903665    15.994914619570
         O           -2.159893582843     0.920829952819    -0.974715096335    15.994914619570
         N           -2.676186582843    -0.437801047181     0.793622903665    14.003074004430
         C           -0.416346582843    -0.447155047181    -0.033953096335    12.000000000000
         C            0.694718417157     0.414300952819     0.051738903665    12.000000000000
         C           -0.216009582843    -1.827887047181    -0.100683096335    12.000000000000
         C            1.987422417157    -0.120771047181     0.057657903665    12.000000000000
         C            1.074258417157    -2.363574047181    -0.102156096335    12.000000000000
         C            2.168224417157    -1.505251047181    -0.026437096335    12.000000000000
         C           -1.805918582843     0.112830952819    -0.120956096335    12.000000000000
         C            1.506690417157     2.647669952819     0.186085903665    12.000000000000
         H           -1.083480582843    -2.479639047181    -0.177446096335     1.007825032230
         H            2.857453417157     0.523049952819     0.127918903665     1.007825032230
         H            1.220747417157    -3.438218047181    -0.168953096335     1.007825032230
         H            3.178916417157    -1.906821047181    -0.027324096335     1.007825032230
         H            2.106991417157     2.558264952819    -0.725392096335     1.007825032230
         H            2.143030417157     2.486991952819     1.063520903665     1.007825032230
         H            1.052348217157     3.658343352819     0.235548803665     1.007825032230
         H           -2.304412582843    -0.823671047181     1.650963903665     1.007825032230
         H           -3.588508582843     0.000567952819     0.847422903665     1.007825032230

  Basis Set: AUG-CC-PVTZ
    Blend: AUG-CC-PVTZ
  Basis Set: (AUG-CC-PVTZ AUX)
    Blend: AUG-CC-PVTZ-JKFIT
	 Reference Energy          =    -512.5448334315619832 [Eh]
	 Singles Energy            =      -0.0000000000000000 [Eh]
	 Same-Spin Energy          =      -0.5357171983376743 [Eh]
	 Opposite-Spin Energy      =      -1.6454369657565673 [Eh]
	 Correlation Energy        =      -2.1811541640942416 [Eh]
	 Total Energy              =    -514.7259875956561928 [Eh]

	 ================> DF-SCS-MP2 Energies <==================
	-----------------------------------------------------------
	 SCS Same-Spin Scale       =       0.3333333333333333 [-]
	 SCS Opposite-Spin Scale   =       1.2000000000000000 [-]
	 SCS Same-Spin Energy      =      -0.1785723994458914 [Eh]
	 SCS Opposite-Spin Energy  =      -1.9745243589078807 [Eh]
	 SCS Correlation Energy    =      -2.1530967583537719 [Eh]
	 SCS Total Energy          =    -514.6979301899157235 [Eh]
	-----------------------------------------------------------

  Dipole Moment: [D]
     X:     1.9952      Y:    -0.9253      Z:     2.8987     Total:     3.6387

*** Psi4 exiting successfully. Buy a developer a beer!
