                               Psi4 1.4a3.dev225

  ==> Input File <==

--------------------------------------------------------------------------
#psi4
#
memory 32 gb

molecule  {
0 1
  O        0.3703410     1.7406370     0.1509160
  O       -2.1946130     0.9173750    -0.9921890
  N       -2.7109060    -0.4412560     0.7761490
  C       -0.4510660    -0.4506100    -0.0514270
  C        0.6599990     0.4108460     0.0342650
  C       -0.2507290    -1.8313420    -0.1181570
  C        1.9527030    -0.1242260     0.0401840
  C        1.0395390    -2.3670290    -0.1196300
  C        2.1270421    -1.4592167    -0.0409050
  C       -1.8406380     0.1093760    -0.1384300
  C        1.4719710     2.6442150     0.1686120
  H       -1.1182000    -2.4830940    -0.1949200
  H        2.8227340     0.5195950     0.1104450
  H        1.1860280    -3.4416730    -0.1864270
  H        3.1441970    -1.9102760    -0.0447980
  H        2.0722720     2.5548100    -0.7428660
  H        2.1083110     2.4835370     1.0460470
  H        1.0258210     3.6366650     0.2171830
  H       -2.3391320    -0.8271260     1.6334900
  H       -3.6232280    -0.0028870     0.8299490
units angstrom
no_reorient  #important for SAPT in psi4, default
symmetry c1  #important for SAPT in psi4, default
}

set PROPERTIES_ORIGIN ["COM"]
properties('MP2/aug-cc-pvtz', properties = ['dipole'])
--------------------------------------------------------------------------

    Molecular point group: c1
  Charge       = 0
  Multiplicity = 1
  Basis Set: AUG-CC-PVTZ
    Blend: AUG-CC-PVTZ
  Basis Set: (AUG-CC-PVTZ AUX)
    Blend: AUG-CC-PVTZ-JKFIT

    Orbital Energies [Eh]
    ---------------------

    Doubly Occupied:

       1A    -20.591228     2A    -20.516818     3A    -15.582311
       4A    -11.354405     5A    -11.318553     6A    -11.288388
       7A    -11.254257     8A    -11.253589     9A    -11.246346
      10A    -11.239877    11A    -11.238942    12A     -1.414732
      13A     -1.369128    14A     -1.207420    15A     -1.160540
      16A     -1.046261    17A     -1.024646    18A     -0.949202
      19A     -0.874939    20A     -0.825478    21A     -0.789787
      22A     -0.735637    23A     -0.707745    24A     -0.682407
      25A     -0.666824    26A     -0.658012    27A     -0.637215
      28A     -0.623562    29A     -0.593925    30A     -0.584122
      31A     -0.558314    32A     -0.545047    33A     -0.530967
      34A     -0.521054    35A     -0.495235    36A     -0.476532
      37A     -0.423497    38A     -0.411190    39A     -0.358649
      40A     -0.318804

  @DF-RHF Final Energy:  -512.54232137172687

   => Energetics <=

    Nuclear Repulsion Energy =            593.2867425058163917
    One-Electron Energy =               -1875.5069516181984000
    Two-Electron Energy =                 769.6778877406551373
    Total Energy =                       -512.5423213717268709
  Basis Set: (AUG-CC-PVTZ AUX)
    Blend: AUG-CC-PVTZ-RI
    Molecular point group: c1

    Geometry (in Angstrom), charge = 0, multiplicity = 1:

       Center              X                  Y                   Z               Mass
    ------------   -----------------  -----------------  -----------------  -----------------
         O            0.405519155201     1.740282255211     0.168157066741    15.994914619570
         O           -2.159434844799     0.917020255211    -0.974947933259    15.994914619570
         N           -2.675727844799    -0.441610744789     0.793390066741    14.003074004430
         C           -0.415887844799    -0.450964744789    -0.034185933259    12.000000000000
         C            0.695177155201     0.410491255211     0.051506066741    12.000000000000
         C           -0.215550844799    -1.831696744789    -0.100915933259    12.000000000000
         C            1.987881155201    -0.124580744789     0.057425066741    12.000000000000
         C            1.074717155201    -2.367383744789    -0.102388933259    12.000000000000
         C            2.162220255201    -1.459571444789    -0.023663933259    12.000000000000
         C           -1.805459844799     0.109021255211    -0.121188933259    12.000000000000
         C            1.507149155201     2.643860255211     0.185853066741    12.000000000000
         H           -1.083021844799    -2.483448744789    -0.177678933259     1.007825032230
         H            2.857912155201     0.519240255211     0.127686066741     1.007825032230
         H            1.221206155201    -3.442027744789    -0.169185933259     1.007825032230
         H            3.179375155201    -1.910630744789    -0.027556933259     1.007825032230
         H            2.107450155201     2.554455255211    -0.725624933259     1.007825032230
         H            2.143489155201     2.483182255211     1.063288066741     1.007825032230
         H            1.060999155201     3.636310255211     0.234424066741     1.007825032230
         H           -2.303953844799    -0.827480744789     1.650731066741     1.007825032230
         H           -3.588049844799    -0.003241744789     0.847190066741     1.007825032230

  Basis Set: AUG-CC-PVTZ
    Blend: AUG-CC-PVTZ
  Basis Set: (AUG-CC-PVTZ AUX)
    Blend: AUG-CC-PVTZ-JKFIT
	 Reference Energy          =    -512.5423213717268709 [Eh]
	 Singles Energy            =      -0.0000000000000000 [Eh]
	 Same-Spin Energy          =      -0.5357423453195715 [Eh]
	 Opposite-Spin Energy      =      -1.6452685327772638 [Eh]
	 Correlation Energy        =      -2.1810108780968354 [Eh]
	 Total Energy              =    -514.7233322498236703 [Eh]

	 ================> DF-SCS-MP2 Energies <==================
	-----------------------------------------------------------
	 SCS Same-Spin Scale       =       0.3333333333333333 [-]
	 SCS Opposite-Spin Scale   =       1.2000000000000000 [-]
	 SCS Same-Spin Energy      =      -0.1785807817731905 [Eh]
	 SCS Opposite-Spin Energy  =      -1.9743222393327164 [Eh]
	 SCS Correlation Energy    =      -2.1529030211059070 [Eh]
	 SCS Total Energy          =    -514.6952243928327562 [Eh]
	-----------------------------------------------------------

  Dipole Moment: [D]
     X:     2.0201      Y:    -0.8870      Z:     2.9018     Total:     3.6453

*** Psi4 exiting successfully. Buy a developer a beer!
