                               Psi4 1.4a3.dev225

  ==> Input File <==

--------------------------------------------------------------------------
#psi4
#
memory 32 gb

molecule  {
0 1
  O        0.3703410     1.7406370     0.1509160
  O       -2.1946130     0.9173750    -0.9921890
  N       -2.7109060    -0.4412560     0.7761490
  C       -0.4510660    -0.4506100    -0.0514270
  C        0.6599990     0.4108460     0.0342650
  C       -0.2507290    -1.8313420    -0.1181570
  C        1.9527030    -0.1242260     0.0401840
  C        1.0395390    -2.3670290    -0.1196300
  C        2.1335050    -1.5087060    -0.0439110
  C       -1.8406380     0.1093760    -0.1384300
  C        1.4719710     2.6442150     0.1686120
  H       -1.1182000    -2.4830940    -0.1949200
  H        2.8227340     0.5195950     0.1104450
  H        1.1860280    -3.4416730    -0.1864270
  H        3.1441970    -1.9102760    -0.0447980
  H        2.0722720     2.5548100    -0.7428660
  H        2.1083110     2.4835370     1.0460470
  H        1.0258210     3.6366650     0.2171830
  H       -2.3391320    -0.8271260     1.6334900
  H       -3.4432125    -0.0893841     0.8193334
units angstrom
no_reorient  #important for SAPT in psi4, default
symmetry c1  #important for SAPT in psi4, default
}

set PROPERTIES_ORIGIN ["COM"]
properties('MP2/aug-cc-pvtz', properties = ['dipole'])
--------------------------------------------------------------------------

    Molecular point group: c1
  Charge       = 0
  Multiplicity = 1
  Basis Set: AUG-CC-PVTZ
    Blend: AUG-CC-PVTZ
  Basis Set: (AUG-CC-PVTZ AUX)
    Blend: AUG-CC-PVTZ-JKFIT

    Orbital Energies [Eh]
    ---------------------

    Doubly Occupied:

       1A    -20.590838     2A    -20.519676     3A    -15.562593
       4A    -11.356419     5A    -11.317811     6A    -11.288044
       7A    -11.255907     8A    -11.254544     9A    -11.248318
      10A    -11.243142    11A    -11.238923    12A     -1.414453
      13A     -1.374630    14A     -1.240997    15A     -1.160071
      16A     -1.046293    17A     -1.025218    18A     -0.950966
      19A     -0.889542    20A     -0.828508    21A     -0.801376
      22A     -0.745946    23A     -0.724787    24A     -0.689443
      25A     -0.672915    26A     -0.658243    27A     -0.640784
      28A     -0.624372    29A     -0.600365    30A     -0.583585
      31A     -0.561454    32A     -0.544555    33A     -0.531040
      34A     -0.519646    35A     -0.501084    36A     -0.476367
      37A     -0.426054    38A     -0.415843    39A     -0.352942
      40A     -0.323296

  @DF-RHF Final Energy:  -512.50026975811522

   => Energetics <=

    Nuclear Repulsion Energy =            594.0183611301108613
    One-Electron Energy =               -1876.6352823216948309
    Two-Electron Energy =                 770.1166514334687463
    Total Energy =                       -512.5002697581152233
  Basis Set: (AUG-CC-PVTZ AUX)
    Blend: AUG-CC-PVTZ-RI
    Molecular point group: c1

    Geometry (in Angstrom), charge = 0, multiplicity = 1:

       Center              X                  Y                   Z               Mass
    ------------   -----------------  -----------------  -----------------  -----------------
         O            0.403804781967     1.744790599819     0.168466676411    15.994914619570
         O           -2.161149218033     0.921528599819    -0.974638323589    15.994914619570
         N           -2.677442218033    -0.437102400181     0.793699676411    14.003074004430
         C           -0.417602218033    -0.446456400181    -0.033876323589    12.000000000000
         C            0.693462781967     0.414999599819     0.051815676411    12.000000000000
         C           -0.217265218033    -1.827188400181    -0.100606323589    12.000000000000
         C            1.986166781967    -0.120072400181     0.057734676411    12.000000000000
         C            1.073002781967    -2.362875400181    -0.102079323589    12.000000000000
         C            2.166968781967    -1.504552400181    -0.026360323589    12.000000000000
         C           -1.807174218033     0.113529599819    -0.120879323589    12.000000000000
         C            1.505434781967     2.648368599819     0.186162676411    12.000000000000
         H           -1.084736218033    -2.478940400181    -0.177369323589     1.007825032230
         H            2.856197781967     0.523748599819     0.127995676411     1.007825032230
         H            1.219491781967    -3.437519400181    -0.168876323589     1.007825032230
         H            3.177660781967    -1.906122400181    -0.027247323589     1.007825032230
         H            2.105735781967     2.558963599819    -0.725315323589     1.007825032230
         H            2.141774781967     2.487690599819     1.063597676411     1.007825032230
         H            1.059284781967     3.640818599819     0.234733676411     1.007825032230
         H           -2.305668218033    -0.822972400181     1.651040676411     1.007825032230
         H           -3.409748718033    -0.085230500181     0.836884076411     1.007825032230

  Basis Set: AUG-CC-PVTZ
    Blend: AUG-CC-PVTZ
  Basis Set: (AUG-CC-PVTZ AUX)
    Blend: AUG-CC-PVTZ-JKFIT
	 Reference Energy          =    -512.5002697581152233 [Eh]
	 Singles Energy            =      -0.0000000000000000 [Eh]
	 Same-Spin Energy          =      -0.5345988311869705 [Eh]
	 Opposite-Spin Energy      =      -1.6428395478411892 [Eh]
	 Correlation Energy        =      -2.1774383790281595 [Eh]
	 Total Energy              =    -514.6777081371433269 [Eh]

	 ================> DF-SCS-MP2 Energies <==================
	-----------------------------------------------------------
	 SCS Same-Spin Scale       =       0.3333333333333333 [-]
	 SCS Opposite-Spin Scale   =       1.2000000000000000 [-]
	 SCS Same-Spin Energy      =      -0.1781996103956568 [Eh]
	 SCS Opposite-Spin Energy  =      -1.9714074574094269 [Eh]
	 SCS Correlation Energy    =      -2.1496070678050838 [Eh]
	 SCS Total Energy          =    -514.6498768259202734 [Eh]
	-----------------------------------------------------------

  Dipole Moment: [D]
     X:     2.1746      Y:    -0.9710      Z:     2.8825     Total:     3.7391

*** Psi4 exiting successfully. Buy a developer a beer!
