                               Psi4 1.4a3.dev225

  ==> Input File <==

--------------------------------------------------------------------------
#psi4
#
memory 32 gb

molecule  {
0 1
  O        0.3703410     1.7406370     0.1509160
  O       -2.1946130     0.9173750    -0.9921890
  N       -2.7109060    -0.4412560     0.7761490
  C       -0.4510660    -0.4506100    -0.0514270
  C        0.6599990     0.4108460     0.0342650
  C       -0.2507290    -1.8313420    -0.1181570
  C        1.9527030    -0.1242260     0.0401840
  C        1.0395390    -2.3670290    -0.1196300
  C        2.1335050    -1.5087060    -0.0439110
  C       -1.8406380     0.1093760    -0.1384300
  C        1.4719710     2.6442150     0.1686120
  H       -1.1182000    -2.4830940    -0.1949200
  H        2.8227340     0.5195950     0.1104450
  H        1.1860280    -3.4416730    -0.1864270
  H        3.1441970    -1.9102760    -0.0447980
  H        2.0722720     2.5548100    -0.7428660
  H        2.1083110     2.4835370     1.0460470
  H        0.9848599     3.7277820     0.2216423
  H       -2.3391320    -0.8271260     1.6334900
  H       -3.6232280    -0.0028870     0.8299490
units angstrom
no_reorient  #important for SAPT in psi4, default
symmetry c1  #important for SAPT in psi4, default
}

set PROPERTIES_ORIGIN ["COM"]
properties('MP2/aug-cc-pvtz', properties = ['dipole'])
--------------------------------------------------------------------------

    Molecular point group: c1
  Charge       = 0
  Multiplicity = 1
  Basis Set: AUG-CC-PVTZ
    Blend: AUG-CC-PVTZ
  Basis Set: (AUG-CC-PVTZ AUX)
    Blend: AUG-CC-PVTZ-JKFIT

    Orbital Energies [Eh]
    ---------------------

    Doubly Occupied:

       1A    -20.591477     2A    -20.517642     3A    -15.583018
       4A    -11.355316     5A    -11.318165     6A    -11.299050
       7A    -11.255794     8A    -11.254577     9A    -11.248809
      10A    -11.243341    11A    -11.238876    12A     -1.414688
      13A     -1.369909    14A     -1.208104    15A     -1.158279
      16A     -1.042954    17A     -1.024090    18A     -0.943124
      19A     -0.877580    20A     -0.823130    21A     -0.789575
      22A     -0.735848    23A     -0.709444    24A     -0.680999
      25A     -0.664972    26A     -0.658086    27A     -0.638357
      28A     -0.622766    29A     -0.595204    30A     -0.576868
      31A     -0.558592    32A     -0.540218    33A     -0.529613
      34A     -0.516538    35A     -0.497090    36A     -0.476432
      37A     -0.424327    38A     -0.411832    39A     -0.352787
      40A     -0.323354

  @DF-RHF Final Energy:  -512.53854613083001

   => Energetics <=

    Nuclear Repulsion Energy =            592.2044854465138997
    One-Electron Energy =               -1873.3444034897679558
    Two-Electron Energy =                 768.6013719124240424
    Total Energy =                       -512.5385461308300137
  Basis Set: (AUG-CC-PVTZ AUX)
    Blend: AUG-CC-PVTZ-RI
    Molecular point group: c1

    Geometry (in Angstrom), charge = 0, multiplicity = 1:

       Center              X                  Y                   Z               Mass
    ------------   -----------------  -----------------  -----------------  -----------------
         O            0.405279036183     1.743605640254     0.168366103614    15.994914619570
         O           -2.159674963817     0.920343640254    -0.974738896386    15.994914619570
         N           -2.675967963817    -0.438287359746     0.793599103614    14.003074004430
         C           -0.416127963817    -0.447641359746    -0.033976896386    12.000000000000
         C            0.694937036183     0.413814640254     0.051715103614    12.000000000000
         C           -0.215790963817    -1.828373359746    -0.100706896386    12.000000000000
         C            1.987641036183    -0.121257359746     0.057634103614    12.000000000000
         C            1.074477036183    -2.364060359746    -0.102179896386    12.000000000000
         C            2.168443036183    -1.505737359746    -0.026460896386    12.000000000000
         C           -1.805699963817     0.112344640254    -0.120979896386    12.000000000000
         C            1.506909036183     2.647183640254     0.186062103614    12.000000000000
         H           -1.083261963817    -2.480125359746    -0.177469896386     1.007825032230
         H            2.857672036183     0.522563640254     0.127895103614     1.007825032230
         H            1.220966036183    -3.438704359746    -0.168976896386     1.007825032230
         H            3.179135036183    -1.907307359746    -0.027347896386     1.007825032230
         H            2.107210036183     2.557778640254    -0.725415896386     1.007825032230
         H            2.143249036183     2.486505640254     1.063497103614     1.007825032230
         H            1.019797936183     3.730750640254     0.239092403614     1.007825032230
         H           -2.304193963817    -0.824157359746     1.650940103614     1.007825032230
         H           -3.588289963817     0.000081640254     0.847399103614     1.007825032230

  Basis Set: AUG-CC-PVTZ
    Blend: AUG-CC-PVTZ
  Basis Set: (AUG-CC-PVTZ AUX)
    Blend: AUG-CC-PVTZ-JKFIT
	 Reference Energy          =    -512.5385461308300137 [Eh]
	 Singles Energy            =      -0.0000000000000000 [Eh]
	 Same-Spin Energy          =      -0.5357692258116785 [Eh]
	 Opposite-Spin Energy      =      -1.6461119481392266 [Eh]
	 Correlation Energy        =      -2.1818811739509050 [Eh]
	 Total Energy              =    -514.7204273047809693 [Eh]

	 ================> DF-SCS-MP2 Energies <==================
	-----------------------------------------------------------
	 SCS Same-Spin Scale       =       0.3333333333333333 [-]
	 SCS Opposite-Spin Scale   =       1.2000000000000000 [-]
	 SCS Same-Spin Energy      =      -0.1785897419372262 [Eh]
	 SCS Opposite-Spin Energy  =      -1.9753343377670718 [Eh]
	 SCS Correlation Energy    =      -2.1539240797042978 [Eh]
	 SCS Total Energy          =    -514.6924702105343385 [Eh]
	-----------------------------------------------------------

  Dipole Moment: [D]
     X:     1.9887      Y:    -0.9777      Z:     2.8954     Total:     3.6461

*** Psi4 exiting successfully. Buy a developer a beer!
