                               Psi4 1.4a3.dev225

  ==> Input File <==

--------------------------------------------------------------------------
#psi4
#
memory 32 gb

molecule  {
0 1
  O        0.3703410     1.7406370     0.1509160
  O       -2.1946130     0.9173750    -0.9921890
  N       -2.7109060    -0.4412560     0.7761490
  C       -0.4510660    -0.4506100    -0.0514270
  C        0.6599990     0.4108460     0.0342650
  C       -0.2507290    -1.8313420    -0.1181570
  C        1.9527030    -0.1242260     0.0401840
  C        1.0395390    -2.3670290    -0.1196300
  C        2.2774206    -1.4825588    -0.0375120
  C       -1.8406380     0.1093760    -0.1384300
  C        1.4719710     2.6442150     0.1686120
  H       -1.1182000    -2.4830940    -0.1949200
  H        2.8227340     0.5195950     0.1104450
  H        1.1860280    -3.4416730    -0.1864270
  H        3.1441970    -1.9102760    -0.0447980
  H        2.0722720     2.5548100    -0.7428660
  H        2.1083110     2.4835370     1.0460470
  H        1.0258210     3.6366650     0.2171830
  H       -2.3391320    -0.8271260     1.6334900
  H       -3.6232280    -0.0028870     0.8299490
units angstrom
no_reorient  #important for SAPT in psi4, default
symmetry c1  #important for SAPT in psi4, default
}

set PROPERTIES_ORIGIN ["COM"]
properties('MP2/aug-cc-pvtz', properties = ['dipole'])
--------------------------------------------------------------------------

    Molecular point group: c1
  Charge       = 0
  Multiplicity = 1
  Basis Set: AUG-CC-PVTZ
    Blend: AUG-CC-PVTZ
  Basis Set: (AUG-CC-PVTZ AUX)
    Blend: AUG-CC-PVTZ-JKFIT

    Orbital Energies [Eh]
    ---------------------

    Doubly Occupied:

       1A    -20.591302     2A    -20.517752     3A    -15.583016
       4A    -11.355148     5A    -11.318943     6A    -11.287628
       7A    -11.259823     8A    -11.253941     9A    -11.251090
      10A    -11.249059    11A    -11.248009    12A     -1.414574
      13A     -1.369913    14A     -1.207987    15A     -1.148130
      16A     -1.043321    17A     -1.018378    18A     -0.945955
      19A     -0.887697    20A     -0.818866    21A     -0.792215
      22A     -0.736035    23A     -0.720940    24A     -0.684755
      25A     -0.665231    26A     -0.657131    27A     -0.640531
      28A     -0.623094    29A     -0.606397    30A     -0.576915
      31A     -0.557243    32A     -0.555290    33A     -0.527094
      34A     -0.515288    35A     -0.487588    36A     -0.468935
      37A     -0.424763    38A     -0.411671    39A     -0.356445
      40A     -0.312620

  @DF-RHF Final Energy:  -512.51480792173015

   => Energetics <=

    Nuclear Repulsion Energy =            590.3795532013519960
    One-Electron Energy =               -1869.6072973060697677
    Two-Electron Energy =                 766.7129361829875052
    Total Energy =                       -512.5148079217301529
  Basis Set: (AUG-CC-PVTZ AUX)
    Blend: AUG-CC-PVTZ-RI
    Molecular point group: c1

    Geometry (in Angstrom), charge = 0, multiplicity = 1:

       Center              X                  Y                   Z               Mass
    ------------   -----------------  -----------------  -----------------  -----------------
         O            0.393573555845     1.742136478885     0.167887537396    15.994914619570
         O           -2.171380444155     0.918874478885    -0.975217462604    15.994914619570
         N           -2.687673444155    -0.439756521115     0.793120537396    14.003074004430
         C           -0.427833444155    -0.449110521115    -0.034455462604    12.000000000000
         C            0.683231555845     0.412345478885     0.051236537396    12.000000000000
         C           -0.227496444155    -1.829842521115    -0.101185462604    12.000000000000
         C            1.975935555845    -0.122726521115     0.057155537396    12.000000000000
         C            1.062771555845    -2.365529521115    -0.102658462604    12.000000000000
         C            2.300653155845    -1.481059321115    -0.020540462604    12.000000000000
         C           -1.817405444155     0.110875478885    -0.121458462604    12.000000000000
         C            1.495203555845     2.645714478885     0.185583537396    12.000000000000
         H           -1.094967444155    -2.481594521115    -0.177948462604     1.007825032230
         H            2.845966555845     0.521094478885     0.127416537396     1.007825032230
         H            1.209260555845    -3.440173521115    -0.169455462604     1.007825032230
         H            3.167429555845    -1.908776521115    -0.027826462604     1.007825032230
         H            2.095504555845     2.556309478885    -0.725894462604     1.007825032230
         H            2.131543555845     2.485036478885     1.063018537396     1.007825032230
         H            1.049053555845     3.638164478885     0.234154537396     1.007825032230
         H           -2.315899444155    -0.825626521115     1.650461537396     1.007825032230
         H           -3.599995444155    -0.001387521115     0.846920537396     1.007825032230

  Basis Set: AUG-CC-PVTZ
    Blend: AUG-CC-PVTZ
  Basis Set: (AUG-CC-PVTZ AUX)
    Blend: AUG-CC-PVTZ-JKFIT
	 Reference Energy          =    -512.5148079217301529 [Eh]
	 Singles Energy            =      -0.0000000000000000 [Eh]
	 Same-Spin Energy          =      -0.5363368945815628 [Eh]
	 Opposite-Spin Energy      =      -1.6479782984102354 [Eh]
	 Correlation Energy        =      -2.1843151929917983 [Eh]
	 Total Energy              =    -514.6991231147219423 [Eh]

	 ================> DF-SCS-MP2 Energies <==================
	-----------------------------------------------------------
	 SCS Same-Spin Scale       =       0.3333333333333333 [-]
	 SCS Opposite-Spin Scale   =       1.2000000000000000 [-]
	 SCS Same-Spin Energy      =      -0.1787789648605209 [Eh]
	 SCS Opposite-Spin Energy  =      -1.9775739580922824 [Eh]
	 SCS Correlation Energy    =      -2.1563529229528031 [Eh]
	 SCS Total Energy          =    -514.6711608446829587 [Eh]
	-----------------------------------------------------------

  Dipole Moment: [D]
     X:     2.0294      Y:    -0.8990      Z:     2.8997     Total:     3.6517

*** Psi4 exiting successfully. Buy a developer a beer!
