                               Psi4 1.4a3.dev225

  ==> Input File <==

--------------------------------------------------------------------------
#psi4
#
memory 32 gb

molecule  {
0 1
  O        0.3703410     1.7406370     0.1509160
  O       -2.1946130     0.9173750    -0.9921890
  N       -2.7109060    -0.4412560     0.7761490
  C       -0.4510660    -0.4506100    -0.0514270
  C        0.6599990     0.4108460     0.0342650
  C       -0.2507290    -1.8313420    -0.1181570
  C        1.9527030    -0.1242260     0.0401840
  C        1.2242520    -2.4437172    -0.1198409
  C        2.1335050    -1.5087060    -0.0439110
  C       -1.8406380     0.1093760    -0.1384300
  C        1.4719710     2.6442150     0.1686120
  H       -1.1182000    -2.4830940    -0.1949200
  H        2.8227340     0.5195950     0.1104450
  H        1.1860280    -3.4416730    -0.1864270
  H        3.1441970    -1.9102760    -0.0447980
  H        2.0722720     2.5548100    -0.7428660
  H        2.1083110     2.4835370     1.0460470
  H        1.0258210     3.6366650     0.2171830
  H       -2.3391320    -0.8271260     1.6334900
  H       -3.6232280    -0.0028870     0.8299490
units angstrom
no_reorient  #important for SAPT in psi4, default
symmetry c1  #important for SAPT in psi4, default
}

set PROPERTIES_ORIGIN ["COM"]
properties('MP2/aug-cc-pvtz', properties = ['dipole'])
--------------------------------------------------------------------------

    Molecular point group: c1
  Charge       = 0
  Multiplicity = 1
  Basis Set: AUG-CC-PVTZ
    Blend: AUG-CC-PVTZ
  Basis Set: (AUG-CC-PVTZ AUX)
    Blend: AUG-CC-PVTZ-JKFIT

    Orbital Energies [Eh]
    ---------------------

    Doubly Occupied:

       1A    -20.592517     2A    -20.518951     3A    -15.584016
       4A    -11.357024     5A    -11.319784     6A    -11.287664
       7A    -11.272483     8A    -11.252714     9A    -11.243438
      10A    -11.240487    11A    -11.237957    12A     -1.415323
      13A     -1.371280    14A     -1.208824    15A     -1.151401
      16A     -1.054541    17A     -1.010467    18A     -0.954054
      19A     -0.868112    20A     -0.831945    21A     -0.792539
      22A     -0.736671    23A     -0.709390    24A     -0.694583
      25A     -0.664289    26A     -0.657546    27A     -0.644486
      28A     -0.618223    29A     -0.595165    30A     -0.586171
      31A     -0.567836    32A     -0.540684    33A     -0.526624
      34A     -0.517795    35A     -0.483227    36A     -0.472787
      37A     -0.422479    38A     -0.411671    39A     -0.358819
      40A     -0.318182

  @DF-RHF Final Energy:  -512.50519134684316

   => Energetics <=

    Nuclear Repulsion Energy =            590.3735772567426920
    One-Electron Energy =               -1869.5732399711332619
    Two-Electron Energy =                 766.6944713675474077
    Total Energy =                       -512.5051913468431621
  Basis Set: (AUG-CC-PVTZ AUX)
    Blend: AUG-CC-PVTZ-RI
    Molecular point group: c1

    Geometry (in Angstrom), charge = 0, multiplicity = 1:

       Center              X                  Y                   Z               Mass
    ------------   -----------------  -----------------  -----------------  -----------------
         O            0.390332737542     1.750305402554     0.168412607251    15.994914619570
         O           -2.174621262458     0.927043402554    -0.974692392749    15.994914619570
         N           -2.690914262458    -0.431587597446     0.793645607251    14.003074004430
         C           -0.431074262458    -0.440941597446    -0.033930392749    12.000000000000
         C            0.679990737542     0.420514402554     0.051761607251    12.000000000000
         C           -0.230737262458    -1.821673597446    -0.100660392749    12.000000000000
         C            1.972694737542    -0.114557597446     0.057680607251    12.000000000000
         C            1.244243737542    -2.434048797446    -0.102344292749    12.000000000000
         C            2.153496737542    -1.499037597446    -0.026414392749    12.000000000000
         C           -1.820646262458     0.119044402554    -0.120933392749    12.000000000000
         C            1.491962737542     2.653883402554     0.186108607251    12.000000000000
         H           -1.098208262458    -2.473425597446    -0.177423392749     1.007825032230
         H            2.842725737542     0.529263402554     0.127941607251     1.007825032230
         H            1.206019737542    -3.432004597446    -0.168930392749     1.007825032230
         H            3.164188737542    -1.900607597446    -0.027301392749     1.007825032230
         H            2.092263737542     2.564478402554    -0.725369392749     1.007825032230
         H            2.128302737542     2.493205402554     1.063543607251     1.007825032230
         H            1.045812737542     3.646333402554     0.234679607251     1.007825032230
         H           -2.319140262458    -0.817457597446     1.650986607251     1.007825032230
         H           -3.603236262458     0.006781402554     0.847445607251     1.007825032230

  Basis Set: AUG-CC-PVTZ
    Blend: AUG-CC-PVTZ
  Basis Set: (AUG-CC-PVTZ AUX)
    Blend: AUG-CC-PVTZ-JKFIT
	 Reference Energy          =    -512.5051913468431621 [Eh]
	 Singles Energy            =      -0.0000000000000000 [Eh]
	 Same-Spin Energy          =      -0.5346798607909098 [Eh]
	 Opposite-Spin Energy      =      -1.6472530522276532 [Eh]
	 Correlation Energy        =      -2.1819329130185627 [Eh]
	 Total Energy              =    -514.6871242598617755 [Eh]

	 ================> DF-SCS-MP2 Energies <==================
	-----------------------------------------------------------
	 SCS Same-Spin Scale       =       0.3333333333333333 [-]
	 SCS Opposite-Spin Scale   =       1.2000000000000000 [-]
	 SCS Same-Spin Energy      =      -0.1782266202636366 [Eh]
	 SCS Opposite-Spin Energy  =      -1.9767036626731838 [Eh]
	 SCS Correlation Energy    =      -2.1549302829368204 [Eh]
	 SCS Total Energy          =    -514.6601216297799510 [Eh]
	-----------------------------------------------------------

  Dipole Moment: [D]
     X:     1.8434      Y:    -0.9122      Z:     2.8955     Total:     3.5516

*** Psi4 exiting successfully. Buy a developer a beer!
