                               Psi4 1.4a3.dev225

  ==> Input File <==

--------------------------------------------------------------------------
#psi4
#
memory 32 gb

molecule  {
0 1
  O        0.3703410     1.7406370     0.1509160
  O       -2.1946130     0.9173750    -0.9921890
  N       -2.7109060    -0.4412560     0.7761490
  C       -0.4510660    -0.4506100    -0.0514270
  C        0.6599990     0.4108460     0.0342650
  C       -0.2507290    -1.8313420    -0.1181570
  C        1.9527030    -0.1242260     0.0401840
  C        1.0395390    -2.3670290    -0.1196300
  C        2.1335050    -1.5087060    -0.0439110
  C       -1.8406380     0.1093760    -0.1384300
  C        1.4719710     2.6442150     0.1686120
  H       -1.1182000    -2.4830940    -0.1949200
  H        2.8227340     0.5195950     0.1104450
  H        1.1860280    -3.4416730    -0.1864270
  H        3.1441970    -1.9102760    -0.0447980
  H        2.0408617     2.5619288    -0.7634497
  H        2.1083110     2.4835370     1.0460470
  H        1.0258210     3.6366650     0.2171830
  H       -2.3391320    -0.8271260     1.6334900
  H       -3.6232280    -0.0028870     0.8299490
units angstrom
no_reorient  #important for SAPT in psi4, default
symmetry c1  #important for SAPT in psi4, default
}

set PROPERTIES_ORIGIN ["COM"]
properties('MP2/aug-cc-pvtz', properties = ['dipole'])
--------------------------------------------------------------------------

    Molecular point group: c1
  Charge       = 0
  Multiplicity = 1
  Basis Set: AUG-CC-PVTZ
    Blend: AUG-CC-PVTZ
  Basis Set: (AUG-CC-PVTZ AUX)
    Blend: AUG-CC-PVTZ-JKFIT

    Orbital Energies [Eh]
    ---------------------

    Doubly Occupied:

       1A    -20.589768     2A    -20.517331     3A    -15.582749
       4A    -11.354980     5A    -11.317265     6A    -11.287613
       7A    -11.255260     8A    -11.254001     9A    -11.248159
      10A    -11.242549    11A    -11.238302    12A     -1.413691
      13A     -1.369599    14A     -1.207813    15A     -1.157785
      16A     -1.042709    17A     -1.024624    18A     -0.949280
      19A     -0.877079    20A     -0.824042    21A     -0.789091
      22A     -0.735158    23A     -0.708333    24A     -0.681594
      25A     -0.665929    26A     -0.658688    27A     -0.639049
      28A     -0.623232    29A     -0.596468    30A     -0.582061
      31A     -0.558334    32A     -0.542862    33A     -0.531333
      34A     -0.518365    35A     -0.499305    36A     -0.476131
      37A     -0.424037    38A     -0.411560    39A     -0.352221
      40A     -0.322639

  @DF-RHF Final Energy:  -512.54529334308950

   => Energetics <=

    Nuclear Repulsion Energy =            592.6790089530099976
    One-Electron Energy =               -1874.3066260326665997
    Two-Electron Energy =                 769.0823237365671048
    Total Energy =                       -512.5452933430894973
  Basis Set: (AUG-CC-PVTZ AUX)
    Blend: AUG-CC-PVTZ-RI
    Molecular point group: c1

    Geometry (in Angstrom), charge = 0, multiplicity = 1:

       Center              X                  Y                   Z               Mass
    ------------   -----------------  -----------------  -----------------  -----------------
         O            0.405215317639     1.744166037602     0.168533178989    15.994914619570
         O           -2.159738682361     0.920904037602    -0.974571821011    15.994914619570
         N           -2.676031682361    -0.437726962398     0.793766178989    14.003074004430
         C           -0.416191682361    -0.447080962398    -0.033809821011    12.000000000000
         C            0.694873317639     0.414375037602     0.051882178989    12.000000000000
         C           -0.215854682361    -1.827812962398    -0.100539821011    12.000000000000
         C            1.987577317639    -0.120696962398     0.057801178989    12.000000000000
         C            1.074413317639    -2.363499962398    -0.102012821011    12.000000000000
         C            2.168379317639    -1.505176962398    -0.026293821011    12.000000000000
         C           -1.805763682361     0.112905037602    -0.120812821011    12.000000000000
         C            1.506845317639     2.647744037602     0.186229178989    12.000000000000
         H           -1.083325682361    -2.479564962398    -0.177302821011     1.007825032230
         H            2.857608317639     0.523124037602     0.128062178989     1.007825032230
         H            1.220902317639    -3.438143962398    -0.168809821011     1.007825032230
         H            3.179071317639    -1.906746962398    -0.027180821011     1.007825032230
         H            2.075736017639     2.565457837602    -0.745832521011     1.007825032230
         H            2.143185317639     2.487066037602     1.063664178989     1.007825032230
         H            1.060695317639     3.640194037602     0.234800178989     1.007825032230
         H           -2.304257682361    -0.823596962398     1.651107178989     1.007825032230
         H           -3.588353682361     0.000642037602     0.847566178989     1.007825032230

  Basis Set: AUG-CC-PVTZ
    Blend: AUG-CC-PVTZ
  Basis Set: (AUG-CC-PVTZ AUX)
    Blend: AUG-CC-PVTZ-JKFIT
	 Reference Energy          =    -512.5452933430894973 [Eh]
	 Singles Energy            =      -0.0000000000000000 [Eh]
	 Same-Spin Energy          =      -0.5356961089315516 [Eh]
	 Opposite-Spin Energy      =      -1.6452793158541863 [Eh]
	 Correlation Energy        =      -2.1809754247857378 [Eh]
	 Total Energy              =    -514.7262687678752400 [Eh]

	 ================> DF-SCS-MP2 Energies <==================
	-----------------------------------------------------------
	 SCS Same-Spin Scale       =       0.3333333333333333 [-]
	 SCS Opposite-Spin Scale   =       1.2000000000000000 [-]
	 SCS Same-Spin Energy      =      -0.1785653696438505 [Eh]
	 SCS Opposite-Spin Energy  =      -1.9743351790250234 [Eh]
	 SCS Correlation Energy    =      -2.1529005486688741 [Eh]
	 SCS Total Energy          =    -514.6981938917583648 [Eh]
	-----------------------------------------------------------

  Dipole Moment: [D]
     X:     1.9940      Y:    -0.8985      Z:     2.8983     Total:     3.6309

*** Psi4 exiting successfully. Buy a developer a beer!
