                               Psi4 1.4a3.dev225

  ==> Input File <==

--------------------------------------------------------------------------
#psi4
#
memory 32 gb

molecule  {
0 1
  O        0.3703410     1.7406370     0.1509160
  O       -2.1946130     0.9173750    -0.9921890
  N       -2.7109060    -0.4412560     0.7761490
  C       -0.4510660    -0.4506100    -0.0514270
  C        0.6599990     0.4108460     0.0342650
  C       -0.2507290    -1.8313420    -0.1181570
  C        1.9527030    -0.1242260     0.0401840
  C        1.0395390    -2.3670290    -0.1196300
  C        2.1335050    -1.5087060    -0.0439110
  C       -1.8406380     0.1093760    -0.1384300
  C        1.4719710     2.6442150     0.1686120
  H       -1.1182000    -2.4830940    -0.1949200
  H        2.8227340     0.5195950     0.1104450
  H        1.1860280    -3.4416730    -0.1864270
  H        3.1906636    -1.9287382    -0.0448388
  H        2.0722720     2.5548100    -0.7428660
  H        2.1083110     2.4835370     1.0460470
  H        1.0258210     3.6366650     0.2171830
  H       -2.3391320    -0.8271260     1.6334900
  H       -3.6232280    -0.0028870     0.8299490
units angstrom
no_reorient  #important for SAPT in psi4, default
symmetry c1  #important for SAPT in psi4, default
}

set PROPERTIES_ORIGIN ["COM"]
properties('MP2/aug-cc-pvtz', properties = ['dipole'])
--------------------------------------------------------------------------

    Molecular point group: c1
  Charge       = 0
  Multiplicity = 1
  Basis Set: AUG-CC-PVTZ
    Blend: AUG-CC-PVTZ
  Basis Set: (AUG-CC-PVTZ AUX)
    Blend: AUG-CC-PVTZ-JKFIT

    Orbital Energies [Eh]
    ---------------------

    Doubly Occupied:

       1A    -20.590588     2A    -20.517520     3A    -15.582922
       4A    -11.355180     5A    -11.317740     6A    -11.287788
       7A    -11.259802     8A    -11.255692     9A    -11.248461
      10A    -11.243186    11A    -11.238881    12A     -1.414116
      13A     -1.369789    14A     -1.207997    15A     -1.157899
      16A     -1.041759    17A     -1.025003    18A     -0.949595
      19A     -0.874832    20A     -0.824514    21A     -0.788785
      22A     -0.735155    23A     -0.706380    24A     -0.681463
      25A     -0.666000    26A     -0.657240    27A     -0.637499
      28A     -0.623413    29A     -0.593950    30A     -0.582431
      31A     -0.558438    32A     -0.541207    33A     -0.530439
      34A     -0.518993    35A     -0.499114    36A     -0.476046
      37A     -0.424182    38A     -0.411725    39A     -0.352574
      40A     -0.323054

  @DF-RHF Final Energy:  -512.54291207988319

   => Energetics <=

    Nuclear Repulsion Energy =            592.4039737711582347
    One-Electron Energy =               -1873.7510686628154417
    Two-Electron Energy =                 768.8041828117740124
    Total Energy =                       -512.5429120798831946
  Basis Set: (AUG-CC-PVTZ AUX)
    Blend: AUG-CC-PVTZ-RI
    Molecular point group: c1

    Geometry (in Angstrom), charge = 0, multiplicity = 1:

       Center              X                  Y                   Z               Mass
    ------------   -----------------  -----------------  -----------------  -----------------
         O            0.404695758789     1.744336702265     0.168396126211    15.994914619570
         O           -2.160258241211     0.921074702265    -0.974708873789    15.994914619570
         N           -2.676551241211    -0.437556297735     0.793629126211    14.003074004430
         C           -0.416711241211    -0.446910297735    -0.033946873789    12.000000000000
         C            0.694353758789     0.414545702265     0.051745126211    12.000000000000
         C           -0.216374241211    -1.827642297735    -0.100676873789    12.000000000000
         C            1.987057758789    -0.120526297735     0.057664126211    12.000000000000
         C            1.073893758789    -2.363329297735    -0.102149873789    12.000000000000
         C            2.167859758789    -1.505006297735    -0.026430873789    12.000000000000
         C           -1.806283241211     0.113075702265    -0.120949873789    12.000000000000
         C            1.506325758789     2.647914702265     0.186092126211    12.000000000000
         H           -1.083845241211    -2.479394297735    -0.177439873789     1.007825032230
         H            2.857088758789     0.523294702265     0.127925126211     1.007825032230
         H            1.220382758789    -3.437973297735    -0.168946873789     1.007825032230
         H            3.225018358789    -1.925038497735    -0.027358673789     1.007825032230
         H            2.106626758789     2.558509702265    -0.725385873789     1.007825032230
         H            2.142665758789     2.487236702265     1.063527126211     1.007825032230
         H            1.060175758789     3.640364702265     0.234663126211     1.007825032230
         H           -2.304777241211    -0.823426297735     1.650970126211     1.007825032230
         H           -3.588873241211     0.000812702265     0.847429126211     1.007825032230

  Basis Set: AUG-CC-PVTZ
    Blend: AUG-CC-PVTZ
  Basis Set: (AUG-CC-PVTZ AUX)
    Blend: AUG-CC-PVTZ-JKFIT
	 Reference Energy          =    -512.5429120798831946 [Eh]
	 Singles Energy            =      -0.0000000000000000 [Eh]
	 Same-Spin Energy          =      -0.5358085857135466 [Eh]
	 Opposite-Spin Energy      =      -1.6457136666052266 [Eh]
	 Correlation Energy        =      -2.1815222523187732 [Eh]
	 Total Energy              =    -514.7244343322020086 [Eh]

	 ================> DF-SCS-MP2 Energies <==================
	-----------------------------------------------------------
	 SCS Same-Spin Scale       =       0.3333333333333333 [-]
	 SCS Opposite-Spin Scale   =       1.2000000000000000 [-]
	 SCS Same-Spin Energy      =      -0.1786028619045155 [Eh]
	 SCS Opposite-Spin Energy  =      -1.9748563999262718 [Eh]
	 SCS Correlation Energy    =      -2.1534592618307875 [Eh]
	 SCS Total Energy          =    -514.6963713417139843 [Eh]
	-----------------------------------------------------------

  Dipole Moment: [D]
     X:     1.9777      Y:    -0.9036      Z:     2.8997     Total:     3.6243

*** Psi4 exiting successfully. Buy a developer a beer!
