                               Psi4 1.4a3.dev225

  ==> Input File <==

--------------------------------------------------------------------------
#psi4
#
memory 32 gb

molecule  {
0 1
  O        0.3703410     1.7406370     0.1509160
  O       -2.1946130     0.9173750    -0.9921890
  N       -2.7109060    -0.4412560     0.7761490
  C       -0.4510660    -0.4506100    -0.0514270
  C        0.6599990     0.4108460     0.0342650
  C       -0.2507290    -1.8313420    -0.1181570
  C        1.9527030    -0.1242260     0.0401840
  C        1.0395390    -2.3670290    -0.1196300
  C        2.1593566    -1.7066633    -0.0559352
  C       -1.8406380     0.1093760    -0.1384300
  C        1.4719710     2.6442150     0.1686120
  H       -1.1182000    -2.4830940    -0.1949200
  H        2.8227340     0.5195950     0.1104450
  H        1.1860280    -3.4416730    -0.1864270
  H        3.1441970    -1.9102760    -0.0447980
  H        2.0722720     2.5548100    -0.7428660
  H        2.1083110     2.4835370     1.0460470
  H        1.0258210     3.6366650     0.2171830
  H       -2.3391320    -0.8271260     1.6334900
  H       -3.6232280    -0.0028870     0.8299490
units angstrom
no_reorient  #important for SAPT in psi4, default
symmetry c1  #important for SAPT in psi4, default
}

set PROPERTIES_ORIGIN ["COM"]
properties('MP2/aug-cc-pvtz', properties = ['dipole'])
--------------------------------------------------------------------------

    Molecular point group: c1
  Charge       = 0
  Multiplicity = 1
  Basis Set: AUG-CC-PVTZ
    Blend: AUG-CC-PVTZ
  Basis Set: (AUG-CC-PVTZ AUX)
    Blend: AUG-CC-PVTZ-JKFIT

    Orbital Energies [Eh]
    ---------------------

    Doubly Occupied:

       1A    -20.587279     2A    -20.519804     3A    -15.584814
       4A    -11.357712     5A    -11.313103     6A    -11.285006
       7A    -11.259155     8A    -11.256088     9A    -11.254482
      10A    -11.250917    11A    -11.233920    12A     -1.410936
      13A     -1.371871    14A     -1.209815    15A     -1.153841
      16A     -1.051160    17A     -1.011001    18A     -0.948905
      19A     -0.887790    20A     -0.819430    21A     -0.789732
      22A     -0.735088    23A     -0.717858    24A     -0.679056
      25A     -0.666299    26A     -0.654156    27A     -0.648265
      28A     -0.623760    29A     -0.609488    30A     -0.577936
      31A     -0.562897    32A     -0.543295    33A     -0.525203
      34A     -0.507273    35A     -0.479999    36A     -0.476344
      37A     -0.425973    38A     -0.413495    39A     -0.346469
      40A     -0.327030

  @DF-RHF Final Energy:  -512.50398505730880

   => Energetics <=

    Nuclear Repulsion Energy =            590.4447196295604954
    One-Electron Energy =               -1869.7441192180019698
    Two-Electron Energy =                 766.7954145311326783
    Total Energy =                       -512.5039850573087961
  Basis Set: (AUG-CC-PVTZ AUX)
    Blend: AUG-CC-PVTZ-RI
    Molecular point group: c1

    Geometry (in Angstrom), charge = 0, multiplicity = 1:

       Center              X                  Y                   Z               Mass
    ------------   -----------------  -----------------  -----------------  -----------------
         O            0.402952192035     1.759938641899     0.169351018984    15.994914619570
         O           -2.162001807965     0.936676641899    -0.973753981016    15.994914619570
         N           -2.678294807965    -0.421954358101     0.794584018984    14.003074004430
         C           -0.418454807965    -0.431308358101    -0.032991981016    12.000000000000
         C            0.692610192035     0.430147641899     0.052700018984    12.000000000000
         C           -0.218117807965    -1.812040358101    -0.099721981016    12.000000000000
         C            1.985314192035    -0.104924358101     0.058619018984    12.000000000000
         C            1.072150192035    -2.347727358101    -0.101194981016    12.000000000000
         C            2.191967792035    -1.687361658101    -0.037500181016    12.000000000000
         C           -1.808026807965     0.128677641899    -0.119994981016    12.000000000000
         C            1.504582192035     2.663516641899     0.187047018984    12.000000000000
         H           -1.085588807965    -2.463792358101    -0.176484981016     1.007825032230
         H            2.855345192035     0.538896641899     0.128880018984     1.007825032230
         H            1.218639192035    -3.422371358101    -0.167991981016     1.007825032230
         H            3.176808192035    -1.890974358101    -0.026362981016     1.007825032230
         H            2.104883192035     2.574111641899    -0.724430981016     1.007825032230
         H            2.140922192035     2.502838641899     1.064482018984     1.007825032230
         H            1.058432192035     3.655966641899     0.235618018984     1.007825032230
         H           -2.306520807965    -0.807824358101     1.651925018984     1.007825032230
         H           -3.590616807965     0.016414641899     0.848384018984     1.007825032230

  Basis Set: AUG-CC-PVTZ
    Blend: AUG-CC-PVTZ
  Basis Set: (AUG-CC-PVTZ AUX)
    Blend: AUG-CC-PVTZ-JKFIT
	 Reference Energy          =    -512.5039850573087961 [Eh]
	 Singles Energy            =      -0.0000000000000000 [Eh]
	 Same-Spin Energy          =      -0.5352323090371955 [Eh]
	 Opposite-Spin Energy      =      -1.6481467151391684 [Eh]
	 Correlation Energy        =      -2.1833790241763640 [Eh]
	 Total Energy              =    -514.6873640814851569 [Eh]

	 ================> DF-SCS-MP2 Energies <==================
	-----------------------------------------------------------
	 SCS Same-Spin Scale       =       0.3333333333333333 [-]
	 SCS Opposite-Spin Scale   =       1.2000000000000000 [-]
	 SCS Same-Spin Energy      =      -0.1784107696790652 [Eh]
	 SCS Opposite-Spin Energy  =      -1.9777760581670021 [Eh]
	 SCS Correlation Energy    =      -2.1561868278460672 [Eh]
	 SCS Total Energy          =    -514.6601718851549094 [Eh]
	-----------------------------------------------------------

  Dipole Moment: [D]
     X:     1.9027      Y:    -1.0377      Z:     2.8897     Total:     3.6121

*** Psi4 exiting successfully. Buy a developer a beer!
