                               Psi4 1.4a3.dev225

  ==> Input File <==

--------------------------------------------------------------------------
#psi4
#
memory 32 gb

molecule  {
0 1
  O        0.3703410     1.7406370     0.1509160
  O       -2.1946130     0.9173750    -0.9921890
  N       -2.7109060    -0.4412560     0.7761490
  C       -0.4510660    -0.4506100    -0.0514270
  C        0.6893526     0.3714352     0.0357631
  C       -0.2507290    -1.8313420    -0.1181570
  C        1.9527030    -0.1242260     0.0401840
  C        1.0395390    -2.3670290    -0.1196300
  C        2.1335050    -1.5087060    -0.0439110
  C       -1.8406380     0.1093760    -0.1384300
  C        1.4719710     2.6442150     0.1686120
  H       -1.1182000    -2.4830940    -0.1949200
  H        2.8227340     0.5195950     0.1104450
  H        1.1860280    -3.4416730    -0.1864270
  H        3.1441970    -1.9102760    -0.0447980
  H        2.0722720     2.5548100    -0.7428660
  H        2.1083110     2.4835370     1.0460470
  H        1.0258210     3.6366650     0.2171830
  H       -2.3391320    -0.8271260     1.6334900
  H       -3.6232280    -0.0028870     0.8299490
units angstrom
no_reorient  #important for SAPT in psi4, default
symmetry c1  #important for SAPT in psi4, default
}

set PROPERTIES_ORIGIN ["COM"]
properties('MP2/aug-cc-pvtz', properties = ['dipole'])
--------------------------------------------------------------------------

    Molecular point group: c1
  Charge       = 0
  Multiplicity = 1
  Basis Set: AUG-CC-PVTZ
    Blend: AUG-CC-PVTZ
  Basis Set: (AUG-CC-PVTZ AUX)
    Blend: AUG-CC-PVTZ-JKFIT

    Orbital Energies [Eh]
    ---------------------

    Doubly Occupied:

       1A    -20.583319     2A    -20.518200     3A    -15.583897
       4A    -11.357119     5A    -11.313151     6A    -11.282467
       7A    -11.256583     8A    -11.255823     9A    -11.251325
      10A    -11.241031    11A    -11.240767    12A     -1.394582
      13A     -1.369709    14A     -1.208996    15A     -1.163904
      16A     -1.044733    17A     -1.028766    18A     -0.942066
      19A     -0.880762    20A     -0.824110    21A     -0.791625
      22A     -0.735911    23A     -0.707009    24A     -0.678304
      25A     -0.663635    26A     -0.649238    27A     -0.637229
      28A     -0.627569    29A     -0.597015    30A     -0.579932
      31A     -0.559717    32A     -0.544542    33A     -0.528703
      34A     -0.514380    35A     -0.500964    36A     -0.472087
      37A     -0.425607    38A     -0.412441    39A     -0.355482
      40A     -0.328750

  @DF-RHF Final Energy:  -512.54150466425483

   => Energetics <=

    Nuclear Repulsion Energy =            592.5710619971553115
    One-Electron Energy =               -1874.1222282648186592
    Two-Electron Energy =                 769.0096616034085173
    Total Energy =                       -512.5415046642548305
  Basis Set: (AUG-CC-PVTZ AUX)
    Blend: AUG-CC-PVTZ-RI
    Molecular point group: c1

    Geometry (in Angstrom), charge = 0, multiplicity = 1:

       Center              X                  Y                   Z               Mass
    ------------   -----------------  -----------------  -----------------  -----------------
         O            0.402674004070     1.747344202081     0.168276849617    15.994914619570
         O           -2.162279995930     0.924082202081    -0.974828150383    15.994914619570
         N           -2.678572995930    -0.434548797919     0.793509849617    14.003074004430
         C           -0.418732995930    -0.443902797919    -0.034066150383    12.000000000000
         C            0.721685604070     0.378142402081     0.053123949617    12.000000000000
         C           -0.218395995930    -1.824634797919    -0.100796150383    12.000000000000
         C            1.985036004070    -0.117518797919     0.057544849617    12.000000000000
         C            1.071872004070    -2.360321797919    -0.102269150383    12.000000000000
         C            2.165838004070    -1.501998797919    -0.026550150383    12.000000000000
         C           -1.808304995930     0.116083202081    -0.121069150383    12.000000000000
         C            1.504304004070     2.650922202081     0.185972849617    12.000000000000
         H           -1.085866995930    -2.476386797919    -0.177559150383     1.007825032230
         H            2.855067004070     0.526302202081     0.127805849617     1.007825032230
         H            1.218361004070    -3.434965797919    -0.169066150383     1.007825032230
         H            3.176530004070    -1.903568797919    -0.027437150383     1.007825032230
         H            2.104605004070     2.561517202081    -0.725505150383     1.007825032230
         H            2.140644004070     2.490244202081     1.063407849617     1.007825032230
         H            1.058154004070     3.643372202081     0.234543849617     1.007825032230
         H           -2.306798995930    -0.820418797919     1.650850849617     1.007825032230
         H           -3.590894995930     0.003820202081     0.847309849617     1.007825032230

  Basis Set: AUG-CC-PVTZ
    Blend: AUG-CC-PVTZ
  Basis Set: (AUG-CC-PVTZ AUX)
    Blend: AUG-CC-PVTZ-JKFIT
	 Reference Energy          =    -512.5415046642548305 [Eh]
	 Singles Energy            =      -0.0000000000000000 [Eh]
	 Same-Spin Energy          =      -0.5357477225983779 [Eh]
	 Opposite-Spin Energy      =      -1.6460152085954327 [Eh]
	 Correlation Energy        =      -2.1817629311938105 [Eh]
	 Total Energy              =    -514.7232675954486467 [Eh]

	 ================> DF-SCS-MP2 Energies <==================
	-----------------------------------------------------------
	 SCS Same-Spin Scale       =       0.3333333333333333 [-]
	 SCS Opposite-Spin Scale   =       1.2000000000000000 [-]
	 SCS Same-Spin Energy      =      -0.1785825741994593 [Eh]
	 SCS Opposite-Spin Energy  =      -1.9752182503145193 [Eh]
	 SCS Correlation Energy    =      -2.1538008245139784 [Eh]
	 SCS Total Energy          =    -514.6953054887687813 [Eh]
	-----------------------------------------------------------

  Dipole Moment: [D]
     X:     1.9843      Y:    -1.2228      Z:     2.8760     Total:     3.7019

*** Psi4 exiting successfully. Buy a developer a beer!
