                               Psi4 1.4a3.dev225

  ==> Input File <==

--------------------------------------------------------------------------
#psi4
#
memory 32 gb

molecule  {
0 1
  O        0.3703410     1.7406370     0.1509160
  O       -2.1946130     0.9173750    -0.9921890
  N       -2.7109060    -0.4412560     0.7761490
  C       -0.4510660    -0.4506100    -0.0514270
  C        0.6599990     0.4108460     0.0342650
  C       -0.2507290    -1.8313420    -0.1181570
  C        1.9527030    -0.1242260     0.0401840
  C        1.0395390    -2.3670290    -0.1196300
  C        2.1335050    -1.5087060    -0.0439110
  C       -1.8406380     0.1093760    -0.1384300
  C        1.4719710     2.6442150     0.1686120
  H       -1.1182000    -2.4830940    -0.1949200
  H        2.8227340     0.5195950     0.1104450
  H        1.1833318    -3.4218937    -0.1851976
  H        3.1441970    -1.9102760    -0.0447980
  H        2.0722720     2.5548100    -0.7428660
  H        2.1083110     2.4835370     1.0460470
  H        1.0258210     3.6366650     0.2171830
  H       -2.3391320    -0.8271260     1.6334900
  H       -3.6232280    -0.0028870     0.8299490
units angstrom
no_reorient  #important for SAPT in psi4, default
symmetry c1  #important for SAPT in psi4, default
}

set PROPERTIES_ORIGIN ["COM"]
properties('MP2/aug-cc-pvtz', properties = ['dipole'])
--------------------------------------------------------------------------

    Molecular point group: c1
  Charge       = 0
  Multiplicity = 1
  Basis Set: AUG-CC-PVTZ
    Blend: AUG-CC-PVTZ
  Basis Set: (AUG-CC-PVTZ AUX)
    Blend: AUG-CC-PVTZ-JKFIT

    Orbital Energies [Eh]
    ---------------------

    Doubly Occupied:

       1A    -20.590309     2A    -20.517332     3A    -15.582756
       4A    -11.354972     5A    -11.317348     6A    -11.287623
       7A    -11.255170     8A    -11.253929     9A    -11.248151
      10A    -11.242585    11A    -11.236066    12A     -1.413853
      13A     -1.369604    14A     -1.207820    15A     -1.157895
      16A     -1.042827    17A     -1.025071    18A     -0.949755
      19A     -0.877103    20A     -0.824681    21A     -0.790187
      22A     -0.735821    23A     -0.708960    24A     -0.682217
      25A     -0.666251    26A     -0.657282    27A     -0.640460
      28A     -0.623478    29A     -0.596454    30A     -0.582134
      31A     -0.558359    32A     -0.544649    33A     -0.530226
      34A     -0.519495    35A     -0.500370    36A     -0.475691
      37A     -0.424068    38A     -0.411563    39A     -0.352202
      40A     -0.322711

  @DF-RHF Final Energy:  -512.54551971289754

   => Energetics <=

    Nuclear Repulsion Energy =            592.7684591275370849
    One-Electron Energy =               -1874.4731012459808426
    Two-Electron Energy =                 769.1591224055460998
    Total Energy =                       -512.5455197128975442
  Basis Set: (AUG-CC-PVTZ AUX)
    Blend: AUG-CC-PVTZ-RI
    Molecular point group: c1

    Geometry (in Angstrom), charge = 0, multiplicity = 1:

       Center              X                  Y                   Z               Mass
    ------------   -----------------  -----------------  -----------------  -----------------
         O            0.405023750374     1.744081572570     0.168387652021    15.994914619570
         O           -2.159930249626     0.920819572570    -0.974717347979    15.994914619570
         N           -2.676223249626    -0.437811427430     0.793620652021    14.003074004430
         C           -0.416383249626    -0.447165427430    -0.033955347979    12.000000000000
         C            0.694681750374     0.414290572570     0.051736652021    12.000000000000
         C           -0.216046249626    -1.827897427430    -0.100685347979    12.000000000000
         C            1.987385750374    -0.120781427430     0.057655652021    12.000000000000
         C            1.074221750374    -2.363584427430    -0.102158347979    12.000000000000
         C            2.168187750374    -1.505261427430    -0.026439347979    12.000000000000
         C           -1.805955249626     0.112820572570    -0.120958347979    12.000000000000
         C            1.506653750374     2.647659572570     0.186083652021    12.000000000000
         H           -1.083517249626    -2.479649427430    -0.177448347979     1.007825032230
         H            2.857416750374     0.523039572570     0.127916652021     1.007825032230
         H            1.218014550374    -3.418449127430    -0.167725947979     1.007825032230
         H            3.178879750374    -1.906831427430    -0.027326347979     1.007825032230
         H            2.106954750374     2.558254572570    -0.725394347979     1.007825032230
         H            2.142993750374     2.486981572570     1.063518652021     1.007825032230
         H            1.060503750374     3.640109572570     0.234654652021     1.007825032230
         H           -2.304449249626    -0.823681427430     1.650961652021     1.007825032230
         H           -3.588545249626     0.000557572570     0.847420652021     1.007825032230

  Basis Set: AUG-CC-PVTZ
    Blend: AUG-CC-PVTZ
  Basis Set: (AUG-CC-PVTZ AUX)
    Blend: AUG-CC-PVTZ-JKFIT
	 Reference Energy          =    -512.5455197128975442 [Eh]
	 Singles Energy            =      -0.0000000000000000 [Eh]
	 Same-Spin Energy          =      -0.5356729583776295 [Eh]
	 Opposite-Spin Energy      =      -1.6451494108390594 [Eh]
	 Correlation Energy        =      -2.1808223692166888 [Eh]
	 Total Energy              =    -514.7263420821142290 [Eh]

	 ================> DF-SCS-MP2 Energies <==================
	-----------------------------------------------------------
	 SCS Same-Spin Scale       =       0.3333333333333333 [-]
	 SCS Opposite-Spin Scale   =       1.2000000000000000 [-]
	 SCS Same-Spin Energy      =      -0.1785576527925432 [Eh]
	 SCS Opposite-Spin Energy  =      -1.9741792930068711 [Eh]
	 SCS Correlation Energy    =      -2.1527369457994143 [Eh]
	 SCS Total Energy          =    -514.6982566586970052 [Eh]
	-----------------------------------------------------------

  Dipole Moment: [D]
     X:     1.9991      Y:    -0.9210      Z:     2.8992     Total:     3.6400

*** Psi4 exiting successfully. Buy a developer a beer!
