                               Psi4 1.4a3.dev225

  ==> Input File <==

--------------------------------------------------------------------------
#psi4
#
memory 32 gb

molecule  {
0 1
  O        0.3703410     1.7406370     0.1509160
  O       -2.1946130     0.9173750    -0.9921890
  N       -2.7109060    -0.4412560     0.7761490
  C       -0.4510660    -0.4506100    -0.0514270
  C        0.6599990     0.4108460     0.0342650
  C       -0.2507290    -1.8313420    -0.1181570
  C        1.9527030    -0.1242260     0.0401840
  C        1.0395390    -2.3670290    -0.1196300
  C        2.1335050    -1.5087060    -0.0439110
  C       -1.8406380     0.1093760    -0.1384300
  C        1.4719710     2.6442150     0.1686120
  H       -1.1182000    -2.4830940    -0.1949200
  H        2.8227340     0.5195950     0.1104450
  H        1.1860280    -3.4416730    -0.1864270
  H        3.1441970    -1.9102760    -0.0447980
  H        2.0722720     2.5548100    -0.7428660
  H        2.0992108     2.5186274     1.0582390
  H        1.0258210     3.6366650     0.2171830
  H       -2.3391320    -0.8271260     1.6334900
  H       -3.6232280    -0.0028870     0.8299490
units angstrom
no_reorient  #important for SAPT in psi4, default
symmetry c1  #important for SAPT in psi4, default
}

set PROPERTIES_ORIGIN ["COM"]
properties('MP2/aug-cc-pvtz', properties = ['dipole'])
--------------------------------------------------------------------------

    Molecular point group: c1
  Charge       = 0
  Multiplicity = 1
  Basis Set: AUG-CC-PVTZ
    Blend: AUG-CC-PVTZ
  Basis Set: (AUG-CC-PVTZ AUX)
    Blend: AUG-CC-PVTZ-JKFIT

    Orbital Energies [Eh]
    ---------------------

    Doubly Occupied:

       1A    -20.590766     2A    -20.517410     3A    -15.582808
       4A    -11.355052     5A    -11.317409     6A    -11.287562
       7A    -11.255322     8A    -11.254058     9A    -11.248265
      10A    -11.242655    11A    -11.238385    12A     -1.414001
      13A     -1.369677    14A     -1.207877    15A     -1.157858
      16A     -1.042763    17A     -1.024691    18A     -0.949548
      19A     -0.877155    20A     -0.824483    21A     -0.789178
      22A     -0.735370    23A     -0.708902    24A     -0.681576
      25A     -0.666624    26A     -0.657327    27A     -0.638925
      28A     -0.623342    29A     -0.596581    30A     -0.581762
      31A     -0.558427    32A     -0.543291    33A     -0.530208
      34A     -0.518814    35A     -0.500097    36A     -0.476177
      37A     -0.424121    38A     -0.411622    39A     -0.352273
      40A     -0.322788

  @DF-RHF Final Energy:  -512.54524888554579

   => Energetics <=

    Nuclear Repulsion Energy =            592.5980073462054634
    One-Electron Energy =               -1874.1362159487523513
    Two-Electron Energy =                 768.9929597170012130
    Total Energy =                       -512.5452488855457887
  Basis Set: (AUG-CC-PVTZ AUX)
    Blend: AUG-CC-PVTZ-RI
    Molecular point group: c1

    Geometry (in Angstrom), charge = 0, multiplicity = 1:

       Center              X                  Y                   Z               Mass
    ------------   -----------------  -----------------  -----------------  -----------------
         O            0.405066474916     1.743979423955     0.168314514597    15.994914619570
         O           -2.159887525084     0.920717423955    -0.974790485403    15.994914619570
         N           -2.676180525084    -0.437913576045     0.793547514597    14.003074004430
         C           -0.416340525084    -0.447267576045    -0.034028485403    12.000000000000
         C            0.694724474916     0.414188423955     0.051663514597    12.000000000000
         C           -0.216003525084    -1.827999576045    -0.100758485403    12.000000000000
         C            1.987428474916    -0.120883576045     0.057582514597    12.000000000000
         C            1.074264474916    -2.363686576045    -0.102231485403    12.000000000000
         C            2.168230474916    -1.505363576045    -0.026512485403    12.000000000000
         C           -1.805912525084     0.112718423955    -0.121031485403    12.000000000000
         C            1.506696474916     2.647557423955     0.186010514597    12.000000000000
         H           -1.083474525084    -2.479751576045    -0.177521485403     1.007825032230
         H            2.857459474916     0.522937423955     0.127843514597     1.007825032230
         H            1.220753474916    -3.438330576045    -0.169028485403     1.007825032230
         H            3.178922474916    -1.906933576045    -0.027399485403     1.007825032230
         H            2.106997474916     2.558152423955    -0.725467485403     1.007825032230
         H            2.133936274916     2.521969823955     1.075637514597     1.007825032230
         H            1.060546474916     3.640007423955     0.234581514597     1.007825032230
         H           -2.304406525084    -0.823783576045     1.650888514597     1.007825032230
         H           -3.588502525084     0.000455423955     0.847347514597     1.007825032230

  Basis Set: AUG-CC-PVTZ
    Blend: AUG-CC-PVTZ
  Basis Set: (AUG-CC-PVTZ AUX)
    Blend: AUG-CC-PVTZ-JKFIT
	 Reference Energy          =    -512.5452488855457887 [Eh]
	 Singles Energy            =      -0.0000000000000000 [Eh]
	 Same-Spin Energy          =      -0.5356939274667010 [Eh]
	 Opposite-Spin Energy      =      -1.6452725015176235 [Eh]
	 Correlation Energy        =      -2.1809664289843242 [Eh]
	 Total Energy              =    -514.7262153145301227 [Eh]

	 ================> DF-SCS-MP2 Energies <==================
	-----------------------------------------------------------
	 SCS Same-Spin Scale       =       0.3333333333333333 [-]
	 SCS Opposite-Spin Scale   =       1.2000000000000000 [-]
	 SCS Same-Spin Energy      =      -0.1785646424889003 [Eh]
	 SCS Opposite-Spin Energy  =      -1.9743270018211481 [Eh]
	 SCS Correlation Energy    =      -2.1528916443100483 [Eh]
	 SCS Total Energy          =    -514.6981405298558911 [Eh]
	-----------------------------------------------------------

  Dipole Moment: [D]
     X:     1.9984      Y:    -0.9075      Z:     2.9081     Total:     3.6434

*** Psi4 exiting successfully. Buy a developer a beer!
