                               Psi4 1.4a3.dev225

  ==> Input File <==

--------------------------------------------------------------------------
#psi4
#
memory 32 gb

molecule  {
0 1
  O        0.3703410     1.7406370     0.1509160
  O       -2.1946130     0.9173750    -0.9921890
  N       -2.7109060    -0.4412560     0.7761490
  C       -0.4510660    -0.4506100    -0.0514270
  C        0.6599990     0.4108460     0.0342650
  C       -0.2507290    -1.8313420    -0.1181570
  C        1.9527030    -0.1242260     0.0401840
  C        1.0395390    -2.3670290    -0.1196300
  C        2.1399679    -1.5581953    -0.0469170
  C       -1.8406380     0.1093760    -0.1384300
  C        1.4719710     2.6442150     0.1686120
  H       -1.1182000    -2.4830940    -0.1949200
  H        2.8227340     0.5195950     0.1104450
  H        1.1860280    -3.4416730    -0.1864270
  H        3.1441970    -1.9102760    -0.0447980
  H        2.0722720     2.5548100    -0.7428660
  H        2.1083110     2.4835370     1.0460470
  H        1.0258210     3.6366650     0.2171830
  H       -2.3391320    -0.8271260     1.6334900
  H       -3.6232280    -0.0028870     0.8299490
units angstrom
no_reorient  #important for SAPT in psi4, default
symmetry c1  #important for SAPT in psi4, default
}

set PROPERTIES_ORIGIN ["COM"]
properties('MP2/aug-cc-pvtz', properties = ['dipole'])
--------------------------------------------------------------------------

    Molecular point group: c1
  Charge       = 0
  Multiplicity = 1
  Basis Set: AUG-CC-PVTZ
    Blend: AUG-CC-PVTZ
  Basis Set: (AUG-CC-PVTZ AUX)
    Blend: AUG-CC-PVTZ-JKFIT

    Orbital Energies [Eh]
    ---------------------

    Doubly Occupied:

       1A    -20.589542     2A    -20.517994     3A    -15.583311
       4A    -11.355711     5A    -11.316311     6A    -11.286974
       7A    -11.256403     8A    -11.254261     9A    -11.250249
      10A    -11.245786    11A    -11.237004    12A     -1.413123
      13A     -1.370218    14A     -1.208351    15A     -1.156059
      16A     -1.042639    17A     -1.022258    18A     -0.949615
      19A     -0.879788    20A     -0.822913    21A     -0.788926
      22A     -0.735427    23A     -0.710618    24A     -0.681026
      25A     -0.665097    26A     -0.656288    27A     -0.641906
      28A     -0.623343    29A     -0.599988    30A     -0.580397
      31A     -0.559008    32A     -0.542879    33A     -0.528951
      34A     -0.514263    35A     -0.503205    36A     -0.475444
      37A     -0.424680    38A     -0.412071    39A     -0.347071
      40A     -0.326544

  @DF-RHF Final Energy:  -512.54224329124804

   => Energetics <=

    Nuclear Repulsion Energy =            592.0704869001058341
    One-Electron Energy =               -1873.0741779806710383
    Two-Electron Energy =                 768.4614477893171625
    Total Energy =                       -512.5422432912480417
  Basis Set: (AUG-CC-PVTZ AUX)
    Blend: AUG-CC-PVTZ-RI
    Molecular point group: c1

    Geometry (in Angstrom), charge = 0, multiplicity = 1:

       Center              X                  Y                   Z               Mass
    ------------   -----------------  -----------------  -----------------  -----------------
         O            0.404492369935     1.748144806709     0.168634641283    15.994914619570
         O           -2.160461630065     0.924882806709    -0.974470358717    15.994914619570
         N           -2.676754630065    -0.433748193291     0.793867641283    14.003074004430
         C           -0.416914630065    -0.443102193291    -0.033708358717    12.000000000000
         C            0.694150369935     0.418353806709     0.051983641283    12.000000000000
         C           -0.216577630065    -1.823834193291    -0.100438358717    12.000000000000
         C            1.986854369935    -0.116718193291     0.057902641283    12.000000000000
         C            1.073690369935    -2.359521193291    -0.101911358717    12.000000000000
         C            2.174119269935    -1.550687493291    -0.029198358717    12.000000000000
         C           -1.806486630065     0.116883806709    -0.120711358717    12.000000000000
         C            1.506122369935     2.651722806709     0.186330641283    12.000000000000
         H           -1.084048630065    -2.475586193291    -0.177201358717     1.007825032230
         H            2.856885369935     0.527102806709     0.128163641283     1.007825032230
         H            1.220179369935    -3.434165193291    -0.168708358717     1.007825032230
         H            3.178348369935    -1.902768193291    -0.027079358717     1.007825032230
         H            2.106423369935     2.562317806709    -0.725147358717     1.007825032230
         H            2.142462369935     2.491044806709     1.063765641283     1.007825032230
         H            1.059972369935     3.644172806709     0.234901641283     1.007825032230
         H           -2.304980630065    -0.819618193291     1.651208641283     1.007825032230
         H           -3.589076630065     0.004620806709     0.847667641283     1.007825032230

  Basis Set: AUG-CC-PVTZ
    Blend: AUG-CC-PVTZ
  Basis Set: (AUG-CC-PVTZ AUX)
    Blend: AUG-CC-PVTZ-JKFIT
	 Reference Energy          =    -512.5422432912480417 [Eh]
	 Singles Energy            =      -0.0000000000000000 [Eh]
	 Same-Spin Energy          =      -0.5356007390131440 [Eh]
	 Opposite-Spin Energy      =      -1.6456079115480513 [Eh]
	 Correlation Energy        =      -2.1812086505611954 [Eh]
	 Total Energy              =    -514.7234519418092304 [Eh]

	 ================> DF-SCS-MP2 Energies <==================
	-----------------------------------------------------------
	 SCS Same-Spin Scale       =       0.3333333333333333 [-]
	 SCS Opposite-Spin Scale   =       1.2000000000000000 [-]
	 SCS Same-Spin Energy      =      -0.1785335796710480 [Eh]
	 SCS Opposite-Spin Energy  =      -1.9747294938576614 [Eh]
	 SCS Correlation Energy    =      -2.1532630735287093 [Eh]
	 SCS Total Energy          =    -514.6955063647767474 [Eh]
	-----------------------------------------------------------

  Dipole Moment: [D]
     X:     1.9734      Y:    -0.9411      Z:     2.8972     Total:     3.6296

*** Psi4 exiting successfully. Buy a developer a beer!
