                               Psi4 1.4a3.dev225

  ==> Input File <==

--------------------------------------------------------------------------
#psi4
#
memory 32 gb

molecule  {
0 1
  O        0.3703410     1.7406370     0.1509160
  O       -2.1946130     0.9173750    -0.9921890
  N       -2.7109060    -0.4412560     0.7761490
  C       -0.4510660    -0.4506100    -0.0514270
  C        0.6599990     0.4108460     0.0342650
  C       -0.2650717    -1.7324913    -0.1133796
  C        1.9527030    -0.1242260     0.0401840
  C        1.0395390    -2.3670290    -0.1196300
  C        2.1335050    -1.5087060    -0.0439110
  C       -1.8406380     0.1093760    -0.1384300
  C        1.4719710     2.6442150     0.1686120
  H       -1.1182000    -2.4830940    -0.1949200
  H        2.8227340     0.5195950     0.1104450
  H        1.1860280    -3.4416730    -0.1864270
  H        3.1441970    -1.9102760    -0.0447980
  H        2.0722720     2.5548100    -0.7428660
  H        2.1083110     2.4835370     1.0460470
  H        1.0258210     3.6366650     0.2171830
  H       -2.3391320    -0.8271260     1.6334900
  H       -3.6232280    -0.0028870     0.8299490
units angstrom
no_reorient  #important for SAPT in psi4, default
symmetry c1  #important for SAPT in psi4, default
}

set PROPERTIES_ORIGIN ["COM"]
properties('MP2/aug-cc-pvtz', properties = ['dipole'])
--------------------------------------------------------------------------

    Molecular point group: c1
  Charge       = 0
  Multiplicity = 1
  Basis Set: AUG-CC-PVTZ
    Blend: AUG-CC-PVTZ
  Basis Set: (AUG-CC-PVTZ AUX)
    Blend: AUG-CC-PVTZ-JKFIT

    Orbital Energies [Eh]
    ---------------------

    Doubly Occupied:

       1A    -20.591719     2A    -20.518957     3A    -15.583724
       4A    -11.356368     5A    -11.318293     6A    -11.287713
       7A    -11.252957     8A    -11.251844     9A    -11.241150
      10A    -11.240229    11A    -11.239134    12A     -1.414859
      13A     -1.371291    14A     -1.210144    15A     -1.164510
      16A     -1.053363    17A     -1.017694    18A     -0.950583
      19A     -0.872361    20A     -0.825683    21A     -0.793035
      22A     -0.736953    23A     -0.707678    24A     -0.683599
      25A     -0.668422    26A     -0.657851    27A     -0.638021
      28A     -0.616109    29A     -0.597907    30A     -0.585930
      31A     -0.559152    32A     -0.542663    33A     -0.529713
      34A     -0.519615    35A     -0.494913    36A     -0.476225
      37A     -0.424601    38A     -0.411517    39A     -0.365470
      40A     -0.316661

  @DF-RHF Final Energy:  -512.53274441916540

   => Energetics <=

    Nuclear Repulsion Energy =            594.3434040322727014
    One-Electron Energy =               -1877.5750717621579042
    Two-Electron Energy =                 770.6989233107198061
    Total Energy =                       -512.5327444191653967
  Basis Set: (AUG-CC-PVTZ AUX)
    Blend: AUG-CC-PVTZ-RI
    Molecular point group: c1

    Geometry (in Angstrom), charge = 0, multiplicity = 1:

       Center              X                  Y                   Z               Mass
    ------------   -----------------  -----------------  -----------------  -----------------
         O            0.406145101954     1.736361139440     0.168016352246    15.994914619570
         O           -2.158808898046     0.913099139440    -0.975088647754    15.994914619570
         N           -2.675101898046    -0.445531860560     0.793249352246    14.003074004430
         C           -0.415261898046    -0.454885860560    -0.034326647754    12.000000000000
         C            0.695803101954     0.406570139440     0.051365352246    12.000000000000
         C           -0.229267598046    -1.736767160560    -0.096279247754    12.000000000000
         C            1.988507101954    -0.128501860560     0.057284352246    12.000000000000
         C            1.075343101954    -2.371304860560    -0.102529647754    12.000000000000
         C            2.169309101954    -1.512981860560    -0.026810647754    12.000000000000
         C           -1.804833898046     0.105100139440    -0.121329647754    12.000000000000
         C            1.507775101954     2.639939139440     0.185712352246    12.000000000000
         H           -1.082395898046    -2.487369860560    -0.177819647754     1.007825032230
         H            2.858538101954     0.515319139440     0.127545352246     1.007825032230
         H            1.221832101954    -3.445948860560    -0.169326647754     1.007825032230
         H            3.180001101954    -1.914551860560    -0.027697647754     1.007825032230
         H            2.108076101954     2.550534139440    -0.725765647754     1.007825032230
         H            2.144115101954     2.479261139440     1.063147352246     1.007825032230
         H            1.061625101954     3.632389139440     0.234283352246     1.007825032230
         H           -2.303327898046    -0.831401860560     1.650590352246     1.007825032230
         H           -3.587423898046    -0.007162860560     0.847049352246     1.007825032230

  Basis Set: AUG-CC-PVTZ
    Blend: AUG-CC-PVTZ
  Basis Set: (AUG-CC-PVTZ AUX)
    Blend: AUG-CC-PVTZ-JKFIT
	 Reference Energy          =    -512.5327444191653967 [Eh]
	 Singles Energy            =      -0.0000000000000000 [Eh]
	 Same-Spin Energy          =      -0.5352723110657719 [Eh]
	 Opposite-Spin Energy      =      -1.6454356934735623 [Eh]
	 Correlation Energy        =      -2.1807080045393343 [Eh]
	 Total Energy              =    -514.7134524237047799 [Eh]

	 ================> DF-SCS-MP2 Energies <==================
	-----------------------------------------------------------
	 SCS Same-Spin Scale       =       0.3333333333333333 [-]
	 SCS Opposite-Spin Scale   =       1.2000000000000000 [-]
	 SCS Same-Spin Energy      =      -0.1784241036885906 [Eh]
	 SCS Opposite-Spin Energy  =      -1.9745228321682746 [Eh]
	 SCS Correlation Energy    =      -2.1529469358568654 [Eh]
	 SCS Total Energy          =    -514.6856913550222998 [Eh]
	-----------------------------------------------------------

  Dipole Moment: [D]
     X:     1.9269      Y:    -0.8849      Z:     2.9070     Total:     3.5981

*** Psi4 exiting successfully. Buy a developer a beer!
