                               Psi4 1.4a3.dev225

  ==> Input File <==

--------------------------------------------------------------------------
#psi4
#
memory 32 gb

molecule  {
0 1
  O        0.3703410     1.7406370     0.1509160
  O       -2.1946130     0.9173750    -0.9921890
  N       -2.7109060    -0.4412560     0.7761490
  C       -0.4510660    -0.4506100    -0.0514270
  C        0.6599990     0.4108460     0.0342650
  C       -0.2507290    -1.8313420    -0.1181570
  C        1.9527030    -0.1242260     0.0401840
  C        1.0395390    -2.3670290    -0.1196300
  C        2.1335050    -1.5087060    -0.0439110
  C       -1.8406380     0.1093760    -0.1384300
  C        1.4719710     2.6442150     0.1686120
  H       -1.1182000    -2.4830940    -0.1949200
  H        2.8227340     0.5195950     0.1104450
  H        1.1887242    -3.4614523    -0.1876564
  H        3.1441970    -1.9102760    -0.0447980
  H        2.0722720     2.5548100    -0.7428660
  H        2.1083110     2.4835370     1.0460470
  H        1.0258210     3.6366650     0.2171830
  H       -2.3391320    -0.8271260     1.6334900
  H       -3.6232280    -0.0028870     0.8299490
units angstrom
no_reorient  #important for SAPT in psi4, default
symmetry c1  #important for SAPT in psi4, default
}

set PROPERTIES_ORIGIN ["COM"]
properties('MP2/aug-cc-pvtz', properties = ['dipole'])
--------------------------------------------------------------------------

    Molecular point group: c1
  Charge       = 0
  Multiplicity = 1
  Basis Set: AUG-CC-PVTZ
    Blend: AUG-CC-PVTZ
  Basis Set: (AUG-CC-PVTZ AUX)
    Blend: AUG-CC-PVTZ-JKFIT

    Orbital Energies [Eh]
    ---------------------

    Doubly Occupied:

       1A    -20.590412     2A    -20.517464     3A    -15.582857
       4A    -11.355128     5A    -11.317483     6A    -11.287714
       7A    -11.255533     8A    -11.254288     9A    -11.248412
      10A    -11.242851    11A    -11.240725    12A     -1.413962
      13A     -1.369729    14A     -1.207930    15A     -1.157890
      16A     -1.042818    17A     -1.024319    18A     -0.949279
      19A     -0.877290    20A     -0.823994    21A     -0.788447
      22A     -0.735231    23A     -0.708964    24A     -0.681392
      25A     -0.665531    26A     -0.656977    27A     -0.638165
      28A     -0.623545    29A     -0.596648    30A     -0.582253
      31A     -0.558248    32A     -0.542702    33A     -0.530274
      34A     -0.517810    35A     -0.500508    36A     -0.475889
      37A     -0.424149    38A     -0.411673    39A     -0.352433
      40A     -0.322871

  @DF-RHF Final Energy:  -512.54473683622132

   => Energetics <=

    Nuclear Repulsion Energy =            592.5567081739347941
    One-Electron Energy =               -1874.0553139321373237
    Two-Electron Energy =                 768.9538689219812113
    Total Energy =                       -512.5447368362213183
  Basis Set: (AUG-CC-PVTZ AUX)
    Blend: AUG-CC-PVTZ-RI
    Molecular point group: c1

    Geometry (in Angstrom), charge = 0, multiplicity = 1:

       Center              X                  Y                   Z               Mass
    ------------   -----------------  -----------------  -----------------  -----------------
         O            0.404987774762     1.744345489351     0.168404056003    15.994914619570
         O           -2.159966225238     0.921083489351    -0.974700943997    15.994914619570
         N           -2.676259225238    -0.437547510649     0.793637056003    14.003074004430
         C           -0.416419225238    -0.446901510649    -0.033938943997    12.000000000000
         C            0.694645774762     0.414554489351     0.051753056003    12.000000000000
         C           -0.216082225238    -1.827633510649    -0.100668943997    12.000000000000
         C            1.987349774762    -0.120517510649     0.057672056003    12.000000000000
         C            1.074185774762    -2.363320510649    -0.102141943997    12.000000000000
         C            2.168151774762    -1.504997510649    -0.026422943997    12.000000000000
         C           -1.805991225238     0.113084489351    -0.120941943997    12.000000000000
         C            1.506617774762     2.647923489351     0.186100056003    12.000000000000
         H           -1.083553225238    -2.479385510649    -0.177431943997     1.007825032230
         H            2.857380774762     0.523303489351     0.127933056003     1.007825032230
         H            1.223370974762    -3.457743810649    -0.170168343997     1.007825032230
         H            3.178843774762    -1.906567510649    -0.027309943997     1.007825032230
         H            2.106918774762     2.558518489351    -0.725377943997     1.007825032230
         H            2.142957774762     2.487245489351     1.063535056003     1.007825032230
         H            1.060467774762     3.640373489351     0.234671056003     1.007825032230
         H           -2.304485225238    -0.823417510649     1.650978056003     1.007825032230
         H           -3.588581225238     0.000821489351     0.847437056003     1.007825032230

  Basis Set: AUG-CC-PVTZ
    Blend: AUG-CC-PVTZ
  Basis Set: (AUG-CC-PVTZ AUX)
    Blend: AUG-CC-PVTZ-JKFIT
	 Reference Energy          =    -512.5447368362213183 [Eh]
	 Singles Energy            =      -0.0000000000000000 [Eh]
	 Same-Spin Energy          =      -0.5357440107008858 [Eh]
	 Opposite-Spin Energy      =      -1.6454489638143148 [Eh]
	 Correlation Energy        =      -2.1811929745152008 [Eh]
	 Total Energy              =    -514.7259298107364884 [Eh]

	 ================> DF-SCS-MP2 Energies <==================
	-----------------------------------------------------------
	 SCS Same-Spin Scale       =       0.3333333333333333 [-]
	 SCS Opposite-Spin Scale   =       1.2000000000000000 [-]
	 SCS Same-Spin Energy      =      -0.1785813369002953 [Eh]
	 SCS Opposite-Spin Energy  =      -1.9745387565771777 [Eh]
	 SCS Correlation Energy    =      -2.1531200934774728 [Eh]
	 SCS Total Energy          =    -514.6978569296987871 [Eh]
	-----------------------------------------------------------

  Dipole Moment: [D]
     X:     1.9949      Y:    -0.9063      Z:     2.8999     Total:     3.6346

*** Psi4 exiting successfully. Buy a developer a beer!
