                               Psi4 1.4a3.dev225

  ==> Input File <==

--------------------------------------------------------------------------
#psi4
#
memory 32 gb

molecule  {
0 1
  O        0.3703410     1.7406370     0.1509160
  O       -2.1946130     0.9173750    -0.9921890
  N       -2.7109060    -0.4412560     0.7761490
  C       -0.4510660    -0.4506100    -0.0514270
  C        0.6175882     0.6055499     0.0513447
  C       -0.2507290    -1.8313420    -0.1181570
  C        1.9527030    -0.1242260     0.0401840
  C        1.0395390    -2.3670290    -0.1196300
  C        2.1335050    -1.5087060    -0.0439110
  C       -1.8406380     0.1093760    -0.1384300
  C        1.4719710     2.6442150     0.1686120
  H       -1.1182000    -2.4830940    -0.1949200
  H        2.8227340     0.5195950     0.1104450
  H        1.1860280    -3.4416730    -0.1864270
  H        3.1441970    -1.9102760    -0.0447980
  H        2.0722720     2.5548100    -0.7428660
  H        2.1083110     2.4835370     1.0460470
  H        1.0258210     3.6366650     0.2171830
  H       -2.3391320    -0.8271260     1.6334900
  H       -3.6232280    -0.0028870     0.8299490
units angstrom
no_reorient  #important for SAPT in psi4, default
symmetry c1  #important for SAPT in psi4, default
}

set PROPERTIES_ORIGIN ["COM"]
properties('MP2/aug-cc-pvtz', properties = ['dipole'])
--------------------------------------------------------------------------

    Molecular point group: c1
  Charge       = 0
  Multiplicity = 1
  Basis Set: AUG-CC-PVTZ
    Blend: AUG-CC-PVTZ
  Basis Set: (AUG-CC-PVTZ AUX)
    Blend: AUG-CC-PVTZ-JKFIT

    Orbital Energies [Eh]
    ---------------------

    Doubly Occupied:

       1A    -20.634781     2A    -20.512233     3A    -15.576508
       4A    -11.345020     5A    -11.340244     6A    -11.315581
       7A    -11.247960     8A    -11.246825     9A    -11.239718
      10A    -11.238990    11A    -11.220869    12A     -1.542656
      13A     -1.365668    14A     -1.201221    15A     -1.131421
      16A     -1.049877    17A     -1.015054    18A     -0.969457
      19A     -0.867064    20A     -0.820739    21A     -0.788432
      22A     -0.749920    23A     -0.718991    24A     -0.717326
      25A     -0.705986    26A     -0.669337    27A     -0.637869
      28A     -0.612352    29A     -0.588604    30A     -0.581823
      31A     -0.564683    32A     -0.561766    33A     -0.545417
      34A     -0.526722    35A     -0.475846    36A     -0.467435
      37A     -0.414755    38A     -0.404656    39A     -0.342368
      40A     -0.288802

  @DF-RHF Final Energy:  -512.48786452806928

   => Energetics <=

    Nuclear Repulsion Energy =            593.1737154885745440
    One-Electron Energy =               -1874.8332135376247152
    Two-Electron Energy =                 769.1716335209808904
    Total Energy =                       -512.4878645280692808
  Basis Set: (AUG-CC-PVTZ AUX)
    Blend: AUG-CC-PVTZ-RI
    Molecular point group: c1

    Geometry (in Angstrom), charge = 0, multiplicity = 1:

       Center              X                  Y                   Z               Mass
    ------------   -----------------  -----------------  -----------------  -----------------
         O            0.408374744338     1.728746859977     0.167039095876    15.994914619570
         O           -2.156579255662     0.905484859977    -0.976065904124    15.994914619570
         N           -2.672872255662    -0.453146140023     0.792272095876    14.003074004430
         C           -0.413032255662    -0.462500140023    -0.035303904124    12.000000000000
         C            0.655621944338     0.593659759977     0.067467795876    12.000000000000
         C           -0.212695255662    -1.843232140023    -0.102033904124    12.000000000000
         C            1.990736744338    -0.136116140023     0.056307095876    12.000000000000
         C            1.077572744338    -2.378919140023    -0.103506904124    12.000000000000
         C            2.171538744338    -1.520596140023    -0.027787904124    12.000000000000
         C           -1.802604255662     0.097485859977    -0.122306904124    12.000000000000
         C            1.510004744338     2.632324859977     0.184735095876    12.000000000000
         H           -1.080166255662    -2.494984140023    -0.178796904124     1.007825032230
         H            2.860767744338     0.507704859977     0.126568095876     1.007825032230
         H            1.224061744338    -3.453563140023    -0.170303904124     1.007825032230
         H            3.182230744338    -1.922166140023    -0.028674904124     1.007825032230
         H            2.110305744338     2.542919859977    -0.726742904124     1.007825032230
         H            2.146344744338     2.471646859977     1.062170095876     1.007825032230
         H            1.063854744338     3.624774859977     0.233306095876     1.007825032230
         H           -2.301098255662    -0.839016140023     1.649613095876     1.007825032230
         H           -3.585194255662    -0.014777140023     0.846072095876     1.007825032230

  Basis Set: AUG-CC-PVTZ
    Blend: AUG-CC-PVTZ
  Basis Set: (AUG-CC-PVTZ AUX)
    Blend: AUG-CC-PVTZ-JKFIT
	 Reference Energy          =    -512.4878645280692808 [Eh]
	 Singles Energy            =      -0.0000000000000000 [Eh]
	 Same-Spin Energy          =      -0.5365977320544761 [Eh]
	 Opposite-Spin Energy      =      -1.6450924320889460 [Eh]
	 Correlation Energy        =      -2.1816901641434221 [Eh]
	 Total Energy              =    -514.6695546922127278 [Eh]

	 ================> DF-SCS-MP2 Energies <==================
	-----------------------------------------------------------
	 SCS Same-Spin Scale       =       0.3333333333333333 [-]
	 SCS Opposite-Spin Scale   =       1.2000000000000000 [-]
	 SCS Same-Spin Energy      =      -0.1788659106848254 [Eh]
	 SCS Opposite-Spin Energy  =      -1.9741109185067351 [Eh]
	 SCS Correlation Energy    =      -2.1529768291915605 [Eh]
	 SCS Total Energy          =    -514.6408413572607969 [Eh]
	-----------------------------------------------------------

  Dipole Moment: [D]
     X:     2.0833      Y:     0.8029      Z:     3.0405     Total:     3.7722

*** Psi4 exiting successfully. Buy a developer a beer!
