                               Psi4 1.4a3.dev225

  ==> Input File <==

--------------------------------------------------------------------------
#psi4
#
memory 32 gb

molecule  {
0 1
  O        0.3703410     1.7406370     0.1509160
  O       -2.1946130     0.9173750    -0.9921890
  N       -2.7109060    -0.4412560     0.7761490
  C       -0.4510660    -0.4506100    -0.0514270
  C        0.6599990     0.4108460     0.0342650
  C       -0.2507290    -1.8313420    -0.1181570
  C        1.9527030    -0.1242260     0.0401840
  C        1.0395390    -2.3670290    -0.1196300
  C        2.2175398    -1.6276466    -0.0500513
  C       -1.8406380     0.1093760    -0.1384300
  C        1.4719710     2.6442150     0.1686120
  H       -1.1182000    -2.4830940    -0.1949200
  H        2.8227340     0.5195950     0.1104450
  H        1.1860280    -3.4416730    -0.1864270
  H        3.1441970    -1.9102760    -0.0447980
  H        2.0722720     2.5548100    -0.7428660
  H        2.1083110     2.4835370     1.0460470
  H        1.0258210     3.6366650     0.2171830
  H       -2.3391320    -0.8271260     1.6334900
  H       -3.6232280    -0.0028870     0.8299490
units angstrom
no_reorient  #important for SAPT in psi4, default
symmetry c1  #important for SAPT in psi4, default
}

set PROPERTIES_ORIGIN ["COM"]
properties('MP2/aug-cc-pvtz', properties = ['dipole'])
--------------------------------------------------------------------------

    Molecular point group: c1
  Charge       = 0
  Multiplicity = 1
  Basis Set: AUG-CC-PVTZ
    Blend: AUG-CC-PVTZ
  Basis Set: (AUG-CC-PVTZ AUX)
    Blend: AUG-CC-PVTZ-JKFIT

    Orbital Energies [Eh]
    ---------------------

    Doubly Occupied:

       1A    -20.588835     2A    -20.519186     3A    -15.584284
       4A    -11.356895     5A    -11.315452     6A    -11.286018
       7A    -11.258117     8A    -11.257560     9A    -11.253768
      10A    -11.251998    11A    -11.243492    12A     -1.412365
      13A     -1.371286    14A     -1.209251    15A     -1.148925
      16A     -1.041100    17A     -1.017255    18A     -0.948027
      19A     -0.888714    20A     -0.819395    21A     -0.792439
      22A     -0.735258    23A     -0.720641    24A     -0.679444
      25A     -0.663244    26A     -0.655044    27A     -0.647385
      28A     -0.623352    29A     -0.608709    30A     -0.577011
      31A     -0.561185    32A     -0.547468    33A     -0.525506
      34A     -0.506879    35A     -0.496180    36A     -0.471512
      37A     -0.425936    38A     -0.412889    39A     -0.340738
      40A     -0.327380

  @DF-RHF Final Energy:  -512.51625315158310

   => Energetics <=

    Nuclear Repulsion Energy =            590.0533046177350798
    One-Electron Energy =               -1868.9588720773406294
    Two-Electron Energy =                 766.3893143080225627
    Total Energy =                       -512.5162531515831006
  Basis Set: (AUG-CC-PVTZ AUX)
    Blend: AUG-CC-PVTZ-RI
    Molecular point group: c1

    Geometry (in Angstrom), charge = 0, multiplicity = 1:

       Center              X                  Y                   Z               Mass
    ------------   -----------------  -----------------  -----------------  -----------------
         O            0.398330299967     1.753661801522     0.168883620306    15.994914619570
         O           -2.166623700033     0.930399801522    -0.974221379694    15.994914619570
         N           -2.682916700033    -0.428231198478     0.794116620306    14.003074004430
         C           -0.423076700033    -0.437585198478    -0.033459379694    12.000000000000
         C            0.687988299967     0.423870801522     0.052232620306    12.000000000000
         C           -0.222739700033    -1.818317198478    -0.100189379694    12.000000000000
         C            1.980692299967    -0.111201198478     0.058151620306    12.000000000000
         C            1.067528299967    -2.354004198478    -0.101662379694    12.000000000000
         C            2.245529099967    -1.614621798478    -0.032083679694    12.000000000000
         C           -1.812648700033     0.122400801522    -0.120462379694    12.000000000000
         C            1.499960299967     2.657239801522     0.186579620306    12.000000000000
         H           -1.090210700033    -2.470069198478    -0.176952379694     1.007825032230
         H            2.850723299967     0.532619801522     0.128412620306     1.007825032230
         H            1.214017299967    -3.428648198478    -0.168459379694     1.007825032230
         H            3.172186299967    -1.897251198478    -0.026830379694     1.007825032230
         H            2.100261299967     2.567834801522    -0.724898379694     1.007825032230
         H            2.136300299967     2.496561801522     1.064014620306     1.007825032230
         H            1.053810299967     3.649689801522     0.235150620306     1.007825032230
         H           -2.311142700033    -0.814101198478     1.651457620306     1.007825032230
         H           -3.595238700033     0.010137801522     0.847916620306     1.007825032230

  Basis Set: AUG-CC-PVTZ
    Blend: AUG-CC-PVTZ
  Basis Set: (AUG-CC-PVTZ AUX)
    Blend: AUG-CC-PVTZ-JKFIT
	 Reference Energy          =    -512.5162531515831006 [Eh]
	 Singles Energy            =      -0.0000000000000000 [Eh]
	 Same-Spin Energy          =      -0.5359688693017388 [Eh]
	 Opposite-Spin Energy      =      -1.6478930440465607 [Eh]
	 Correlation Energy        =      -2.1838619133482995 [Eh]
	 Total Energy              =    -514.7001150649314241 [Eh]

	 ================> DF-SCS-MP2 Energies <==================
	-----------------------------------------------------------
	 SCS Same-Spin Scale       =       0.3333333333333333 [-]
	 SCS Opposite-Spin Scale   =       1.2000000000000000 [-]
	 SCS Same-Spin Energy      =      -0.1786562897672463 [Eh]
	 SCS Opposite-Spin Energy  =      -1.9774716528558727 [Eh]
	 SCS Correlation Energy    =      -2.1561279426231188 [Eh]
	 SCS Total Energy          =    -514.6723810942062300 [Eh]
	-----------------------------------------------------------

  Dipole Moment: [D]
     X:     1.9371      Y:    -0.9724      Z:     2.8944     Total:     3.6160

*** Psi4 exiting successfully. Buy a developer a beer!
