                               Psi4 1.4a3.dev225

  ==> Input File <==

--------------------------------------------------------------------------
#psi4
#
memory 32 gb

molecule  {
0 1
  O        0.3703410     1.7406370     0.1509160
  O       -2.1946130     0.9173750    -0.9921890
  N       -2.7109060    -0.4412560     0.7761490
  C       -0.4510660    -0.4506100    -0.0514270
  C        0.6599990     0.4108460     0.0342650
  C       -0.2507290    -1.8313420    -0.1181570
  C        1.9527030    -0.1242260     0.0401840
  C        1.0395390    -2.3670290    -0.1196300
  C        2.1335050    -1.5087060    -0.0439110
  C       -1.8406380     0.1093760    -0.1384300
  C        1.4719710     2.6442150     0.1686120
  H       -1.1182000    -2.4830940    -0.1949200
  H        2.8227340     0.5195950     0.1104450
  H        1.1860280    -3.4416730    -0.1864270
  H        3.1441970    -1.9102760    -0.0447980
  H        2.0566559     2.5583563    -0.7532983
  H        2.1083110     2.4835370     1.0460470
  H        1.0258210     3.6366650     0.2171830
  H       -2.3391320    -0.8271260     1.6334900
  H       -3.6232280    -0.0028870     0.8299490
units angstrom
no_reorient  #important for SAPT in psi4, default
symmetry c1  #important for SAPT in psi4, default
}

set PROPERTIES_ORIGIN ["COM"]
properties('MP2/aug-cc-pvtz', properties = ['dipole'])
--------------------------------------------------------------------------

    Molecular point group: c1
  Charge       = 0
  Multiplicity = 1
  Basis Set: AUG-CC-PVTZ
    Blend: AUG-CC-PVTZ
  Basis Set: (AUG-CC-PVTZ AUX)
    Blend: AUG-CC-PVTZ-JKFIT

    Orbital Energies [Eh]
    ---------------------

    Doubly Occupied:

       1A    -20.590063     2A    -20.517364     3A    -15.582777
       4A    -11.355014     5A    -11.317338     6A    -11.287640
       7A    -11.255303     8A    -11.254051     9A    -11.248219
      10A    -11.242632    11A    -11.238357    12A     -1.413796
      13A     -1.369631    14A     -1.207843    15A     -1.157834
      16A     -1.042760    17A     -1.024649    18A     -0.949388
      19A     -0.877136    20A     -0.824174    21A     -0.789188
      22A     -0.735334    23A     -0.708644    24A     -0.681680
      25A     -0.665884    26A     -0.657916    27A     -0.639195
      28A     -0.623373    29A     -0.596508    30A     -0.582125
      31A     -0.558312    32A     -0.543261    33A     -0.530796
      34A     -0.518544    35A     -0.499882    36A     -0.475970
      37A     -0.424072    38A     -0.411588    39A     -0.352268
      40A     -0.322714

  @DF-RHF Final Energy:  -512.54537860926484

   => Energetics <=

    Nuclear Repulsion Energy =            592.6700292267195209
    One-Electron Energy =               -1874.2843758506646736
    Two-Electron Energy =                 769.0689680146801948
    Total Energy =                       -512.5453786092648443
  Basis Set: (AUG-CC-PVTZ AUX)
    Blend: AUG-CC-PVTZ-RI
    Molecular point group: c1

    Geometry (in Angstrom), charge = 0, multiplicity = 1:

       Center              X                  Y                   Z               Mass
    ------------   -----------------  -----------------  -----------------  -----------------
         O            0.405109946003     1.744189871678     0.168465453518    15.994914619570
         O           -2.159844053997     0.920927871678    -0.974639546482    15.994914619570
         N           -2.676137053997    -0.437703128322     0.793698453518    14.003074004430
         C           -0.416297053997    -0.447057128322    -0.033877546482    12.000000000000
         C            0.694767946003     0.414398871678     0.051814453518    12.000000000000
         C           -0.215960053997    -1.827789128322    -0.100607546482    12.000000000000
         C            1.987471946003    -0.120673128322     0.057733453518    12.000000000000
         C            1.074307946003    -2.363476128322    -0.102080546482    12.000000000000
         C            2.168273946003    -1.505153128322    -0.026361546482    12.000000000000
         C           -1.805869053997     0.112928871678    -0.120880546482    12.000000000000
         C            1.506739946003     2.647767871678     0.186161453518    12.000000000000
         H           -1.083431053997    -2.479541128322    -0.177370546482     1.007825032230
         H            2.857502946003     0.523147871678     0.127994453518     1.007825032230
         H            1.220796946003    -3.438120128322    -0.168877546482     1.007825032230
         H            3.178965946003    -1.906723128322    -0.027248546482     1.007825032230
         H            2.091424846003     2.561909171678    -0.735748846482     1.007825032230
         H            2.143079946003     2.487089871678     1.063596453518     1.007825032230
         H            1.060589946003     3.640217871678     0.234732453518     1.007825032230
         H           -2.304363053997    -0.823573128322     1.651039453518     1.007825032230
         H           -3.588459053997     0.000665871678     0.847498453518     1.007825032230

  Basis Set: AUG-CC-PVTZ
    Blend: AUG-CC-PVTZ
  Basis Set: (AUG-CC-PVTZ AUX)
    Blend: AUG-CC-PVTZ-JKFIT
	 Reference Energy          =    -512.5453786092648443 [Eh]
	 Singles Energy            =      -0.0000000000000000 [Eh]
	 Same-Spin Energy          =      -0.5356999924317773 [Eh]
	 Opposite-Spin Energy      =      -1.6452823808163206 [Eh]
	 Correlation Energy        =      -2.1809823732480980 [Eh]
	 Total Energy              =    -514.7263609825129151 [Eh]

	 ================> DF-SCS-MP2 Energies <==================
	-----------------------------------------------------------
	 SCS Same-Spin Scale       =       0.3333333333333333 [-]
	 SCS Opposite-Spin Scale   =       1.2000000000000000 [-]
	 SCS Same-Spin Energy      =      -0.1785666641439258 [Eh]
	 SCS Opposite-Spin Energy  =      -1.9743388569795846 [Eh]
	 SCS Correlation Energy    =      -2.1529055211235102 [Eh]
	 SCS Total Energy          =    -514.6982841303884015 [Eh]
	-----------------------------------------------------------

  Dipole Moment: [D]
     X:     1.9956      Y:    -0.9063      Z:     2.8988     Total:     3.6341

*** Psi4 exiting successfully. Buy a developer a beer!
