                               Psi4 1.4a3.dev225

  ==> Input File <==

--------------------------------------------------------------------------
#psi4
#
memory 32 gb

molecule  {
0 1
  O        0.3703410     1.7406370     0.1509160
  O       -2.1946130     0.9173750    -0.9921890
  N       -2.7109060    -0.4412560     0.7761490
  C       -0.4510660    -0.4506100    -0.0514270
  C        0.6599990     0.4108460     0.0342650
  C       -0.2507290    -1.8313420    -0.1181570
  C        1.9527030    -0.1242260     0.0401840
  C        1.0395390    -2.3670290    -0.1196300
  C        2.1335050    -1.5087060    -0.0439110
  C       -1.8406380     0.1093760    -0.1384300
  C        1.4719710     2.6442150     0.1686120
  H       -1.1182000    -2.4830940    -0.1949200
  H        2.8227340     0.5195950     0.1104450
  H        1.1860280    -3.4416730    -0.1864270
  H        3.1441970    -1.9102760    -0.0447980
  H        2.1029510     2.5478002    -0.7211718
  H        2.1083110     2.4835370     1.0460470
  H        1.0258210     3.6366650     0.2171830
  H       -2.3391320    -0.8271260     1.6334900
  H       -3.6232280    -0.0028870     0.8299490
units angstrom
no_reorient  #important for SAPT in psi4, default
symmetry c1  #important for SAPT in psi4, default
}

set PROPERTIES_ORIGIN ["COM"]
properties('MP2/aug-cc-pvtz', properties = ['dipole'])
--------------------------------------------------------------------------

    Molecular point group: c1
  Charge       = 0
  Multiplicity = 1
  Basis Set: AUG-CC-PVTZ
    Blend: AUG-CC-PVTZ
  Basis Set: (AUG-CC-PVTZ AUX)
    Blend: AUG-CC-PVTZ-JKFIT

    Orbital Energies [Eh]
    ---------------------

    Doubly Occupied:

       1A    -20.590946     2A    -20.517464     3A    -15.582862
       4A    -11.355118     5A    -11.317561     6A    -11.287721
       7A    -11.255433     8A    -11.254205     9A    -11.248397
      10A    -11.242883    11A    -11.238520    12A     -1.414128
      13A     -1.369732    14A     -1.207935    15A     -1.157983
      16A     -1.042917    17A     -1.024735    18A     -0.949763
      19A     -0.877308    20A     -0.824584    21A     -0.789488
      22A     -0.735891    23A     -0.709587    24A     -0.681947
      25A     -0.665904    26A     -0.655517    27A     -0.639624
      28A     -0.623794    29A     -0.596631    30A     -0.582327
      31A     -0.558251    32A     -0.544489    33A     -0.529139
      34A     -0.519039    35A     -0.501490    36A     -0.475352
      37A     -0.424179    38A     -0.411674    39A     -0.352408
      40A     -0.322925

  @DF-RHF Final Energy:  -512.54517695984089

   => Energetics <=

    Nuclear Repulsion Energy =            592.6448945574551317
    One-Electron Energy =               -1874.2204409322171159
    Two-Electron Energy =                 769.0303694149209832
    Total Energy =                       -512.5451769598408873
  Basis Set: (AUG-CC-PVTZ AUX)
    Blend: AUG-CC-PVTZ-RI
    Molecular point group: c1

    Geometry (in Angstrom), charge = 0, multiplicity = 1:

       Center              X                  Y                   Z               Mass
    ------------   -----------------  -----------------  -----------------  -----------------
         O            0.404801086393     1.744260297121     0.168251120290    15.994914619570
         O           -2.160152913607     0.920998297121    -0.974853879710    15.994914619570
         N           -2.676445913607    -0.437632702879     0.793484120290    14.003074004430
         C           -0.416605913607    -0.446986702879    -0.034091879710    12.000000000000
         C            0.694459086393     0.414469297121     0.051600120290    12.000000000000
         C           -0.216268913607    -1.827718702879    -0.100821879710    12.000000000000
         C            1.987163086393    -0.120602702879     0.057519120290    12.000000000000
         C            1.073999086393    -2.363405702879    -0.102294879710    12.000000000000
         C            2.167965086393    -1.505082702879    -0.026575879710    12.000000000000
         C           -1.806177913607     0.112999297121    -0.121094879710    12.000000000000
         C            1.506431086393     2.647838297121     0.185947120290    12.000000000000
         H           -1.083739913607    -2.479470702879    -0.177584879710     1.007825032230
         H            2.857194086393     0.523218297121     0.127780120290     1.007825032230
         H            1.220488086393    -3.438049702879    -0.169091879710     1.007825032230
         H            3.178657086393    -1.906652702879    -0.027462879710     1.007825032230
         H            2.137411086393     2.551423497121    -0.703836679710     1.007825032230
         H            2.142771086393     2.487160297121     1.063382120290     1.007825032230
         H            1.060281086393     3.640288297121     0.234518120290     1.007825032230
         H           -2.304671913607    -0.823502702879     1.650825120290     1.007825032230
         H           -3.588767913607     0.000736297121     0.847284120290     1.007825032230

  Basis Set: AUG-CC-PVTZ
    Blend: AUG-CC-PVTZ
  Basis Set: (AUG-CC-PVTZ AUX)
    Blend: AUG-CC-PVTZ-JKFIT
	 Reference Energy          =    -512.5451769598408873 [Eh]
	 Singles Energy            =      -0.0000000000000000 [Eh]
	 Same-Spin Energy          =      -0.5357308310442590 [Eh]
	 Opposite-Spin Energy      =      -1.6453183101107327 [Eh]
	 Correlation Energy        =      -2.1810491411549915 [Eh]
	 Total Energy              =    -514.7262261009958593 [Eh]

	 ================> DF-SCS-MP2 Energies <==================
	-----------------------------------------------------------
	 SCS Same-Spin Scale       =       0.3333333333333333 [-]
	 SCS Opposite-Spin Scale   =       1.2000000000000000 [-]
	 SCS Same-Spin Energy      =      -0.1785769436814197 [Eh]
	 SCS Opposite-Spin Energy  =      -1.9743819721328792 [Eh]
	 SCS Correlation Energy    =      -2.1529589158142990 [Eh]
	 SCS Total Energy          =    -514.6981358756552254 [Eh]
	-----------------------------------------------------------

  Dipole Moment: [D]
     X:     1.9998      Y:    -0.9295      Z:     2.9013     Total:     3.6442

*** Psi4 exiting successfully. Buy a developer a beer!
