                               Psi4 1.4a3.dev225

  ==> Input File <==

--------------------------------------------------------------------------
#psi4
#
memory 32 gb

molecule  {
0 1
  O        0.3703410     1.7406370     0.1509160
  O       -2.1946130     0.9173750    -0.9921890
  N       -2.7109060    -0.4412560     0.7761490
  C       -0.4510660    -0.4506100    -0.0514270
  C        0.6599990     0.4108460     0.0342650
  C       -0.2507290    -1.8313420    -0.1181570
  C        1.9527030    -0.1242260     0.0401840
  C        1.0395390    -2.3670290    -0.1196300
  C        2.1335050    -1.5087060    -0.0439110
  C       -1.8406380     0.1093760    -0.1384300
  C        1.4719710     2.6442150     0.1686120
  H       -1.1182000    -2.4830940    -0.1949200
  H        2.8227340     0.5195950     0.1104450
  H        1.2129899    -3.6394656    -0.1987213
  H        3.1441970    -1.9102760    -0.0447980
  H        2.0722720     2.5548100    -0.7428660
  H        2.1083110     2.4835370     1.0460470
  H        1.0258210     3.6366650     0.2171830
  H       -2.3391320    -0.8271260     1.6334900
  H       -3.6232280    -0.0028870     0.8299490
units angstrom
no_reorient  #important for SAPT in psi4, default
symmetry c1  #important for SAPT in psi4, default
}

set PROPERTIES_ORIGIN ["COM"]
properties('MP2/aug-cc-pvtz', properties = ['dipole'])
--------------------------------------------------------------------------

    Molecular point group: c1
  Charge       = 0
  Multiplicity = 1
  Basis Set: AUG-CC-PVTZ
    Blend: AUG-CC-PVTZ
  Basis Set: (AUG-CC-PVTZ AUX)
    Blend: AUG-CC-PVTZ-JKFIT

    Orbital Energies [Eh]
    ---------------------

    Doubly Occupied:

       1A    -20.591153     2A    -20.518243     3A    -15.583469
       4A    -11.356039     5A    -11.318462     6A    -11.288319
       7A    -11.260252     8A    -11.257520     9A    -11.256281
      10A    -11.249906    11A    -11.244374    12A     -1.414724
      13A     -1.370476    14A     -1.208602    15A     -1.158667
      16A     -1.043625    17A     -1.022567    18A     -0.948192
      19A     -0.878465    20A     -0.822947    21A     -0.783389
      22A     -0.733649    23A     -0.709438    24A     -0.680216
      25A     -0.664223    26A     -0.656304    27A     -0.628531
      28A     -0.622699    29A     -0.597779    30A     -0.583066
      31A     -0.558600    32A     -0.537112    33A     -0.530598
      34A     -0.504139    35A     -0.499524    36A     -0.477134
      37A     -0.424590    38A     -0.412332    39A     -0.353777
      40A     -0.324075

  @DF-RHF Final Energy:  -512.52310615683268

   => Energetics <=

    Nuclear Repulsion Energy =            591.7097851317773802
    One-Electron Energy =               -1872.3188643345804394
    Two-Electron Energy =                 768.0859730459703769
    Total Energy =                       -512.5231061568326822
  Basis Set: (AUG-CC-PVTZ AUX)
    Blend: AUG-CC-PVTZ-RI
    Molecular point group: c1

    Geometry (in Angstrom), charge = 0, multiplicity = 1:

       Center              X                  Y                   Z               Mass
    ------------   -----------------  -----------------  -----------------  -----------------
         O            0.404825885175     1.745533112194     0.168477875926    15.994914619570
         O           -2.160128114825     0.922271112194    -0.974627124074    15.994914619570
         N           -2.676421114825    -0.436359887806     0.793710875926    14.003074004430
         C           -0.416581114825    -0.445713887806    -0.033865124074    12.000000000000
         C            0.694483885175     0.415742112194     0.051826875926    12.000000000000
         C           -0.216244114825    -1.826445887806    -0.100595124074    12.000000000000
         C            1.987187885175    -0.119329887806     0.057745875926    12.000000000000
         C            1.074023885175    -2.362132887806    -0.102068124074    12.000000000000
         C            2.167989885175    -1.503809887806    -0.026349124074    12.000000000000
         C           -1.806153114825     0.114272112194    -0.120868124074    12.000000000000
         C            1.506455885175     2.649111112194     0.186173875926    12.000000000000
         H           -1.083715114825    -2.478197887806    -0.177358124074     1.007825032230
         H            2.857218885175     0.524491112194     0.128006875926     1.007825032230
         H            1.247474785175    -3.634569487806    -0.181159424074     1.007825032230
         H            3.178681885175    -1.905379887806    -0.027236124074     1.007825032230
         H            2.106756885175     2.559706112194    -0.725304124074     1.007825032230
         H            2.142795885175     2.488433112194     1.063608875926     1.007825032230
         H            1.060305885175     3.641561112194     0.234744875926     1.007825032230
         H           -2.304647114825    -0.822229887806     1.651051875926     1.007825032230
         H           -3.588743114825     0.002009112194     0.847510875926     1.007825032230

  Basis Set: AUG-CC-PVTZ
    Blend: AUG-CC-PVTZ
  Basis Set: (AUG-CC-PVTZ AUX)
    Blend: AUG-CC-PVTZ-JKFIT
	 Reference Energy          =    -512.5231061568326822 [Eh]
	 Singles Energy            =      -0.0000000000000000 [Eh]
	 Same-Spin Energy          =      -0.5361631863288689 [Eh]
	 Opposite-Spin Energy      =      -1.6475214016085380 [Eh]
	 Correlation Energy        =      -2.1836845879374067 [Eh]
	 Total Energy              =    -514.7067907447700463 [Eh]

	 ================> DF-SCS-MP2 Energies <==================
	-----------------------------------------------------------
	 SCS Same-Spin Scale       =       0.3333333333333333 [-]
	 SCS Opposite-Spin Scale   =       1.2000000000000000 [-]
	 SCS Same-Spin Energy      =      -0.1787210621096230 [Eh]
	 SCS Opposite-Spin Energy  =      -1.9770256819302454 [Eh]
	 SCS Correlation Energy    =      -2.1557467440398685 [Eh]
	 SCS Total Energy          =    -514.6788529008725845 [Eh]
	-----------------------------------------------------------

  Dipole Moment: [D]
     X:     1.9690      Y:    -0.8059      Z:     2.9050     Total:     3.6008

*** Psi4 exiting successfully. Buy a developer a beer!
