                               Psi4 1.4a3.dev225

  ==> Input File <==

--------------------------------------------------------------------------
#psi4
#
memory 32 gb

molecule  {
0 1
  O        0.3703410     1.7406370     0.1509160
  O       -2.1946130     0.9173750    -0.9921890
  N       -2.7109060    -0.4412560     0.7761490
  C       -0.4510660    -0.4506100    -0.0514270
  C        0.6599990     0.4108460     0.0342650
  C       -0.2507290    -1.8313420    -0.1181570
  C        1.9527030    -0.1242260     0.0401840
  C        1.0395390    -2.3670290    -0.1196300
  C        2.1335050    -1.5087060    -0.0439110
  C       -1.8406380     0.1093760    -0.1384300
  C        1.4719710     2.6442150     0.1686120
  H       -1.1182000    -2.4830940    -0.1949200
  H        2.8227340     0.5195950     0.1104450
  H        1.1860280    -3.4416730    -0.1864270
  H        3.1441970    -1.9102760    -0.0447980
  H        2.0722720     2.5548100    -0.7428660
  H        2.0893463     2.5538707     1.0693472
  H        1.0258210     3.6366650     0.2171830
  H       -2.3391320    -0.8271260     1.6334900
  H       -3.6232280    -0.0028870     0.8299490
units angstrom
no_reorient  #important for SAPT in psi4, default
symmetry c1  #important for SAPT in psi4, default
}

set PROPERTIES_ORIGIN ["COM"]
properties('MP2/aug-cc-pvtz', properties = ['dipole'])
--------------------------------------------------------------------------

    Molecular point group: c1
  Charge       = 0
  Multiplicity = 1
  Basis Set: AUG-CC-PVTZ
    Blend: AUG-CC-PVTZ
  Basis Set: (AUG-CC-PVTZ AUX)
    Blend: AUG-CC-PVTZ-JKFIT

    Orbital Energies [Eh]
    ---------------------

    Doubly Occupied:

       1A    -20.591171     2A    -20.517423     3A    -15.582812
       4A    -11.355057     5A    -11.317411     6A    -11.287456
       7A    -11.255301     8A    -11.254019     9A    -11.248255
      10A    -11.242600    11A    -11.238361    12A     -1.414102
      13A     -1.369691    14A     -1.207882    15A     -1.157837
      16A     -1.042722    17A     -1.024713    18A     -0.949632
      19A     -0.877122    20A     -0.824667    21A     -0.789080
      22A     -0.735238    23A     -0.708859    24A     -0.681416
      25A     -0.667478    26A     -0.657443    27A     -0.638526
      28A     -0.623170    29A     -0.596631    30A     -0.581384
      31A     -0.558559    32A     -0.543028    33A     -0.530034
      34A     -0.518819    35A     -0.499704    36A     -0.476469
      37A     -0.424132    38A     -0.411628    39A     -0.352237
      40A     -0.322791

  @DF-RHF Final Energy:  -512.54480884037991

   => Energetics <=

    Nuclear Repulsion Energy =            592.5371204295589678
    One-Electron Energy =               -1874.0141448481917905
    Two-Electron Energy =                 768.9322155782530217
    Total Energy =                       -512.5448088403799147
  Basis Set: (AUG-CC-PVTZ AUX)
    Blend: AUG-CC-PVTZ-RI
    Molecular point group: c1

    Geometry (in Angstrom), charge = 0, multiplicity = 1:

       Center              X                  Y                   Z               Mass
    ------------   -----------------  -----------------  -----------------  -----------------
         O            0.405132286322     1.743744296870     0.168240405797    15.994914619570
         O           -2.159821713678     0.920482296870    -0.974864594203    15.994914619570
         N           -2.676114713678    -0.438148703130     0.793473405797    14.003074004430
         C           -0.416274713678    -0.447502703130    -0.034102594203    12.000000000000
         C            0.694790286322     0.413953296870     0.051589405797    12.000000000000
         C           -0.215937713678    -1.828234703130    -0.100832594203    12.000000000000
         C            1.987494286322    -0.121118703130     0.057508405797    12.000000000000
         C            1.074330286322    -2.363921703130    -0.102305594203    12.000000000000
         C            2.168296286322    -1.505598703130    -0.026586594203    12.000000000000
         C           -1.805846713678     0.112483296870    -0.121105594203    12.000000000000
         C            1.506762286322     2.647322296870     0.185936405797    12.000000000000
         H           -1.083408713678    -2.479986703130    -0.177595594203     1.007825032230
         H            2.857525286322     0.522702296870     0.127769405797     1.007825032230
         H            1.220819286322    -3.438565703130    -0.169102594203     1.007825032230
         H            3.178988286322    -1.907168703130    -0.027473594203     1.007825032230
         H            2.107063286322     2.557917296870    -0.725541594203     1.007825032230
         H            2.124137586322     2.556977996870     1.086671605797     1.007825032230
         H            1.060612286322     3.639772296870     0.234507405797     1.007825032230
         H           -2.304340713678    -0.824018703130     1.650814405797     1.007825032230
         H           -3.588436713678     0.000220296870     0.847273405797     1.007825032230

  Basis Set: AUG-CC-PVTZ
    Blend: AUG-CC-PVTZ
  Basis Set: (AUG-CC-PVTZ AUX)
    Blend: AUG-CC-PVTZ-JKFIT
	 Reference Energy          =    -512.5448088403799147 [Eh]
	 Singles Energy            =      -0.0000000000000000 [Eh]
	 Same-Spin Energy          =      -0.5356958805983053 [Eh]
	 Opposite-Spin Energy      =      -1.6452756336175378 [Eh]
	 Correlation Energy        =      -2.1809715142158432 [Eh]
	 Total Energy              =    -514.7257803545957131 [Eh]

	 ================> DF-SCS-MP2 Energies <==================
	-----------------------------------------------------------
	 SCS Same-Spin Scale       =       0.3333333333333333 [-]
	 SCS Opposite-Spin Scale   =       1.2000000000000000 [-]
	 SCS Same-Spin Energy      =      -0.1785652935327684 [Eh]
	 SCS Opposite-Spin Energy  =      -1.9743307603410454 [Eh]
	 SCS Correlation Energy    =      -2.1528960538738140 [Eh]
	 SCS Total Energy          =    -514.6977048942537749 [Eh]
	-----------------------------------------------------------

  Dipole Moment: [D]
     X:     1.9990      Y:    -0.9006      Z:     2.9163     Total:     3.6486

*** Psi4 exiting successfully. Buy a developer a beer!
