                               Psi4 1.4a3.dev225

  ==> Input File <==

--------------------------------------------------------------------------
#psi4
#
memory 32 gb

molecule  {
0 1
  O        0.3703410     1.7406370     0.1509160
  O       -2.1946130     0.9173750    -0.9921890
  N       -2.7109060    -0.4412560     0.7761490
  C       -0.4510660    -0.4506100    -0.0514270
  C        0.6599990     0.4108460     0.0342650
  C       -0.2507290    -1.8313420    -0.1181570
  C        1.9527030    -0.1242260     0.0401840
  C        1.0395390    -2.3670290    -0.1196300
  C        2.1335050    -1.5087060    -0.0439110
  C       -1.7480423     0.0720607    -0.1326325
  C        1.4719710     2.6442150     0.1686120
  H       -1.1182000    -2.4830940    -0.1949200
  H        2.8227340     0.5195950     0.1104450
  H        1.1860280    -3.4416730    -0.1864270
  H        3.1441970    -1.9102760    -0.0447980
  H        2.0722720     2.5548100    -0.7428660
  H        2.1083110     2.4835370     1.0460470
  H        1.0258210     3.6366650     0.2171830
  H       -2.3391320    -0.8271260     1.6334900
  H       -3.6232280    -0.0028870     0.8299490
units angstrom
no_reorient  #important for SAPT in psi4, default
symmetry c1  #important for SAPT in psi4, default
}

set PROPERTIES_ORIGIN ["COM"]
properties('MP2/aug-cc-pvtz', properties = ['dipole'])
--------------------------------------------------------------------------

    Molecular point group: c1
  Charge       = 0
  Multiplicity = 1
  Basis Set: AUG-CC-PVTZ
    Blend: AUG-CC-PVTZ
  Basis Set: (AUG-CC-PVTZ AUX)
    Blend: AUG-CC-PVTZ-JKFIT

    Orbital Energies [Eh]
    ---------------------

    Doubly Occupied:

       1A    -20.594761     2A    -20.511110     3A    -15.578149
       4A    -11.357800     5A    -11.325585     6A    -11.290342
       7A    -11.263528     8A    -11.261551     9A    -11.248417
      10A    -11.247691    11A    -11.243473    12A     -1.418282
      13A     -1.334012    14A     -1.188974    15A     -1.163142
      16A     -1.058826    17A     -1.030630    18A     -0.955346
      19A     -0.895691    20A     -0.830985    21A     -0.788224
      22A     -0.728645    23A     -0.704539    24A     -0.688039
      25A     -0.671363    26A     -0.660602    27A     -0.642023
      28A     -0.622640    29A     -0.596325    30A     -0.579780
      31A     -0.550818    32A     -0.546095    33A     -0.531507
      34A     -0.513669    35A     -0.503224    36A     -0.479572
      37A     -0.419957    38A     -0.398081    39A     -0.357841
      40A     -0.328486

  @DF-RHF Final Energy:  -512.52455197801100

   => Energetics <=

    Nuclear Repulsion Energy =            593.3087587920840633
    One-Electron Energy =               -1875.4471663843119131
    Two-Electron Energy =                 769.6138556142168454
    Total Energy =                       -512.5245519780110044
  Basis Set: (AUG-CC-PVTZ AUX)
    Blend: AUG-CC-PVTZ-RI
    Molecular point group: c1

    Geometry (in Angstrom), charge = 0, multiplicity = 1:

       Center              X                  Y                   Z               Mass
    ------------   -----------------  -----------------  -----------------  -----------------
         O            0.397650248753     1.747177742092     0.167935318681    15.994914619570
         O           -2.167303751247     0.923915742092    -0.975169681319    15.994914619570
         N           -2.683596751247    -0.434715257908     0.793168318681    14.003074004430
         C           -0.423756751247    -0.444069257908    -0.034407681319    12.000000000000
         C            0.687308248753     0.417386742092     0.051284318681    12.000000000000
         C           -0.223419751247    -1.824801257908    -0.101137681319    12.000000000000
         C            1.980012248753    -0.117685257908     0.057203318681    12.000000000000
         C            1.066848248753    -2.360488257908    -0.102610681319    12.000000000000
         C            2.160814248753    -1.502165257908    -0.026891681319    12.000000000000
         C           -1.720733051247     0.078601442092    -0.115613181319    12.000000000000
         C            1.499280248753     2.650755742092     0.185631318681    12.000000000000
         H           -1.090890751247    -2.476553257908    -0.177900681319     1.007825032230
         H            2.850043248753     0.526135742092     0.127464318681     1.007825032230
         H            1.213337248753    -3.435132257908    -0.169407681319     1.007825032230
         H            3.171506248753    -1.903735257908    -0.027778681319     1.007825032230
         H            2.099581248753     2.561350742092    -0.725846681319     1.007825032230
         H            2.135620248753     2.490077742092     1.063066318681     1.007825032230
         H            1.053130248753     3.643205742092     0.234202318681     1.007825032230
         H           -2.311822751247    -0.820585257908     1.650509318681     1.007825032230
         H           -3.595918751247     0.003653742092     0.846968318681     1.007825032230

  Basis Set: AUG-CC-PVTZ
    Blend: AUG-CC-PVTZ
  Basis Set: (AUG-CC-PVTZ AUX)
    Blend: AUG-CC-PVTZ-JKFIT
	 Reference Energy          =    -512.5245519780110044 [Eh]
	 Singles Energy            =      -0.0000000000000000 [Eh]
	 Same-Spin Energy          =      -0.5381184706391624 [Eh]
	 Opposite-Spin Energy      =      -1.6502461327421638 [Eh]
	 Correlation Energy        =      -2.1883646033813262 [Eh]
	 Total Energy              =    -514.7129165813922782 [Eh]

	 ================> DF-SCS-MP2 Energies <==================
	-----------------------------------------------------------
	 SCS Same-Spin Scale       =       0.3333333333333333 [-]
	 SCS Opposite-Spin Scale   =       1.2000000000000000 [-]
	 SCS Same-Spin Energy      =      -0.1793728235463874 [Eh]
	 SCS Opposite-Spin Energy  =      -1.9802953592905965 [Eh]
	 SCS Correlation Energy    =      -2.1596681828369841 [Eh]
	 SCS Total Energy          =    -514.6842201608479854 [Eh]
	-----------------------------------------------------------

  Dipole Moment: [D]
     X:     2.6742      Y:    -1.0752      Z:     2.8737     Total:     4.0701

*** Psi4 exiting successfully. Buy a developer a beer!
