                               Psi4 1.4a3.dev225

  ==> Input File <==

--------------------------------------------------------------------------
#psi4
#
memory 32 gb

molecule  {
0 1
  O        0.3703410     1.7406370     0.1509160
  O       -2.1946130     0.9173750    -0.9921890
  N       -2.7109060    -0.4412560     0.7761490
  C       -0.4510660    -0.4506100    -0.0514270
  C        0.6599990     0.4108460     0.0342650
  C       -0.2507290    -1.8313420    -0.1181570
  C        1.9527030    -0.1242260     0.0401840
  C        1.0395390    -2.3670290    -0.1196300
  C        2.1335050    -1.5087060    -0.0439110
  C       -1.8406380     0.1093760    -0.1384300
  C        1.4719710     2.6442150     0.1686120
  H       -1.1182000    -2.4830940    -0.1949200
  H        2.8227340     0.5195950     0.1104450
  H        1.1725471    -3.3427767    -0.1802799
  H        3.1441970    -1.9102760    -0.0447980
  H        2.0722720     2.5548100    -0.7428660
  H        2.1083110     2.4835370     1.0460470
  H        1.0258210     3.6366650     0.2171830
  H       -2.3391320    -0.8271260     1.6334900
  H       -3.6232280    -0.0028870     0.8299490
units angstrom
no_reorient  #important for SAPT in psi4, default
symmetry c1  #important for SAPT in psi4, default
}

set PROPERTIES_ORIGIN ["COM"]
properties('MP2/aug-cc-pvtz', properties = ['dipole'])
--------------------------------------------------------------------------

    Molecular point group: c1
  Charge       = 0
  Multiplicity = 1
  Basis Set: AUG-CC-PVTZ
    Blend: AUG-CC-PVTZ
  Basis Set: (AUG-CC-PVTZ AUX)
    Blend: AUG-CC-PVTZ-JKFIT

    Orbital Energies [Eh]
    ---------------------

    Doubly Occupied:

       1A    -20.590168     2A    -20.517113     3A    -15.582589
       4A    -11.354708     5A    -11.317166     6A    -11.287485
       7A    -11.254587     8A    -11.253358     9A    -11.247705
      10A    -11.242133    11A    -11.226456    12A     -1.413697
      13A     -1.369396    14A     -1.207641    15A     -1.158150
      16A     -1.043187    17A     -1.027030    18A     -0.951022
      19A     -0.876815    20A     -0.826956    21A     -0.794329
      22A     -0.737275    23A     -0.709099    24A     -0.684847
      25A     -0.668072    26A     -0.657924    27A     -0.644154
      28A     -0.623327    29A     -0.596130    30A     -0.581961
      31A     -0.558948    32A     -0.548415    33A     -0.530148
      34A     -0.521641    35A     -0.500130    36A     -0.475383
      37A     -0.423936    38A     -0.411382    39A     -0.351812
      40A     -0.322508

  @DF-RHF Final Energy:  -512.53952830646085

   => Energetics <=

    Nuclear Repulsion Energy =            593.2240260737810331
    One-Electron Energy =               -1875.3495411400576813
    Two-Electron Energy =                 769.5859867598157962
    Total Energy =                       -512.5395283064608520
  Basis Set: (AUG-CC-PVTZ AUX)
    Blend: AUG-CC-PVTZ-RI
    Molecular point group: c1

    Geometry (in Angstrom), charge = 0, multiplicity = 1:

       Center              X                  Y                   Z               Mass
    ------------   -----------------  -----------------  -----------------  -----------------
         O            0.405095700931     1.743553740343     0.168354843389    15.994914619570
         O           -2.159858299069     0.920291740343    -0.974750156611    15.994914619570
         N           -2.676151299069    -0.438339259657     0.793587843389    14.003074004430
         C           -0.416311299069    -0.447693259657    -0.033988156611    12.000000000000
         C            0.694753700931     0.413762740343     0.051703843389    12.000000000000
         C           -0.215974299069    -1.828425259657    -0.100718156611    12.000000000000
         C            1.987457700931    -0.121309259657     0.057622843389    12.000000000000
         C            1.074293700931    -2.364112259657    -0.102191156611    12.000000000000
         C            2.168259700931    -1.505789259657    -0.026472156611    12.000000000000
         C           -1.805883299069     0.112292740343    -0.120991156611    12.000000000000
         C            1.506725700931     2.647131740343     0.186050843389    12.000000000000
         H           -1.083445299069    -2.480177259657    -0.177481156611     1.007825032230
         H            2.857488700931     0.522511740343     0.127883843389     1.007825032230
         H            1.207301800931    -3.339859959657    -0.162841056611     1.007825032230
         H            3.178951700931    -1.907359259657    -0.027359156611     1.007825032230
         H            2.107026700931     2.557726740343    -0.725427156611     1.007825032230
         H            2.143065700931     2.486453740343     1.063485843389     1.007825032230
         H            1.060575700931     3.639581740343     0.234621843389     1.007825032230
         H           -2.304377299069    -0.824209259657     1.650928843389     1.007825032230
         H           -3.588473299069     0.000029740343     0.847387843389     1.007825032230

  Basis Set: AUG-CC-PVTZ
    Blend: AUG-CC-PVTZ
  Basis Set: (AUG-CC-PVTZ AUX)
    Blend: AUG-CC-PVTZ-JKFIT
	 Reference Energy          =    -512.5395283064608520 [Eh]
	 Singles Energy            =      -0.0000000000000000 [Eh]
	 Same-Spin Energy          =      -0.5355708369971766 [Eh]
	 Opposite-Spin Energy      =      -1.6447879865087383 [Eh]
	 Correlation Energy        =      -2.1803588235059150 [Eh]
	 Total Energy              =    -514.7198871299667644 [Eh]

	 ================> DF-SCS-MP2 Energies <==================
	-----------------------------------------------------------
	 SCS Same-Spin Scale       =       0.3333333333333333 [-]
	 SCS Opposite-Spin Scale   =       1.2000000000000000 [-]
	 SCS Same-Spin Energy      =      -0.1785236123323922 [Eh]
	 SCS Opposite-Spin Energy  =      -1.9737455838104858 [Eh]
	 SCS Correlation Energy    =      -2.1522691961428779 [Eh]
	 SCS Total Energy          =    -514.6917975026037766 [Eh]
	-----------------------------------------------------------

  Dipole Moment: [D]
     X:     2.0058      Y:    -0.9420      Z:     2.8983     Total:     3.6484

*** Psi4 exiting successfully. Buy a developer a beer!
