                               Psi4 1.4a3.dev225

  ==> Input File <==

--------------------------------------------------------------------------
#psi4
#
memory 32 gb

molecule  {
0 1
  O        0.3703410     1.7406370     0.1509160
  O       -2.1946130     0.9173750    -0.9921890
  N       -2.7109060    -0.4412560     0.7761490
  C       -0.4510660    -0.4506100    -0.0514270
  C        0.6599990     0.4108460     0.0342650
  C       -0.2507290    -1.8313420    -0.1181570
  C        1.9527030    -0.1242260     0.0401840
  C        1.0395390    -2.3670290    -0.1196300
  C        2.1027806    -1.4710874    -0.0420455
  C       -1.8406380     0.1093760    -0.1384300
  C        1.4719710     2.6442150     0.1686120
  H       -1.1182000    -2.4830940    -0.1949200
  H        2.8227340     0.5195950     0.1104450
  H        1.1860280    -3.4416730    -0.1864270
  H        3.1441970    -1.9102760    -0.0447980
  H        2.0722720     2.5548100    -0.7428660
  H        2.1083110     2.4835370     1.0460470
  H        1.0258210     3.6366650     0.2171830
  H       -2.3391320    -0.8271260     1.6334900
  H       -3.6232280    -0.0028870     0.8299490
units angstrom
no_reorient  #important for SAPT in psi4, default
symmetry c1  #important for SAPT in psi4, default
}

set PROPERTIES_ORIGIN ["COM"]
properties('MP2/aug-cc-pvtz', properties = ['dipole'])
--------------------------------------------------------------------------

    Molecular point group: c1
  Charge       = 0
  Multiplicity = 1
  Basis Set: AUG-CC-PVTZ
    Blend: AUG-CC-PVTZ
  Basis Set: (AUG-CC-PVTZ AUX)
    Blend: AUG-CC-PVTZ-JKFIT

    Orbital Energies [Eh]
    ---------------------

    Doubly Occupied:

       1A    -20.590969     2A    -20.516923     3A    -15.582418
       4A    -11.354574     5A    -11.318212     6A    -11.288313
       7A    -11.254825     8A    -11.253021     9A    -11.246643
      10A    -11.239187    11A    -11.237470    12A     -1.414539
      13A     -1.369243    14A     -1.207560    15A     -1.162214
      16A     -1.045306    17A     -1.026475    18A     -0.950068
      19A     -0.874077    20A     -0.826391    21A     -0.789500
      22A     -0.735744    23A     -0.706541    24A     -0.682564
      25A     -0.667031    26A     -0.657926    27A     -0.637518
      28A     -0.623753    29A     -0.592369    30A     -0.585183
      31A     -0.558853    32A     -0.542059    33A     -0.531458
      34A     -0.522250    35A     -0.495089    36A     -0.477725
      37A     -0.423509    38A     -0.411293    39A     -0.356889
      40A     -0.321373

  @DF-RHF Final Energy:  -512.54273254738268

   => Energetics <=

    Nuclear Repulsion Energy =            593.6057947251883888
    One-Electron Energy =               -1876.1429450374237149
    Two-Electron Energy =                 769.9944177648526420
    Total Energy =                       -512.5427325473826841
  Basis Set: (AUG-CC-PVTZ AUX)
    Blend: AUG-CC-PVTZ-RI
    Molecular point group: c1

    Geometry (in Angstrom), charge = 0, multiplicity = 1:

       Center              X                  Y                   Z               Mass
    ------------   -----------------  -----------------  -----------------  -----------------
         O            0.407446413145     1.741225226622     0.168247664506    15.994914619570
         O           -2.157507586855     0.917963226622    -0.974857335494    15.994914619570
         N           -2.673800586855    -0.440667773378     0.793480664506    14.003074004430
         C           -0.413960586855    -0.450021773378    -0.034095335494    12.000000000000
         C            0.697104413145     0.411434226622     0.051596664506    12.000000000000
         C           -0.213623586855    -1.830753773378    -0.100825335494    12.000000000000
         C            1.989808413145    -0.123637773378     0.057515664506    12.000000000000
         C            1.076644413145    -2.366440773378    -0.102298335494    12.000000000000
         C            2.139886013145    -1.470499173378    -0.024713835494    12.000000000000
         C           -1.803532586855     0.109964226622    -0.121098335494    12.000000000000
         C            1.509076413145     2.644803226622     0.185943664506    12.000000000000
         H           -1.081094586855    -2.482505773378    -0.177588335494     1.007825032230
         H            2.859839413145     0.520183226622     0.127776664506     1.007825032230
         H            1.223133413145    -3.441084773378    -0.169095335494     1.007825032230
         H            3.181302413145    -1.909687773378    -0.027466335494     1.007825032230
         H            2.109377413145     2.555398226622    -0.725534335494     1.007825032230
         H            2.145416413145     2.484125226622     1.063378664506     1.007825032230
         H            1.062926413145     3.637253226622     0.234514664506     1.007825032230
         H           -2.302026586855    -0.826537773378     1.650821664506     1.007825032230
         H           -3.586122586855    -0.002298773378     0.847280664506     1.007825032230

  Basis Set: AUG-CC-PVTZ
    Blend: AUG-CC-PVTZ
  Basis Set: (AUG-CC-PVTZ AUX)
    Blend: AUG-CC-PVTZ-JKFIT
	 Reference Energy          =    -512.5427325473826841 [Eh]
	 Singles Energy            =      -0.0000000000000000 [Eh]
	 Same-Spin Energy          =      -0.5357511314980872 [Eh]
	 Opposite-Spin Energy      =      -1.6451507238285989 [Eh]
	 Correlation Energy        =      -2.1809018553266863 [Eh]
	 Total Energy              =    -514.7236344027094219 [Eh]

	 ================> DF-SCS-MP2 Energies <==================
	-----------------------------------------------------------
	 SCS Same-Spin Scale       =       0.3333333333333333 [-]
	 SCS Opposite-Spin Scale   =       1.2000000000000000 [-]
	 SCS Same-Spin Energy      =      -0.1785837104993624 [Eh]
	 SCS Opposite-Spin Energy  =      -1.9741808685943187 [Eh]
	 SCS Correlation Energy    =      -2.1527645790936809 [Eh]
	 SCS Total Energy          =    -514.6954971264763117 [Eh]
	-----------------------------------------------------------

  Dipole Moment: [D]
     X:     1.9977      Y:    -0.8878      Z:     2.9012     Total:     3.6326

*** Psi4 exiting successfully. Buy a developer a beer!
