                               Psi4 1.4a3.dev225

  ==> Input File <==

--------------------------------------------------------------------------
#psi4
#
memory 32 gb

molecule  {
0 1
  O        0.3703410     1.7406370     0.1509160
  O       -2.1946130     0.9173750    -0.9921890
  N       -2.7109060    -0.4412560     0.7761490
  C       -0.4510660    -0.4506100    -0.0514270
  C        0.6599990     0.4108460     0.0342650
  C       -0.2507290    -1.8313420    -0.1181570
  C        1.9527030    -0.1242260     0.0401840
  C        1.0395390    -2.3670290    -0.1196300
  C        2.1076534    -1.3107487    -0.0318868
  C       -1.8406380     0.1093760    -0.1384300
  C        1.4719710     2.6442150     0.1686120
  H       -1.1182000    -2.4830940    -0.1949200
  H        2.8227340     0.5195950     0.1104450
  H        1.1860280    -3.4416730    -0.1864270
  H        3.1441970    -1.9102760    -0.0447980
  H        2.0722720     2.5548100    -0.7428660
  H        2.1083110     2.4835370     1.0460470
  H        1.0258210     3.6366650     0.2171830
  H       -2.3391320    -0.8271260     1.6334900
  H       -3.6232280    -0.0028870     0.8299490
units angstrom
no_reorient  #important for SAPT in psi4, default
symmetry c1  #important for SAPT in psi4, default
}

set PROPERTIES_ORIGIN ["COM"]
properties('MP2/aug-cc-pvtz', properties = ['dipole'])
--------------------------------------------------------------------------

    Molecular point group: c1
  Charge       = 0
  Multiplicity = 1
  Basis Set: AUG-CC-PVTZ
    Blend: AUG-CC-PVTZ
  Basis Set: (AUG-CC-PVTZ AUX)
    Blend: AUG-CC-PVTZ-JKFIT

    Orbital Energies [Eh]
    ---------------------

    Doubly Occupied:

       1A    -20.594153     2A    -20.515371     3A    -15.581052
       4A    -11.352790     5A    -11.322285     6A    -11.290705
       7A    -11.251147     8A    -11.249019     9A    -11.244160
      10A    -11.241251    11A    -11.223708    12A     -1.417478
      13A     -1.367784    14A     -1.206478    15A     -1.175956
      16A     -1.066322    17A     -1.017916    18A     -0.947208
      19A     -0.872786    20A     -0.824399    21A     -0.791417
      22A     -0.736733    23A     -0.707155    24A     -0.681909
      25A     -0.669866    26A     -0.661039    27A     -0.635919
      28A     -0.621215    29A     -0.597027    30A     -0.582400
      31A     -0.560382    32A     -0.548984    33A     -0.534376
      34A     -0.523705    35A     -0.482864    36A     -0.464417
      37A     -0.421304    38A     -0.410265    39A     -0.381021
      40A     -0.308005

  @DF-RHF Final Energy:  -512.48334456255384

   => Energetics <=

    Nuclear Repulsion Energy =            595.4367286792845562
    One-Electron Energy =               -1879.6762144083832027
    Two-Electron Energy =                 771.7561411665449214
    Total Energy =                       -512.4833445625538388
  Basis Set: (AUG-CC-PVTZ AUX)
    Blend: AUG-CC-PVTZ-RI
    Molecular point group: c1

    Geometry (in Angstrom), charge = 0, multiplicity = 1:

       Center              X                  Y                   Z               Mass
    ------------   -----------------  -----------------  -----------------  -----------------
         O            0.407059333100     1.728488420021     0.167440689040    15.994914619570
         O           -2.157894666900     0.905226420021    -0.975664310960    15.994914619570
         N           -2.674187666900    -0.453404579979     0.792673689040    14.003074004430
         C           -0.414347666900    -0.462758579979    -0.034902310960    12.000000000000
         C            0.696717333100     0.398697420021     0.050789689040    12.000000000000
         C           -0.214010666900    -1.843490579979    -0.101632310960    12.000000000000
         C            1.989421333100    -0.136374579979     0.056708689040    12.000000000000
         C            1.076257333100    -2.379177579979    -0.103105310960    12.000000000000
         C            2.144371733100    -1.322897279979    -0.015362110960    12.000000000000
         C           -1.803919666900     0.097227420021    -0.121905310960    12.000000000000
         C            1.508689333100     2.632066420021     0.185136689040    12.000000000000
         H           -1.081481666900    -2.495242579979    -0.178395310960     1.007825032230
         H            2.859452333100     0.507446420021     0.126969689040     1.007825032230
         H            1.222746333100    -3.453821579979    -0.169902310960     1.007825032230
         H            3.180915333100    -1.922424579979    -0.028273310960     1.007825032230
         H            2.108990333100     2.542661420021    -0.726341310960     1.007825032230
         H            2.145029333100     2.471388420021     1.062571689040     1.007825032230
         H            1.062539333100     3.624516420021     0.233707689040     1.007825032230
         H           -2.302413666900    -0.839274579979     1.650014689040     1.007825032230
         H           -3.586509666900    -0.015035579979     0.846473689040     1.007825032230

  Basis Set: AUG-CC-PVTZ
    Blend: AUG-CC-PVTZ
  Basis Set: (AUG-CC-PVTZ AUX)
    Blend: AUG-CC-PVTZ-JKFIT
	 Reference Energy          =    -512.4833445625538388 [Eh]
	 Singles Energy            =      -0.0000000000000000 [Eh]
	 Same-Spin Energy          =      -0.5354710371983559 [Eh]
	 Opposite-Spin Energy      =      -1.6467862494054910 [Eh]
	 Correlation Energy        =      -2.1822572866038468 [Eh]
	 Total Energy              =    -514.6656018491577242 [Eh]

	 ================> DF-SCS-MP2 Energies <==================
	-----------------------------------------------------------
	 SCS Same-Spin Scale       =       0.3333333333333333 [-]
	 SCS Opposite-Spin Scale   =       1.2000000000000000 [-]
	 SCS Same-Spin Energy      =      -0.1784903457327853 [Eh]
	 SCS Opposite-Spin Energy  =      -1.9761434992865892 [Eh]
	 SCS Correlation Energy    =      -2.1546338450193745 [Eh]
	 SCS Total Energy          =    -514.6379784075732005 [Eh]
	-----------------------------------------------------------

  Dipole Moment: [D]
     X:     2.0783      Y:    -0.7846      Z:     2.9104     Total:     3.6613

*** Psi4 exiting successfully. Buy a developer a beer!
