                               Psi4 1.4a3.dev225

  ==> Input File <==

--------------------------------------------------------------------------
#psi4
#
memory 32 gb

molecule  {
0 1
  O        0.3703410     1.7406370     0.1509160
  O       -2.1946130     0.9173750    -0.9921890
  N       -2.7109060    -0.4412560     0.7761490
  C       -0.4510660    -0.4506100    -0.0514270
  C        0.6599990     0.4108460     0.0342650
  C       -0.2267270    -1.8277559    -0.1158457
  C        1.9527030    -0.1242260     0.0401840
  C        1.0395390    -2.3670290    -0.1196300
  C        2.1335050    -1.5087060    -0.0439110
  C       -1.8406380     0.1093760    -0.1384300
  C        1.4719710     2.6442150     0.1686120
  H       -1.1182000    -2.4830940    -0.1949200
  H        2.8227340     0.5195950     0.1104450
  H        1.1860280    -3.4416730    -0.1864270
  H        3.1441970    -1.9102760    -0.0447980
  H        2.0722720     2.5548100    -0.7428660
  H        2.1083110     2.4835370     1.0460470
  H        1.0258210     3.6366650     0.2171830
  H       -2.3391320    -0.8271260     1.6334900
  H       -3.6232280    -0.0028870     0.8299490
units angstrom
no_reorient  #important for SAPT in psi4, default
symmetry c1  #important for SAPT in psi4, default
}

set PROPERTIES_ORIGIN ["COM"]
properties('MP2/aug-cc-pvtz', properties = ['dipole'])
--------------------------------------------------------------------------

    Molecular point group: c1
  Charge       = 0
  Multiplicity = 1
  Basis Set: AUG-CC-PVTZ
    Blend: AUG-CC-PVTZ
  Basis Set: (AUG-CC-PVTZ AUX)
    Blend: AUG-CC-PVTZ-JKFIT

    Orbital Energies [Eh]
    ---------------------

    Doubly Occupied:

       1A    -20.590265     2A    -20.517639     3A    -15.582835
       4A    -11.355518     5A    -11.317319     6A    -11.287604
       7A    -11.254525     8A    -11.254438     9A    -11.247496
      10A    -11.242598    11A    -11.236112    12A     -1.413861
      13A     -1.369812    14A     -1.207856    15A     -1.159999
      16A     -1.042466    17A     -1.026324    18A     -0.949830
      19A     -0.877916    20A     -0.822035    21A     -0.790351
      22A     -0.735532    23A     -0.708382    24A     -0.682534
      25A     -0.666416    26A     -0.657249    27A     -0.640200
      28A     -0.619916    29A     -0.596304    30A     -0.582319
      31A     -0.557968    32A     -0.546014    33A     -0.530336
      34A     -0.516504    35A     -0.499165    36A     -0.477106
      37A     -0.424671    38A     -0.411703    39A     -0.352246
      40A     -0.324007

  @DF-RHF Final Energy:  -512.54476495387621

   => Energetics <=

    Nuclear Repulsion Energy =            592.9183789485084617
    One-Electron Energy =               -1874.7755423177213743
    Two-Electron Energy =                 769.3123984153367019
    Total Energy =                       -512.5447649538762107
  Basis Set: (AUG-CC-PVTZ AUX)
    Blend: AUG-CC-PVTZ-RI
    Molecular point group: c1

    Geometry (in Angstrom), charge = 0, multiplicity = 1:

       Center              X                  Y                   Z               Mass
    ------------   -----------------  -----------------  -----------------  -----------------
         O            0.403099118495     1.743928662353     0.168212251544    15.994914619570
         O           -2.161854881505     0.920666662353    -0.974892748456    15.994914619570
         N           -2.678147881505    -0.437964337647     0.793445251544    14.003074004430
         C           -0.418307881505    -0.447318337647    -0.034130748456    12.000000000000
         C            0.692757118495     0.414137662353     0.051561251544    12.000000000000
         C           -0.193968881505    -1.824464237647    -0.098549448456    12.000000000000
         C            1.985461118495    -0.120934337647     0.057480251544    12.000000000000
         C            1.072297118495    -2.363737337647    -0.102333748456    12.000000000000
         C            2.166263118495    -1.505414337647    -0.026614748456    12.000000000000
         C           -1.807879881505     0.112667662353    -0.121133748456    12.000000000000
         C            1.504729118495     2.647506662353     0.185908251544    12.000000000000
         H           -1.085441881505    -2.479802337647    -0.177623748456     1.007825032230
         H            2.855492118495     0.522886662353     0.127741251544     1.007825032230
         H            1.218786118495    -3.438381337647    -0.169130748456     1.007825032230
         H            3.176955118495    -1.906984337647    -0.027501748456     1.007825032230
         H            2.105030118495     2.558101662353    -0.725569748456     1.007825032230
         H            2.141069118495     2.486828662353     1.063343251544     1.007825032230
         H            1.058579118495     3.639956662353     0.234479251544     1.007825032230
         H           -2.306373881505    -0.823834337647     1.650786251544     1.007825032230
         H           -3.590469881505     0.000404662353     0.847245251544     1.007825032230

  Basis Set: AUG-CC-PVTZ
    Blend: AUG-CC-PVTZ
  Basis Set: (AUG-CC-PVTZ AUX)
    Blend: AUG-CC-PVTZ-JKFIT
	 Reference Energy          =    -512.5447649538762107 [Eh]
	 Singles Energy            =      -0.0000000000000000 [Eh]
	 Same-Spin Energy          =      -0.5357487413613746 [Eh]
	 Opposite-Spin Energy      =      -1.6452445149441790 [Eh]
	 Correlation Energy        =      -2.1809932563055536 [Eh]
	 Total Energy              =    -514.7257582101817661 [Eh]

	 ================> DF-SCS-MP2 Energies <==================
	-----------------------------------------------------------
	 SCS Same-Spin Scale       =       0.3333333333333333 [-]
	 SCS Opposite-Spin Scale   =       1.2000000000000000 [-]
	 SCS Same-Spin Energy      =      -0.1785829137871249 [Eh]
	 SCS Opposite-Spin Energy  =      -1.9742934179330147 [Eh]
	 SCS Correlation Energy    =      -2.1528763317201394 [Eh]
	 SCS Total Energy          =    -514.6976412855963190 [Eh]
	-----------------------------------------------------------

  Dipole Moment: [D]
     X:     2.0015      Y:    -0.9106      Z:     2.8995     Total:     3.6390

*** Psi4 exiting successfully. Buy a developer a beer!
