                               Psi4 1.4a3.dev225

  ==> Input File <==

--------------------------------------------------------------------------
#psi4
#
memory 32 gb

molecule  {
0 1
  O        0.3703410     1.7406370     0.1509160
  O       -2.1946130     0.9173750    -0.9921890
  N       -2.6381285    -0.4956172     0.8076191
  C       -0.4510660    -0.4506100    -0.0514270
  C        0.6599990     0.4108460     0.0342650
  C       -0.2507290    -1.8313420    -0.1181570
  C        1.9527030    -0.1242260     0.0401840
  C        1.0395390    -2.3670290    -0.1196300
  C        2.1335050    -1.5087060    -0.0439110
  C       -1.8406380     0.1093760    -0.1384300
  C        1.4719710     2.6442150     0.1686120
  H       -1.1182000    -2.4830940    -0.1949200
  H        2.8227340     0.5195950     0.1104450
  H        1.1860280    -3.4416730    -0.1864270
  H        3.1441970    -1.9102760    -0.0447980
  H        2.0722720     2.5548100    -0.7428660
  H        2.1083110     2.4835370     1.0460470
  H        1.0258210     3.6366650     0.2171830
  H       -2.3391320    -0.8271260     1.6334900
  H       -3.6232280    -0.0028870     0.8299490
units angstrom
no_reorient  #important for SAPT in psi4, default
symmetry c1  #important for SAPT in psi4, default
}

set PROPERTIES_ORIGIN ["COM"]
properties('MP2/aug-cc-pvtz', properties = ['dipole'])
--------------------------------------------------------------------------

    Molecular point group: c1
  Charge       = 0
  Multiplicity = 1
  Basis Set: AUG-CC-PVTZ
    Blend: AUG-CC-PVTZ
  Basis Set: (AUG-CC-PVTZ AUX)
    Blend: AUG-CC-PVTZ-JKFIT

    Orbital Energies [Eh]
    ---------------------

    Doubly Occupied:

       1A    -20.589629     2A    -20.523325     3A    -15.586019
       4A    -11.358438     5A    -11.315503     6A    -11.287241
       7A    -11.253482     8A    -11.252606     9A    -11.245213
      10A    -11.241472    11A    -11.237165    12A     -1.413222
      13A     -1.371620    14A     -1.216045    15A     -1.156069
      16A     -1.040766    17A     -1.023358    18A     -0.948692
      19A     -0.876730    20A     -0.823476    21A     -0.798347
      22A     -0.743791    23A     -0.705969    24A     -0.678281
      25A     -0.658909    26A     -0.650225    27A     -0.639448
      28A     -0.624293    29A     -0.594671    30A     -0.582098
      31A     -0.557440    32A     -0.543403    33A     -0.528758
      34A     -0.517985    35A     -0.499985    36A     -0.475006
      37A     -0.427043    38A     -0.415742    39A     -0.350662
      40A     -0.321425

  @DF-RHF Final Energy:  -512.53007269920636

   => Energetics <=

    Nuclear Repulsion Energy =            593.2835524748036278
    One-Electron Energy =               -1875.4801521689100809
    Two-Electron Energy =                 769.6665269949000958
    Total Energy =                       -512.5300726992063574
  Basis Set: (AUG-CC-PVTZ AUX)
    Blend: AUG-CC-PVTZ-RI
    Molecular point group: c1

    Geometry (in Angstrom), charge = 0, multiplicity = 1:

       Center              X                  Y                   Z               Mass
    ------------   -----------------  -----------------  -----------------  -----------------
         O            0.398259527540     1.749252635513     0.165478679185    15.994914619570
         O           -2.166694472460     0.925990635513    -0.977626320815    15.994914619570
         N           -2.610209972460    -0.487001564487     0.822181779185    14.003074004430
         C           -0.423147472460    -0.441994364487    -0.036864320815    12.000000000000
         C            0.687917527540     0.419461635513     0.048827679185    12.000000000000
         C           -0.222810472460    -1.822726364487    -0.103594320815    12.000000000000
         C            1.980621527540    -0.115610364487     0.054746679185    12.000000000000
         C            1.067457527540    -2.358413364487    -0.105067320815    12.000000000000
         C            2.161423527540    -1.500090364487    -0.029348320815    12.000000000000
         C           -1.812719472460     0.117991635513    -0.123867320815    12.000000000000
         C            1.499889527540     2.652830635513     0.183174679185    12.000000000000
         H           -1.090281472460    -2.474478364487    -0.180357320815     1.007825032230
         H            2.850652527540     0.528210635513     0.125007679185     1.007825032230
         H            1.213946527540    -3.433057364487    -0.171864320815     1.007825032230
         H            3.172115527540    -1.901660364487    -0.030235320815     1.007825032230
         H            2.100190527540     2.563425635513    -0.728303320815     1.007825032230
         H            2.136229527540     2.492152635513     1.060609679185     1.007825032230
         H            1.053739527540     3.645280635513     0.231745679185     1.007825032230
         H           -2.311213472460    -0.818510364487     1.648052679185     1.007825032230
         H           -3.595309472460     0.005728635513     0.844511679185     1.007825032230

  Basis Set: AUG-CC-PVTZ
    Blend: AUG-CC-PVTZ
  Basis Set: (AUG-CC-PVTZ AUX)
    Blend: AUG-CC-PVTZ-JKFIT
	 Reference Energy          =    -512.5300726992063574 [Eh]
	 Singles Energy            =      -0.0000000000000000 [Eh]
	 Same-Spin Energy          =      -0.5363938966559783 [Eh]
	 Opposite-Spin Energy      =      -1.6467309227698501 [Eh]
	 Correlation Energy        =      -2.1831248194258284 [Eh]
	 Total Energy              =    -514.7131975186322279 [Eh]

	 ================> DF-SCS-MP2 Energies <==================
	-----------------------------------------------------------
	 SCS Same-Spin Scale       =       0.3333333333333333 [-]
	 SCS Opposite-Spin Scale   =       1.2000000000000000 [-]
	 SCS Same-Spin Energy      =      -0.1787979655519927 [Eh]
	 SCS Opposite-Spin Energy  =      -1.9760771073238201 [Eh]
	 SCS Correlation Energy    =      -2.1548750728758130 [Eh]
	 SCS Total Energy          =    -514.6849477720821824 [Eh]
	-----------------------------------------------------------

  Dipole Moment: [D]
     X:     1.8548      Y:    -0.8251      Z:     2.8665     Total:     3.5125

*** Psi4 exiting successfully. Buy a developer a beer!
