                               Psi4 1.4a3.dev225

  ==> Input File <==

--------------------------------------------------------------------------
#psi4
#
memory 32 gb

molecule  {
0 1
  O        0.3703410     1.7406370     0.1509160
  O       -2.1946130     0.9173750    -0.9921890
  N       -2.7109060    -0.4412560     0.7761490
  C       -0.4510660    -0.4506100    -0.0514270
  C        0.6599990     0.4108460     0.0342650
  C       -0.2507290    -1.8313420    -0.1181570
  C        1.9527030    -0.1242260     0.0401840
  C        1.0395390    -2.3670290    -0.1196300
  C        2.0374845    -1.3991693    -0.0386003
  C       -1.8406380     0.1093760    -0.1384300
  C        1.4719710     2.6442150     0.1686120
  H       -1.1182000    -2.4830940    -0.1949200
  H        2.8227340     0.5195950     0.1104450
  H        1.1860280    -3.4416730    -0.1864270
  H        3.1441970    -1.9102760    -0.0447980
  H        2.0722720     2.5548100    -0.7428660
  H        2.1083110     2.4835370     1.0460470
  H        1.0258210     3.6366650     0.2171830
  H       -2.3391320    -0.8271260     1.6334900
  H       -3.6232280    -0.0028870     0.8299490
units angstrom
no_reorient  #important for SAPT in psi4, default
symmetry c1  #important for SAPT in psi4, default
}

set PROPERTIES_ORIGIN ["COM"]
properties('MP2/aug-cc-pvtz', properties = ['dipole'])
--------------------------------------------------------------------------

    Molecular point group: c1
  Charge       = 0
  Multiplicity = 1
  Basis Set: AUG-CC-PVTZ
    Blend: AUG-CC-PVTZ
  Basis Set: (AUG-CC-PVTZ AUX)
    Blend: AUG-CC-PVTZ-JKFIT

    Orbital Energies [Eh]
    ---------------------

    Doubly Occupied:

       1A    -20.592420     2A    -20.516237     3A    -15.581872
       4A    -11.353926     5A    -11.320220     6A    -11.289793
       7A    -11.254250     8A    -11.251464     9A    -11.243823
      10A    -11.236790    11A    -11.232189    12A     -1.416071
      13A     -1.368654    14A     -1.207299    15A     -1.173284
      16A     -1.053302    17A     -1.028596    18A     -0.951370
      19A     -0.869105    20A     -0.830538    21A     -0.790947
      22A     -0.736616    23A     -0.704314    24A     -0.683994
      25A     -0.669674    26A     -0.659798    27A     -0.636114
      28A     -0.624124    29A     -0.592549    30A     -0.585693
      31A     -0.560851    32A     -0.543965    33A     -0.532133
      34A     -0.525242    35A     -0.483073    36A     -0.475168
      37A     -0.422212    38A     -0.410804    39A     -0.366557
      40A     -0.319158

  @DF-RHF Final Energy:  -512.51835769866955

   => Energetics <=

    Nuclear Repulsion Energy =            595.5991273305455707
    One-Electron Energy =               -1880.0465906658250788
    Two-Electron Energy =                 771.9291056366099610
    Total Energy =                       -512.5183576986695471
  Basis Set: (AUG-CC-PVTZ AUX)
    Blend: AUG-CC-PVTZ-RI
    Molecular point group: c1

    Geometry (in Angstrom), charge = 0, multiplicity = 1:

       Center              X                  Y                   Z               Mass
    ------------   -----------------  -----------------  -----------------  -----------------
         O            0.412633331821     1.735512276905     0.167973988556    15.994914619570
         O           -2.152320668179     0.912250276905    -0.975131011444    15.994914619570
         N           -2.668613668179    -0.446380723095     0.793206988556    14.003074004430
         C           -0.408773668179    -0.455734723095    -0.034369011444    12.000000000000
         C            0.702291331821     0.405721276905     0.051322988556    12.000000000000
         C           -0.208436668179    -1.836466723095    -0.101099011444    12.000000000000
         C            1.994995331821    -0.129350723095     0.057241988556    12.000000000000
         C            1.081831331821    -2.372153723095    -0.102572011444    12.000000000000
         C            2.079776831821    -1.404294023095    -0.021542311444    12.000000000000
         C           -1.798345668179     0.104251276905    -0.121372011444    12.000000000000
         C            1.514263331821     2.639090276905     0.185669988556    12.000000000000
         H           -1.075907668179    -2.488218723095    -0.177862011444     1.007825032230
         H            2.865026331821     0.514470276905     0.127502988556     1.007825032230
         H            1.228320331821    -3.446797723095    -0.169369011444     1.007825032230
         H            3.186489331821    -1.915400723095    -0.027740011444     1.007825032230
         H            2.114564331821     2.549685276905    -0.725808011444     1.007825032230
         H            2.150603331821     2.478412276905     1.063104988556     1.007825032230
         H            1.068113331821     3.631540276905     0.234240988556     1.007825032230
         H           -2.296839668179    -0.832250723095     1.650547988556     1.007825032230
         H           -3.580935668179    -0.008011723095     0.847006988556     1.007825032230

  Basis Set: AUG-CC-PVTZ
    Blend: AUG-CC-PVTZ
  Basis Set: (AUG-CC-PVTZ AUX)
    Blend: AUG-CC-PVTZ-JKFIT
	 Reference Energy          =    -512.5183576986695471 [Eh]
	 Singles Energy            =      -0.0000000000000000 [Eh]
	 Same-Spin Energy          =      -0.5360501585487195 [Eh]
	 Opposite-Spin Energy      =      -1.6458579549624459 [Eh]
	 Correlation Energy        =      -2.1819081135111653 [Eh]
	 Total Energy              =    -514.7002658121807599 [Eh]

	 ================> DF-SCS-MP2 Energies <==================
	-----------------------------------------------------------
	 SCS Same-Spin Scale       =       0.3333333333333333 [-]
	 SCS Opposite-Spin Scale   =       1.2000000000000000 [-]
	 SCS Same-Spin Energy      =      -0.1786833861829065 [Eh]
	 SCS Opposite-Spin Energy  =      -1.9750295459549350 [Eh]
	 SCS Correlation Energy    =      -2.1537129321378417 [Eh]
	 SCS Total Energy          =    -514.6720706308074114 [Eh]
	-----------------------------------------------------------

  Dipole Moment: [D]
     X:     1.9590      Y:    -0.8156      Z:     2.9051     Total:     3.5976

*** Psi4 exiting successfully. Buy a developer a beer!
