                               Psi4 1.4a3.dev225

  ==> Input File <==

--------------------------------------------------------------------------
#psi4
#
memory 32 gb

molecule  {
0 1
  O        0.3703410     1.7406370     0.1509160
  O       -2.1946130     0.9173750    -0.9921890
  N       -2.7109060    -0.4412560     0.7761490
  C       -0.4510660    -0.4506100    -0.0514270
  C        0.7173168     0.3310228     0.0371550
  C       -0.2507290    -1.8313420    -0.1181570
  C        1.9527030    -0.1242260     0.0401840
  C        1.0395390    -2.3670290    -0.1196300
  C        2.1335050    -1.5087060    -0.0439110
  C       -1.8406380     0.1093760    -0.1384300
  C        1.4719710     2.6442150     0.1686120
  H       -1.1182000    -2.4830940    -0.1949200
  H        2.8227340     0.5195950     0.1104450
  H        1.1860280    -3.4416730    -0.1864270
  H        3.1441970    -1.9102760    -0.0447980
  H        2.0722720     2.5548100    -0.7428660
  H        2.1083110     2.4835370     1.0460470
  H        1.0258210     3.6366650     0.2171830
  H       -2.3391320    -0.8271260     1.6334900
  H       -3.6232280    -0.0028870     0.8299490
units angstrom
no_reorient  #important for SAPT in psi4, default
symmetry c1  #important for SAPT in psi4, default
}

set PROPERTIES_ORIGIN ["COM"]
properties('MP2/aug-cc-pvtz', properties = ['dipole'])
--------------------------------------------------------------------------

    Molecular point group: c1
  Charge       = 0
  Multiplicity = 1
  Basis Set: AUG-CC-PVTZ
    Blend: AUG-CC-PVTZ
  Basis Set: (AUG-CC-PVTZ AUX)
    Blend: AUG-CC-PVTZ-JKFIT

    Orbital Energies [Eh]
    ---------------------

    Doubly Occupied:

       1A    -20.576385     2A    -20.518913     3A    -15.584894
       4A    -11.359079     5A    -11.309226     6A    -11.277591
       7A    -11.257858     8A    -11.257585     9A    -11.254234
      10A    -11.243364    11A    -11.238501    12A     -1.379322
      13A     -1.367436    14A     -1.210062    15A     -1.170457
      16A     -1.049051    17A     -1.031440    18A     -0.934640
      19A     -0.884072    20A     -0.824102    21A     -0.794274
      22A     -0.736840    23A     -0.706341    24A     -0.675305
      25A     -0.662442    26A     -0.641938    27A     -0.634448
      28A     -0.631105    29A     -0.597298    30A     -0.577093
      31A     -0.561024    32A     -0.545828    33A     -0.529436
      34A     -0.513588    35A     -0.494978    36A     -0.467081
      37A     -0.426779    38A     -0.413154    39A     -0.359795
      40A     -0.333557

  @DF-RHF Final Energy:  -512.53166962767045

   => Energetics <=

    Nuclear Repulsion Energy =            592.5353304436494000
    One-Electron Energy =               -1874.0729659010678461
    Two-Electron Energy =                 769.0059658297479928
    Total Energy =                       -512.5316696276704533
  Basis Set: (AUG-CC-PVTZ AUX)
    Blend: AUG-CC-PVTZ-RI
    Molecular point group: c1

    Geometry (in Angstrom), charge = 0, multiplicity = 1:

       Center              X                  Y                   Z               Mass
    ------------   -----------------  -----------------  -----------------  -----------------
         O            0.400452615178     1.750554437184     0.168166281419    15.994914619570
         O           -2.164501384822     0.927292437184    -0.974938718581    15.994914619570
         N           -2.680794384822    -0.431338562816     0.793399281419    14.003074004430
         C           -0.420954384822    -0.440692562816    -0.034176718581    12.000000000000
         C            0.747428415178     0.340940237184     0.054405281419    12.000000000000
         C           -0.220617384822    -1.821424562816    -0.100906718581    12.000000000000
         C            1.982814615178    -0.114308562816     0.057434281419    12.000000000000
         C            1.069650615178    -2.357111562816    -0.102379718581    12.000000000000
         C            2.163616615178    -1.498788562816    -0.026660718581    12.000000000000
         C           -1.810526384822     0.119293437184    -0.121179718581    12.000000000000
         C            1.502082615178     2.654132437184     0.185862281419    12.000000000000
         H           -1.088088384822    -2.473176562816    -0.177669718581     1.007825032230
         H            2.852845615178     0.529512437184     0.127695281419     1.007825032230
         H            1.216139615178    -3.431755562816    -0.169176718581     1.007825032230
         H            3.174308615178    -1.900358562816    -0.027547718581     1.007825032230
         H            2.102383615178     2.564727437184    -0.725615718581     1.007825032230
         H            2.138422615178     2.493454437184     1.063297281419     1.007825032230
         H            1.055932615178     3.646582437184     0.234433281419     1.007825032230
         H           -2.309020384822    -0.817208562816     1.650740281419     1.007825032230
         H           -3.593116384822     0.007030437184     0.847199281419     1.007825032230

  Basis Set: AUG-CC-PVTZ
    Blend: AUG-CC-PVTZ
  Basis Set: (AUG-CC-PVTZ AUX)
    Blend: AUG-CC-PVTZ-JKFIT
	 Reference Energy          =    -512.5316696276704533 [Eh]
	 Singles Energy            =      -0.0000000000000000 [Eh]
	 Same-Spin Energy          =      -0.5358996127960208 [Eh]
	 Opposite-Spin Energy      =      -1.6470270155929532 [Eh]
	 Correlation Energy        =      -2.1829266283889739 [Eh]
	 Total Energy              =    -514.7145962560593944 [Eh]

	 ================> DF-SCS-MP2 Energies <==================
	-----------------------------------------------------------
	 SCS Same-Spin Scale       =       0.3333333333333333 [-]
	 SCS Opposite-Spin Scale   =       1.2000000000000000 [-]
	 SCS Same-Spin Energy      =      -0.1786332042653403 [Eh]
	 SCS Opposite-Spin Energy  =      -1.9764324187115436 [Eh]
	 SCS Correlation Energy    =      -2.1550656229768839 [Eh]
	 SCS Total Energy          =    -514.6867352506473026 [Eh]
	-----------------------------------------------------------

  Dipole Moment: [D]
     X:     1.9753      Y:    -1.5138      Z:     2.8536     Total:     3.7864

*** Psi4 exiting successfully. Buy a developer a beer!
