                               Psi4 1.4a3.dev225

  ==> Input File <==

--------------------------------------------------------------------------
#psi4
#
memory 32 gb

molecule  {
0 1
  O        0.3703410     1.7406370     0.1509160
  O       -2.1946130     0.9173750    -0.9921890
  N       -2.7109060    -0.4412560     0.7761490
  C       -0.4510660    -0.4506100    -0.0514270
  C        0.6599990     0.4108460     0.0342650
  C       -0.2507290    -1.8313420    -0.1181570
  C        1.9527030    -0.1242260     0.0401840
  C        1.0395390    -2.3670290    -0.1196300
  C        2.1335050    -1.5087060    -0.0439110
  C       -1.8406380     0.1093760    -0.1384300
  C        1.4719710     2.6442150     0.1686120
  H       -1.1182000    -2.4830940    -0.1949200
  H        2.8227340     0.5195950     0.1104450
  H        1.1860280    -3.4416730    -0.1864270
  H        3.1441970    -1.9102760    -0.0447980
  H        2.0722720     2.5548100    -0.7428660
  H        2.1241755     2.4139861     1.0184721
  H        1.0258210     3.6366650     0.2171830
  H       -2.3391320    -0.8271260     1.6334900
  H       -3.6232280    -0.0028870     0.8299490
units angstrom
no_reorient  #important for SAPT in psi4, default
symmetry c1  #important for SAPT in psi4, default
}

set PROPERTIES_ORIGIN ["COM"]
properties('MP2/aug-cc-pvtz', properties = ['dipole'])
--------------------------------------------------------------------------

    Molecular point group: c1
  Charge       = 0
  Multiplicity = 1
  Basis Set: AUG-CC-PVTZ
    Blend: AUG-CC-PVTZ
  Basis Set: (AUG-CC-PVTZ AUX)
    Blend: AUG-CC-PVTZ-JKFIT

    Orbital Energies [Eh]
    ---------------------

    Doubly Occupied:

       1A    -20.589534     2A    -20.517374     3A    -15.582804
       4A    -11.355046     5A    -11.317431     6A    -11.287862
       7A    -11.255410     8A    -11.254209     9A    -11.248318
      10A    -11.242855    11A    -11.238477    12A     -1.413732
      13A     -1.369642    14A     -1.207871    15A     -1.157949
      16A     -1.042932    17A     -1.024669    18A     -0.949529
      19A     -0.877289    20A     -0.823988    21A     -0.789544
      22A     -0.735846    23A     -0.709098    24A     -0.682245
      25A     -0.664757    26A     -0.656391    27A     -0.640216
      28A     -0.623856    29A     -0.596547    30A     -0.583174
      31A     -0.558016    32A     -0.544642    33A     -0.530014
      34A     -0.518250    35A     -0.500981    36A     -0.474729
      37A     -0.424070    38A     -0.411609    39A     -0.352413
      40A     -0.322785

  @DF-RHF Final Energy:  -512.54475415336401

   => Energetics <=

    Nuclear Repulsion Energy =            592.7954257153924118
    One-Electron Energy =               -1874.5281524132460618
    Two-Electron Energy =                 769.1879725444896394
    Total Energy =                       -512.5447541533640106
  Basis Set: (AUG-CC-PVTZ AUX)
    Blend: AUG-CC-PVTZ-RI
    Molecular point group: c1

    Geometry (in Angstrom), charge = 0, multiplicity = 1:

       Center              X                  Y                   Z               Mass
    ------------   -----------------  -----------------  -----------------  -----------------
         O            0.404899921922     1.744677542569     0.168579821059    15.994914619570
         O           -2.160054078078     0.921415542569    -0.974525178941    15.994914619570
         N           -2.676347078078    -0.437215457431     0.793812821059    14.003074004430
         C           -0.416507078078    -0.446569457431    -0.033763178941    12.000000000000
         C            0.694557921922     0.414886542569     0.051928821059    12.000000000000
         C           -0.216170078078    -1.827301457431    -0.100493178941    12.000000000000
         C            1.987261921922    -0.120185457431     0.057847821059    12.000000000000
         C            1.074097921922    -2.362988457431    -0.101966178941    12.000000000000
         C            2.168063921922    -1.504665457431    -0.026247178941    12.000000000000
         C           -1.806079078078     0.113416542569    -0.120766178941    12.000000000000
         C            1.506529921922     2.648255542569     0.186275821059    12.000000000000
         H           -1.083641078078    -2.479053457431    -0.177256178941     1.007825032230
         H            2.857292921922     0.523635542569     0.128108821059     1.007825032230
         H            1.220586921922    -3.437632457431    -0.168763178941     1.007825032230
         H            3.178755921922    -1.906235457431    -0.027134178941     1.007825032230
         H            2.106830921922     2.558850542569    -0.725202178941     1.007825032230
         H            2.158734421922     2.418026642569     1.036135921059     1.007825032230
         H            1.060379921922     3.640705542569     0.234846821059     1.007825032230
         H           -2.304573078078    -0.823085457431     1.651153821059     1.007825032230
         H           -3.588669078078     0.001153542569     0.847612821059     1.007825032230

  Basis Set: AUG-CC-PVTZ
    Blend: AUG-CC-PVTZ
  Basis Set: (AUG-CC-PVTZ AUX)
    Blend: AUG-CC-PVTZ-JKFIT
	 Reference Energy          =    -512.5447541533640106 [Eh]
	 Singles Energy            =      -0.0000000000000000 [Eh]
	 Same-Spin Energy          =      -0.5357793428582153 [Eh]
	 Opposite-Spin Energy      =      -1.6453864786254631 [Eh]
	 Correlation Energy        =      -2.1811658214836784 [Eh]
	 Total Energy              =    -514.7259199748476703 [Eh]

	 ================> DF-SCS-MP2 Energies <==================
	-----------------------------------------------------------
	 SCS Same-Spin Scale       =       0.3333333333333333 [-]
	 SCS Opposite-Spin Scale   =       1.2000000000000000 [-]
	 SCS Same-Spin Energy      =      -0.1785931142860717 [Eh]
	 SCS Opposite-Spin Energy  =      -1.9744637743505555 [Eh]
	 SCS Correlation Energy    =      -2.1530568886366273 [Eh]
	 SCS Total Energy          =    -514.6978110420006942 [Eh]
	-----------------------------------------------------------

  Dipole Moment: [D]
     X:     1.9918      Y:    -0.9267      Z:     2.8810     Total:     3.6231

*** Psi4 exiting successfully. Buy a developer a beer!
