                               Psi4 1.4a3.dev225

  ==> Input File <==

--------------------------------------------------------------------------
#psi4
#
memory 32 gb

molecule  {
0 1
  O        0.3703410     1.7406370     0.1509160
  O       -2.1946130     0.9173750    -0.9921890
  N       -2.7109060    -0.4412560     0.7761490
  C       -0.4510660    -0.4506100    -0.0514270
  C        0.6599990     0.4108460     0.0342650
  C       -0.2507290    -1.8313420    -0.1181570
  C        1.9527030    -0.1242260     0.0401840
  C        1.0395390    -2.3670290    -0.1196300
  C        2.1335050    -1.5087060    -0.0439110
  C       -1.8406380     0.1093760    -0.1384300
  C        1.4719710     2.6442150     0.1686120
  H       -1.1182000    -2.4830940    -0.1949200
  H        2.8227340     0.5195950     0.1104450
  H        1.1860280    -3.4416730    -0.1864270
  H        3.1441970    -1.9102760    -0.0447980
  H        2.0722720     2.5548100    -0.7428660
  H        2.1038571     2.5010604     1.0522776
  H        1.0258210     3.6366650     0.2171830
  H       -2.3391320    -0.8271260     1.6334900
  H       -3.6232280    -0.0028870     0.8299490
units angstrom
no_reorient  #important for SAPT in psi4, default
symmetry c1  #important for SAPT in psi4, default
}

set PROPERTIES_ORIGIN ["COM"]
properties('MP2/aug-cc-pvtz', properties = ['dipole'])
--------------------------------------------------------------------------

    Molecular point group: c1
  Charge       = 0
  Multiplicity = 1
  Basis Set: AUG-CC-PVTZ
    Blend: AUG-CC-PVTZ
  Basis Set: (AUG-CC-PVTZ AUX)
    Blend: AUG-CC-PVTZ-JKFIT

    Orbital Energies [Eh]
    ---------------------

    Doubly Occupied:

       1A    -20.590562     2A    -20.517403     3A    -15.582806
       4A    -11.355050     5A    -11.317410     6A    -11.287615
       7A    -11.255333     8A    -11.254079     9A    -11.248271
      10A    -11.242684    11A    -11.238398    12A     -1.413952
      13A     -1.369671    14A     -1.207875    15A     -1.157870
      16A     -1.042786    17A     -1.024683    18A     -0.949521
      19A     -0.877173    20A     -0.824394    21A     -0.789231
      22A     -0.735441    23A     -0.708928    24A     -0.681668
      25A     -0.666232    26A     -0.657238    27A     -0.639131
      28A     -0.623428    29A     -0.596562    30A     -0.581970
      31A     -0.558360    32A     -0.543466    33A     -0.530244
      34A     -0.518777    35A     -0.500274    36A     -0.475993
      37A     -0.424115    38A     -0.411619    39A     -0.352293
      40A     -0.322787

  @DF-RHF Final Energy:  -512.54535602814974

   => Energetics <=

    Nuclear Repulsion Energy =            592.6293721581738509
    One-Electron Energy =               -1874.1988694411982124
    Two-Electron Energy =                 769.0241412548745075
    Total Energy =                       -512.5453560281497403
  Basis Set: (AUG-CC-PVTZ AUX)
    Blend: AUG-CC-PVTZ-RI
    Molecular point group: c1

    Geometry (in Angstrom), charge = 0, multiplicity = 1:

       Center              X                  Y                   Z               Mass
    ------------   -----------------  -----------------  -----------------  -----------------
         O            0.405035476940     1.744096622897     0.168354286315    15.994914619570
         O           -2.159918523060     0.920834622897    -0.974750713685    15.994914619570
         N           -2.676211523060    -0.437796377103     0.793587286315    14.003074004430
         C           -0.416371523060    -0.447150377103    -0.033988713685    12.000000000000
         C            0.694693476940     0.414305622897     0.051703286315    12.000000000000
         C           -0.216034523060    -1.827882377103    -0.100718713685    12.000000000000
         C            1.987397476940    -0.120766377103     0.057622286315    12.000000000000
         C            1.074233476940    -2.363569377103    -0.102191713685    12.000000000000
         C            2.168199476940    -1.505246377103    -0.026472713685    12.000000000000
         C           -1.805943523060     0.112835622897    -0.120991713685    12.000000000000
         C            1.506665476940     2.647674622897     0.186050286315    12.000000000000
         H           -1.083505523060    -2.479634377103    -0.177481713685     1.007825032230
         H            2.857428476940     0.523054622897     0.127883286315     1.007825032230
         H            1.220722476940    -3.438213377103    -0.168988713685     1.007825032230
         H            3.178891476940    -1.906816377103    -0.027359713685     1.007825032230
         H            2.106966476940     2.558269622897    -0.725427713685     1.007825032230
         H            2.138551576940     2.504520022897     1.069715886315     1.007825032230
         H            1.060515476940     3.640124622897     0.234621286315     1.007825032230
         H           -2.304437523060    -0.823666377103     1.650928286315     1.007825032230
         H           -3.588533523060     0.000572622897     0.847387286315     1.007825032230

  Basis Set: AUG-CC-PVTZ
    Blend: AUG-CC-PVTZ
  Basis Set: (AUG-CC-PVTZ AUX)
    Blend: AUG-CC-PVTZ-JKFIT
	 Reference Energy          =    -512.5453560281497403 [Eh]
	 Singles Energy            =      -0.0000000000000000 [Eh]
	 Same-Spin Energy          =      -0.5356986022001697 [Eh]
	 Opposite-Spin Energy      =      -1.6452786288051664 [Eh]
	 Correlation Energy        =      -2.1809772310053361 [Eh]
	 Total Energy              =    -514.7263332591551261 [Eh]

	 ================> DF-SCS-MP2 Energies <==================
	-----------------------------------------------------------
	 SCS Same-Spin Scale       =       0.3333333333333333 [-]
	 SCS Opposite-Spin Scale   =       1.2000000000000000 [-]
	 SCS Same-Spin Energy      =      -0.1785662007333899 [Eh]
	 SCS Opposite-Spin Energy  =      -1.9743343545661995 [Eh]
	 SCS Correlation Energy    =      -2.1529005552995892 [Eh]
	 SCS Total Energy          =    -514.6982565834492789 [Eh]
	-----------------------------------------------------------

  Dipole Moment: [D]
     X:     1.9979      Y:    -0.9108      Z:     2.9038     Total:     3.6405

*** Psi4 exiting successfully. Buy a developer a beer!
