                               Psi4 1.4a3.dev225

  ==> Input File <==

--------------------------------------------------------------------------
#psi4
#
memory 32 gb

molecule  {
0 1
  O        0.3703410     1.7406370     0.1509160
  O       -2.1946130     0.9173750    -0.9921890
  N       -2.7109060    -0.4412560     0.7761490
  C       -0.4510660    -0.4506100    -0.0514270
  C        0.6599990     0.4108460     0.0342650
  C       -0.1551603    -1.8144858    -0.1087969
  C        1.9527030    -0.1242260     0.0401840
  C        1.0395390    -2.3670290    -0.1196300
  C        2.1335050    -1.5087060    -0.0439110
  C       -1.8406380     0.1093760    -0.1384300
  C        1.4719710     2.6442150     0.1686120
  H       -1.1182000    -2.4830940    -0.1949200
  H        2.8227340     0.5195950     0.1104450
  H        1.1860280    -3.4416730    -0.1864270
  H        3.1441970    -1.9102760    -0.0447980
  H        2.0722720     2.5548100    -0.7428660
  H        2.1083110     2.4835370     1.0460470
  H        1.0258210     3.6366650     0.2171830
  H       -2.3391320    -0.8271260     1.6334900
  H       -3.6232280    -0.0028870     0.8299490
units angstrom
no_reorient  #important for SAPT in psi4, default
symmetry c1  #important for SAPT in psi4, default
}

set PROPERTIES_ORIGIN ["COM"]
properties('MP2/aug-cc-pvtz', properties = ['dipole'])
--------------------------------------------------------------------------

    Molecular point group: c1
  Charge       = 0
  Multiplicity = 1
  Basis Set: AUG-CC-PVTZ
    Blend: AUG-CC-PVTZ
  Basis Set: (AUG-CC-PVTZ AUX)
    Blend: AUG-CC-PVTZ-JKFIT

    Orbital Energies [Eh]
    ---------------------

    Doubly Occupied:

       1A    -20.590097     2A    -20.518336     3A    -15.582867
       4A    -11.356964     5A    -11.317237     6A    -11.287491
       7A    -11.255678     8A    -11.252282     9A    -11.245736
      10A    -11.242411    11A    -11.229198    12A     -1.413839
      13A     -1.370250    14A     -1.207832    15A     -1.167413
      16A     -1.043020    17A     -1.030715    18A     -0.950842
      19A     -0.880297    20A     -0.815634    21A     -0.793832
      22A     -0.735801    23A     -0.706934    24A     -0.685114
      25A     -0.669147    26A     -0.657803    27A     -0.642687
      28A     -0.611253    29A     -0.594979    30A     -0.583097
      31A     -0.556911    32A     -0.552440    33A     -0.531783
      34A     -0.510812    35A     -0.489772    36A     -0.481294
      37A     -0.426207    38A     -0.411705    39A     -0.353065
      40A     -0.327277

  @DF-RHF Final Energy:  -512.53321585570177

   => Energetics <=

    Nuclear Repulsion Energy =            593.7565059496836284
    One-Electron Energy =               -1876.4193475915665204
    Two-Electron Energy =                 770.1296257861812364
    Total Energy =                       -512.5332158557017692
  Basis Set: (AUG-CC-PVTZ AUX)
    Blend: AUG-CC-PVTZ-RI
    Molecular point group: c1

    Geometry (in Angstrom), charge = 0, multiplicity = 1:

       Center              X                  Y                   Z               Mass
    ------------   -----------------  -----------------  -----------------  -----------------
         O            0.397414082899     1.742874526968     0.167652316840    15.994914619570
         O           -2.167539917101     0.919612526968    -0.975452683160    15.994914619570
         N           -2.683832917101    -0.439018473032     0.792885316840    14.003074004430
         C           -0.423992917101    -0.448372473032    -0.034690683160    12.000000000000
         C            0.687072082899     0.413083526968     0.051001316840    12.000000000000
         C           -0.128087217101    -1.812248273032    -0.092060583160    12.000000000000
         C            1.979776082899    -0.121988473032     0.056920316840    12.000000000000
         C            1.066612082899    -2.364791473032    -0.102893683160    12.000000000000
         C            2.160578082899    -1.506468473032    -0.027174683160    12.000000000000
         C           -1.813564917101     0.111613526968    -0.121693683160    12.000000000000
         C            1.499044082899     2.646452526968     0.185348316840    12.000000000000
         H           -1.091126917101    -2.480856473032    -0.178183683160     1.007825032230
         H            2.849807082899     0.521832526968     0.127181316840     1.007825032230
         H            1.213101082899    -3.439435473032    -0.169690683160     1.007825032230
         H            3.171270082899    -1.908038473032    -0.028061683160     1.007825032230
         H            2.099345082899     2.557047526968    -0.726129683160     1.007825032230
         H            2.135384082899     2.485774526968     1.062783316840     1.007825032230
         H            1.052894082899     3.638902526968     0.233919316840     1.007825032230
         H           -2.312058917101    -0.824888473032     1.650226316840     1.007825032230
         H           -3.596154917101    -0.000649473032     0.846685316840     1.007825032230

  Basis Set: AUG-CC-PVTZ
    Blend: AUG-CC-PVTZ
  Basis Set: (AUG-CC-PVTZ AUX)
    Blend: AUG-CC-PVTZ-JKFIT
	 Reference Energy          =    -512.5332158557017692 [Eh]
	 Singles Energy            =      -0.0000000000000000 [Eh]
	 Same-Spin Energy          =      -0.5359921641240589 [Eh]
	 Opposite-Spin Energy      =      -1.6456198961348349 [Eh]
	 Correlation Energy        =      -2.1816120602588938 [Eh]
	 Total Energy              =    -514.7148279159606545 [Eh]

	 ================> DF-SCS-MP2 Energies <==================
	-----------------------------------------------------------
	 SCS Same-Spin Scale       =       0.3333333333333333 [-]
	 SCS Opposite-Spin Scale   =       1.2000000000000000 [-]
	 SCS Same-Spin Energy      =      -0.1786640547080196 [Eh]
	 SCS Opposite-Spin Energy  =      -1.9747438753618018 [Eh]
	 SCS Correlation Energy    =      -2.1534079300698217 [Eh]
	 SCS Total Energy          =    -514.6866237857716442 [Eh]
	-----------------------------------------------------------

  Dipole Moment: [D]
     X:     2.0300      Y:    -0.8875      Z:     2.9012     Total:     3.6504

*** Psi4 exiting successfully. Buy a developer a beer!
