                               Psi4 1.4a3.dev225

  ==> Input File <==

--------------------------------------------------------------------------
#psi4
#
memory 32 gb

molecule  {
0 1
  O        0.3703410     1.7406370     0.1509160
  O       -2.1946130     0.9173750    -0.9921890
  N       -2.7109060    -0.4412560     0.7761490
  C       -0.4510660    -0.4506100    -0.0514270
  C        0.6599990     0.4108460     0.0342650
  C       -0.3957652    -1.8439969    -0.1315738
  C        1.9527030    -0.1242260     0.0401840
  C        1.0395390    -2.3670290    -0.1196300
  C        2.1335050    -1.5087060    -0.0439110
  C       -1.8406380     0.1093760    -0.1384300
  C        1.4719710     2.6442150     0.1686120
  H       -1.1182000    -2.4830940    -0.1949200
  H        2.8227340     0.5195950     0.1104450
  H        1.1860280    -3.4416730    -0.1864270
  H        3.1441970    -1.9102760    -0.0447980
  H        2.0722720     2.5548100    -0.7428660
  H        2.1083110     2.4835370     1.0460470
  H        1.0258210     3.6366650     0.2171830
  H       -2.3391320    -0.8271260     1.6334900
  H       -3.6232280    -0.0028870     0.8299490
units angstrom
no_reorient  #important for SAPT in psi4, default
symmetry c1  #important for SAPT in psi4, default
}

set PROPERTIES_ORIGIN ["COM"]
properties('MP2/aug-cc-pvtz', properties = ['dipole'])
--------------------------------------------------------------------------

    Molecular point group: c1
  Charge       = 0
  Multiplicity = 1
  Basis Set: AUG-CC-PVTZ
    Blend: AUG-CC-PVTZ
  Basis Set: (AUG-CC-PVTZ AUX)
    Blend: AUG-CC-PVTZ-JKFIT

    Orbital Energies [Eh]
    ---------------------

    Doubly Occupied:

       1A    -20.591197     2A    -20.515833     3A    -15.582486
       4A    -11.352412     5A    -11.318495     6A    -11.288249
       7A    -11.260801     8A    -11.254818     9A    -11.252748
      10A    -11.250906    11A    -11.243899    12A     -1.414460
      13A     -1.368777    14A     -1.208100    15A     -1.148345
      16A     -1.046906    17A     -1.016655    18A     -0.947748
      19A     -0.875742    20A     -0.837729    21A     -0.784138
      22A     -0.736481    23A     -0.713891    24A     -0.678388
      25A     -0.671024    26A     -0.658459    27A     -0.642823
      28A     -0.632308    29A     -0.596663    30A     -0.582689
      31A     -0.559271    32A     -0.536607    33A     -0.530241
      34A     -0.518945    35A     -0.500215    36A     -0.469223
      37A     -0.420444    38A     -0.409953    39A     -0.355319
      40A     -0.315085

  @DF-RHF Final Energy:  -512.51577054009113

   => Energetics <=

    Nuclear Repulsion Energy =            591.3647961417516399
    One-Electron Energy =               -1871.5841897860359495
    Two-Electron Energy =                 767.7036231041931842
    Total Energy =                       -512.5157705400911254
  Basis Set: (AUG-CC-PVTZ AUX)
    Blend: AUG-CC-PVTZ-RI
    Molecular point group: c1

    Geometry (in Angstrom), charge = 0, multiplicity = 1:

       Center              X                  Y                   Z               Mass
    ------------   -----------------  -----------------  -----------------  -----------------
         O            0.416526986262     1.745218796775     0.169461642788    15.994914619570
         O           -2.148427013738     0.921956796775    -0.973643357212    15.994914619570
         N           -2.664720013738    -0.436674203225     0.794694642788    14.003074004430
         C           -0.404880013738    -0.446028203225    -0.032881357212    12.000000000000
         C            0.706184986262     0.415427796775     0.052810642788    12.000000000000
         C           -0.349579213738    -1.839415103225    -0.113028157212    12.000000000000
         C            1.998888986262    -0.119644203225     0.058729642788    12.000000000000
         C            1.085724986262    -2.362447203225    -0.101084357212    12.000000000000
         C            2.179690986262    -1.504124203225    -0.025365357212    12.000000000000
         C           -1.794452013738     0.113957796775    -0.119884357212    12.000000000000
         C            1.518156986262     2.648796796775     0.187157642788    12.000000000000
         H           -1.072014013738    -2.478512203225    -0.176374357212     1.007825032230
         H            2.868919986262     0.524176796775     0.128990642788     1.007825032230
         H            1.232213986262    -3.437091203225    -0.167881357212     1.007825032230
         H            3.190382986262    -1.905694203225    -0.026252357212     1.007825032230
         H            2.118457986262     2.559391796775    -0.724320357212     1.007825032230
         H            2.154496986262     2.488118796775     1.064592642788     1.007825032230
         H            1.072006986262     3.641246796775     0.235728642788     1.007825032230
         H           -2.292946013738    -0.822544203225     1.652035642788     1.007825032230
         H           -3.577042013738     0.001694796775     0.848494642788     1.007825032230

  Basis Set: AUG-CC-PVTZ
    Blend: AUG-CC-PVTZ
  Basis Set: (AUG-CC-PVTZ AUX)
    Blend: AUG-CC-PVTZ-JKFIT
	 Reference Energy          =    -512.5157705400911254 [Eh]
	 Singles Energy            =      -0.0000000000000000 [Eh]
	 Same-Spin Energy          =      -0.5358896368844115 [Eh]
	 Opposite-Spin Energy      =      -1.6475136468091769 [Eh]
	 Correlation Energy        =      -2.1834032836935884 [Eh]
	 Total Energy              =    -514.6991738237846903 [Eh]

	 ================> DF-SCS-MP2 Energies <==================
	-----------------------------------------------------------
	 SCS Same-Spin Scale       =       0.3333333333333333 [-]
	 SCS Opposite-Spin Scale   =       1.2000000000000000 [-]
	 SCS Same-Spin Energy      =      -0.1786298789614705 [Eh]
	 SCS Opposite-Spin Energy  =      -1.9770163761710122 [Eh]
	 SCS Correlation Energy    =      -2.1556462551324826 [Eh]
	 SCS Total Energy          =    -514.6714167952236494 [Eh]
	-----------------------------------------------------------

  Dipole Moment: [D]
     X:     2.0050      Y:    -0.8966      Z:     2.9043     Total:     3.6413

*** Psi4 exiting successfully. Buy a developer a beer!
