                               Psi4 1.4a3.dev225

  ==> Input File <==

--------------------------------------------------------------------------
#psi4
#
memory 32 gb

molecule  {
0 1
  O        0.3703410     1.7406370     0.1509160
  O       -2.1946130     0.9173750    -0.9921890
  N       -2.7109060    -0.4412560     0.7761490
  C       -0.4510660    -0.4506100    -0.0514270
  C        0.6599990     0.4108460     0.0342650
  C       -0.2507290    -1.8313420    -0.1181570
  C        1.9527030    -0.1242260     0.0401840
  C        1.0395390    -2.3670290    -0.1196300
  C        2.1183071    -1.4897631    -0.0429666
  C       -1.8406380     0.1093760    -0.1384300
  C        1.4719710     2.6442150     0.1686120
  H       -1.1182000    -2.4830940    -0.1949200
  H        2.8227340     0.5195950     0.1104450
  H        1.1860280    -3.4416730    -0.1864270
  H        3.1441970    -1.9102760    -0.0447980
  H        2.0722720     2.5548100    -0.7428660
  H        2.1083110     2.4835370     1.0460470
  H        1.0258210     3.6366650     0.2171830
  H       -2.3391320    -0.8271260     1.6334900
  H       -3.6232280    -0.0028870     0.8299490
units angstrom
no_reorient  #important for SAPT in psi4, default
symmetry c1  #important for SAPT in psi4, default
}

set PROPERTIES_ORIGIN ["COM"]
properties('MP2/aug-cc-pvtz', properties = ['dipole'])
--------------------------------------------------------------------------

    Molecular point group: c1
  Charge       = 0
  Multiplicity = 1
  Basis Set: AUG-CC-PVTZ
    Blend: AUG-CC-PVTZ
  Basis Set: (AUG-CC-PVTZ AUX)
    Blend: AUG-CC-PVTZ-JKFIT

    Orbital Energies [Eh]
    ---------------------

    Doubly Occupied:

       1A    -20.590655     2A    -20.517150     3A    -15.582604
       4A    -11.354800     5A    -11.317799     6A    -11.287983
       7A    -11.255069     8A    -11.253544     9A    -11.247445
      10A    -11.240962    11A    -11.237893    12A     -1.414213
      13A     -1.369444    14A     -1.207705    15A     -1.159953
      16A     -1.043916    17A     -1.025647    18A     -0.949780
      19A     -0.875586    20A     -0.825337    21A     -0.789340
      22A     -0.735615    23A     -0.707636    24A     -0.682173
      25A     -0.666440    26A     -0.657517    27A     -0.638343
      28A     -0.623635    29A     -0.594396    30A     -0.583614
      31A     -0.558500    32A     -0.542690    33A     -0.530986
      34A     -0.520685    35A     -0.498082    36A     -0.476727
      37A     -0.423809    38A     -0.411447    39A     -0.354572
      40A     -0.322059

  @DF-RHF Final Energy:  -512.54485035971913

   => Energetics <=

    Nuclear Repulsion Energy =            593.1289977077926778
    One-Electron Energy =               -1875.1961987716479143
    Two-Electron Energy =                 769.5223507041361017
    Total Energy =                       -512.5448503597191348
  Basis Set: (AUG-CC-PVTZ AUX)
    Blend: AUG-CC-PVTZ-RI
    Molecular point group: c1

    Geometry (in Angstrom), charge = 0, multiplicity = 1:

       Center              X                  Y                   Z               Mass
    ------------   -----------------  -----------------  -----------------  -----------------
         O            0.406213036377     1.742708766024     0.168320833819    15.994914619570
         O           -2.158740963623     0.919446766024    -0.974784166181    15.994914619570
         N           -2.675033963623    -0.439184233976     0.793553833819    14.003074004430
         C           -0.415193963623    -0.448538233976    -0.034022166181    12.000000000000
         C            0.695871036377     0.412917766024     0.051669833819    12.000000000000
         C           -0.214856963623    -1.829270233976    -0.100752166181    12.000000000000
         C            1.988575036377    -0.122154233976     0.057588833819    12.000000000000
         C            1.075411036377    -2.364957233976    -0.102225166181    12.000000000000
         C            2.154179136377    -1.487691333976    -0.025561766181    12.000000000000
         C           -1.804765963623     0.111447766024    -0.121025166181    12.000000000000
         C            1.507843036377     2.646286766024     0.186016833819    12.000000000000
         H           -1.082327963623    -2.481022233976    -0.177515166181     1.007825032230
         H            2.858606036377     0.521666766024     0.127849833819     1.007825032230
         H            1.221900036377    -3.439601233976    -0.169022166181     1.007825032230
         H            3.180069036377    -1.908204233976    -0.027393166181     1.007825032230
         H            2.108144036377     2.556881766024    -0.725461166181     1.007825032230
         H            2.144183036377     2.485608766024     1.063451833819     1.007825032230
         H            1.061693036377     3.638736766024     0.234587833819     1.007825032230
         H           -2.303259963623    -0.825054233976     1.650894833819     1.007825032230
         H           -3.587355963623    -0.000815233976     0.847353833819     1.007825032230

  Basis Set: AUG-CC-PVTZ
    Blend: AUG-CC-PVTZ
  Basis Set: (AUG-CC-PVTZ AUX)
    Blend: AUG-CC-PVTZ-JKFIT
	 Reference Energy          =    -512.5448503597191348 [Eh]
	 Singles Energy            =      -0.0000000000000000 [Eh]
	 Same-Spin Energy          =      -0.5357208577068835 [Eh]
	 Opposite-Spin Energy      =      -1.6451759240546309 [Eh]
	 Correlation Energy        =      -2.1808967817615144 [Eh]
	 Total Energy              =    -514.7257471414806105 [Eh]

	 ================> DF-SCS-MP2 Energies <==================
	-----------------------------------------------------------
	 SCS Same-Spin Scale       =       0.3333333333333333 [-]
	 SCS Opposite-Spin Scale   =       1.2000000000000000 [-]
	 SCS Same-Spin Energy      =      -0.1785736192356278 [Eh]
	 SCS Opposite-Spin Energy  =      -1.9742111088655570 [Eh]
	 SCS Correlation Energy    =      -2.1527847281011847 [Eh]
	 SCS Total Energy          =    -514.6976350878203448 [Eh]
	-----------------------------------------------------------

  Dipole Moment: [D]
     X:     1.9988      Y:    -0.9015      Z:     2.9003     Total:     3.6359

*** Psi4 exiting successfully. Buy a developer a beer!
