                               Psi4 1.4a3.dev225

  ==> Input File <==

--------------------------------------------------------------------------
#psi4
#
memory 32 gb

molecule  {
0 1
  O        0.3703410     1.7406370     0.1509160
  O       -2.1946130     0.9173750    -0.9921890
  N       -2.6930956    -0.4551084     0.7844406
  C       -0.4510660    -0.4506100    -0.0514270
  C        0.6599990     0.4108460     0.0342650
  C       -0.2507290    -1.8313420    -0.1181570
  C        1.9527030    -0.1242260     0.0401840
  C        1.0395390    -2.3670290    -0.1196300
  C        2.1335050    -1.5087060    -0.0439110
  C       -1.8406380     0.1093760    -0.1384300
  C        1.4719710     2.6442150     0.1686120
  H       -1.1182000    -2.4830940    -0.1949200
  H        2.8227340     0.5195950     0.1104450
  H        1.1860280    -3.4416730    -0.1864270
  H        3.1441970    -1.9102760    -0.0447980
  H        2.0722720     2.5548100    -0.7428660
  H        2.1083110     2.4835370     1.0460470
  H        1.0258210     3.6366650     0.2171830
  H       -2.3391320    -0.8271260     1.6334900
  H       -3.6232280    -0.0028870     0.8299490
units angstrom
no_reorient  #important for SAPT in psi4, default
symmetry c1  #important for SAPT in psi4, default
}

set PROPERTIES_ORIGIN ["COM"]
properties('MP2/aug-cc-pvtz', properties = ['dipole'])
--------------------------------------------------------------------------

    Molecular point group: c1
  Charge       = 0
  Multiplicity = 1
  Basis Set: AUG-CC-PVTZ
    Blend: AUG-CC-PVTZ
  Basis Set: (AUG-CC-PVTZ AUX)
    Blend: AUG-CC-PVTZ-JKFIT

    Orbital Energies [Eh]
    ---------------------

    Doubly Occupied:

       1A    -20.590151     2A    -20.518804     3A    -15.583615
       4A    -11.355704     5A    -11.316905     6A    -11.287542
       7A    -11.254853     8A    -11.253704     9A    -11.247457
      10A    -11.242380    11A    -11.238079    12A     -1.413707
      13A     -1.370040    14A     -1.209609    15A     -1.157377
      16A     -1.042223    17A     -1.024320    18A     -0.949259
      19A     -0.876646    20A     -0.823895    21A     -0.790102
      22A     -0.738611    23A     -0.708469    24A     -0.680610
      25A     -0.663352    26A     -0.656400    27A     -0.639239
      28A     -0.623774    29A     -0.596504    30A     -0.582286
      31A     -0.558152    32A     -0.543601    33A     -0.529889
      34A     -0.518512    35A     -0.500301    36A     -0.475565
      37A     -0.424798    38A     -0.412667    39A     -0.351894
      40A     -0.322423

  @DF-RHF Final Energy:  -512.54410644963787

   => Energetics <=

    Nuclear Repulsion Energy =            592.8026649599418079
    One-Electron Energy =               -1874.5467031726757341
    Two-Electron Energy =                 769.1999317630959467
    Total Energy =                       -512.5441064496378658
  Basis Set: (AUG-CC-PVTZ AUX)
    Blend: AUG-CC-PVTZ-RI
    Molecular point group: c1

    Geometry (in Angstrom), charge = 0, multiplicity = 1:

       Center              X                  Y                   Z               Mass
    ------------   -----------------  -----------------  -----------------  -----------------
         O            0.403354797031     1.745497602907     0.167627249947    15.994914619570
         O           -2.161599202969     0.922235602907    -0.975477750053    15.994914619570
         N           -2.660081802969    -0.450247797093     0.801151849947    14.003074004430
         C           -0.418052202969    -0.445749397093    -0.034715750053    12.000000000000
         C            0.693012797031     0.415706602907     0.050976249947    12.000000000000
         C           -0.217715202969    -1.826481397093    -0.101445750053    12.000000000000
         C            1.985716797031    -0.119365397093     0.056895249947    12.000000000000
         C            1.072552797031    -2.362168397093    -0.102918750053    12.000000000000
         C            2.166518797031    -1.503845397093    -0.027199750053    12.000000000000
         C           -1.807624202969     0.114236602907    -0.121718750053    12.000000000000
         C            1.504984797031     2.649075602907     0.185323249947    12.000000000000
         H           -1.085186202969    -2.478233397093    -0.178208750053     1.007825032230
         H            2.855747797031     0.524455602907     0.127156249947     1.007825032230
         H            1.219041797031    -3.436812397093    -0.169715750053     1.007825032230
         H            3.177210797031    -1.905415397093    -0.028086750053     1.007825032230
         H            2.105285797031     2.559670602907    -0.726154750053     1.007825032230
         H            2.141324797031     2.488397602907     1.062758249947     1.007825032230
         H            1.058834797031     3.641525602907     0.233894249947     1.007825032230
         H           -2.306118202969    -0.822265397093     1.650201249947     1.007825032230
         H           -3.590214202969     0.001973602907     0.846660249947     1.007825032230

  Basis Set: AUG-CC-PVTZ
    Blend: AUG-CC-PVTZ
  Basis Set: (AUG-CC-PVTZ AUX)
    Blend: AUG-CC-PVTZ-JKFIT
	 Reference Energy          =    -512.5441064496378658 [Eh]
	 Singles Energy            =      -0.0000000000000000 [Eh]
	 Same-Spin Energy          =      -0.5358393077653607 [Eh]
	 Opposite-Spin Energy      =      -1.6455227791491562 [Eh]
	 Correlation Energy        =      -2.1813620869145169 [Eh]
	 Total Energy              =    -514.7254685365523983 [Eh]

	 ================> DF-SCS-MP2 Energies <==================
	-----------------------------------------------------------
	 SCS Same-Spin Scale       =       0.3333333333333333 [-]
	 SCS Opposite-Spin Scale   =       1.2000000000000000 [-]
	 SCS Same-Spin Energy      =      -0.1786131025884536 [Eh]
	 SCS Opposite-Spin Energy  =      -1.9746273349789873 [Eh]
	 SCS Correlation Energy    =      -2.1532404375674408 [Eh]
	 SCS Total Energy          =    -514.6973468872052990 [Eh]
	-----------------------------------------------------------

  Dipole Moment: [D]
     X:     1.9573      Y:    -0.8927      Z:     2.8941     Total:     3.6060

*** Psi4 exiting successfully. Buy a developer a beer!
