                               Psi4 1.4a3.dev225

  ==> Input File <==

--------------------------------------------------------------------------
#psi4
#
memory 32 gb

molecule  {
0 1
  O        0.3703410     1.7406370     0.1509160
  O       -2.1946130     0.9173750    -0.9921890
  N       -2.7284513    -0.4272359     0.7675788
  C       -0.4510660    -0.4506100    -0.0514270
  C        0.6599990     0.4108460     0.0342650
  C       -0.2507290    -1.8313420    -0.1181570
  C        1.9527030    -0.1242260     0.0401840
  C        1.0395390    -2.3670290    -0.1196300
  C        2.1335050    -1.5087060    -0.0439110
  C       -1.8406380     0.1093760    -0.1384300
  C        1.4719710     2.6442150     0.1686120
  H       -1.1182000    -2.4830940    -0.1949200
  H        2.8227340     0.5195950     0.1104450
  H        1.1860280    -3.4416730    -0.1864270
  H        3.1441970    -1.9102760    -0.0447980
  H        2.0722720     2.5548100    -0.7428660
  H        2.1083110     2.4835370     1.0460470
  H        1.0258210     3.6366650     0.2171830
  H       -2.3391320    -0.8271260     1.6334900
  H       -3.6232280    -0.0028870     0.8299490
units angstrom
no_reorient  #important for SAPT in psi4, default
symmetry c1  #important for SAPT in psi4, default
}

set PROPERTIES_ORIGIN ["COM"]
properties('MP2/aug-cc-pvtz', properties = ['dipole'])
--------------------------------------------------------------------------

    Molecular point group: c1
  Charge       = 0
  Multiplicity = 1
  Basis Set: AUG-CC-PVTZ
    Blend: AUG-CC-PVTZ
  Basis Set: (AUG-CC-PVTZ AUX)
    Blend: AUG-CC-PVTZ-JKFIT

    Orbital Energies [Eh]
    ---------------------

    Doubly Occupied:

       1A    -20.590580     2A    -20.516044     3A    -15.581986
       4A    -11.354526     5A    -11.317937     6A    -11.287802
       7A    -11.255855     8A    -11.254515     9A    -11.249132
      10A    -11.243064    11A    -11.238757    12A     -1.414119
      13A     -1.369371    14A     -1.206363    15A     -1.158422
      16A     -1.043443    17A     -1.025048    18A     -0.949774
      19A     -0.877978    20A     -0.824823    21A     -0.789537
      22A     -0.732266    23A     -0.708820    24A     -0.683159
      25A     -0.668247    26A     -0.657595    27A     -0.639507
      28A     -0.623280    29A     -0.596347    30A     -0.581999
      31A     -0.558416    32A     -0.543724    33A     -0.530608
      34A     -0.518937    35A     -0.500589    36A     -0.476024
      37A     -0.423431    38A     -0.410572    39A     -0.352739
      40A     -0.323162

  @DF-RHF Final Energy:  -512.54489376681772

   => Energetics <=

    Nuclear Repulsion Energy =            592.5297262839127370
    One-Electron Energy =               -1873.9922440372092751
    Two-Electron Energy =                 768.9176239864789295
    Total Energy =                       -512.5448937668177223
  Basis Set: (AUG-CC-PVTZ AUX)
    Blend: AUG-CC-PVTZ-RI
    Molecular point group: c1

    Geometry (in Angstrom), charge = 0, multiplicity = 1:

       Center              X                  Y                   Z               Mass
    ------------   -----------------  -----------------  -----------------  -----------------
         O            0.406632154206     1.742913913775     0.169190283381    15.994914619570
         O           -2.158321845794     0.919651913775    -0.973914716619    15.994914619570
         N           -2.692160145794    -0.424958986225     0.785853083381    14.003074004430
         C           -0.414774845794    -0.448333086225    -0.033152716619    12.000000000000
         C            0.696290154206     0.413122913775     0.052539283381    12.000000000000
         C           -0.214437845794    -1.829065086225    -0.099882716619    12.000000000000
         C            1.988994154206    -0.121949086225     0.058458283381    12.000000000000
         C            1.075830154206    -2.364752086225    -0.101355716619    12.000000000000
         C            2.169796154206    -1.506429086225    -0.025636716619    12.000000000000
         C           -1.804346845794     0.111652913775    -0.120155716619    12.000000000000
         C            1.508262154206     2.646491913775     0.186886283381    12.000000000000
         H           -1.081908845794    -2.480817086225    -0.176645716619     1.007825032230
         H            2.859025154206     0.521871913775     0.128719283381     1.007825032230
         H            1.222319154206    -3.439396086225    -0.168152716619     1.007825032230
         H            3.180488154206    -1.907999086225    -0.026523716619     1.007825032230
         H            2.108563154206     2.557086913775    -0.724591716619     1.007825032230
         H            2.144602154206     2.485813913775     1.064321283381     1.007825032230
         H            1.062112154206     3.638941913775     0.235457283381     1.007825032230
         H           -2.302840845794    -0.824849086225     1.651764283381     1.007825032230
         H           -3.586936845794    -0.000610086225     0.848223283381     1.007825032230

  Basis Set: AUG-CC-PVTZ
    Blend: AUG-CC-PVTZ
  Basis Set: (AUG-CC-PVTZ AUX)
    Blend: AUG-CC-PVTZ-JKFIT
	 Reference Energy          =    -512.5448937668177223 [Eh]
	 Singles Energy            =      -0.0000000000000000 [Eh]
	 Same-Spin Energy          =      -0.5356009953143654 [Eh]
	 Opposite-Spin Energy      =      -1.6451428098133145 [Eh]
	 Correlation Energy        =      -2.1807438051276797 [Eh]
	 Total Energy              =    -514.7256375719454127 [Eh]

	 ================> DF-SCS-MP2 Energies <==================
	-----------------------------------------------------------
	 SCS Same-Spin Scale       =       0.3333333333333333 [-]
	 SCS Opposite-Spin Scale   =       1.2000000000000000 [-]
	 SCS Same-Spin Energy      =      -0.1785336651047885 [Eh]
	 SCS Opposite-Spin Energy  =      -1.9741713717759772 [Eh]
	 SCS Correlation Energy    =      -2.1527050368807656 [Eh]
	 SCS Total Energy          =    -514.6975988036984972 [Eh]
	-----------------------------------------------------------

  Dipole Moment: [D]
     X:     2.0394      Y:    -0.9346      Z:     2.9028     Total:     3.6686

*** Psi4 exiting successfully. Buy a developer a beer!
