                               Psi4 1.4a3.dev225

  ==> Input File <==

--------------------------------------------------------------------------
#psi4
#
memory 32 gb

molecule  {
0 1
  O        0.3703410     1.7406370     0.1509160
  O       -2.1946130     0.9173750    -0.9921890
  N       -2.7109060    -0.4412560     0.7761490
  C       -0.4510660    -0.4506100    -0.0514270
  C        0.6599990     0.4108460     0.0342650
  C       -0.2507290    -1.8313420    -0.1181570
  C        1.9527030    -0.1242260     0.0401840
  C        1.0395390    -2.3670290    -0.1196300
  C        2.1335050    -1.5087060    -0.0439110
  C       -1.8406380     0.1093760    -0.1384300
  C        1.4719710     2.6442150     0.1686120
  H       -1.1182000    -2.4830940    -0.1949200
  H        2.8227340     0.5195950     0.1104450
  H        1.1927685    -3.4911211    -0.1895006
  H        3.1441970    -1.9102760    -0.0447980
  H        2.0722720     2.5548100    -0.7428660
  H        2.1083110     2.4835370     1.0460470
  H        1.0258210     3.6366650     0.2171830
  H       -2.3391320    -0.8271260     1.6334900
  H       -3.6232280    -0.0028870     0.8299490
units angstrom
no_reorient  #important for SAPT in psi4, default
symmetry c1  #important for SAPT in psi4, default
}

set PROPERTIES_ORIGIN ["COM"]
properties('MP2/aug-cc-pvtz', properties = ['dipole'])
--------------------------------------------------------------------------

    Molecular point group: c1
  Charge       = 0
  Multiplicity = 1
  Basis Set: AUG-CC-PVTZ
    Blend: AUG-CC-PVTZ
  Basis Set: (AUG-CC-PVTZ AUX)
    Blend: AUG-CC-PVTZ-JKFIT

    Orbital Energies [Eh]
    ---------------------

    Doubly Occupied:

       1A    -20.590503     2A    -20.517573     3A    -15.582941
       4A    -11.355257     5A    -11.317603     6A    -11.287793
       7A    -11.255837     8A    -11.254590     9A    -11.248624
      10A    -11.244131    11A    -11.243065    12A     -1.414058
      13A     -1.369832    14A     -1.208022    15A     -1.157933
      16A     -1.042867    17A     -1.023851    18A     -0.948984
      19A     -0.877448    20A     -0.823620    21A     -0.787299
      22A     -0.734849    23A     -0.708993    24A     -0.680949
      25A     -0.665106    26A     -0.656776    27A     -0.636336
      28A     -0.623579    29A     -0.596807    30A     -0.582358
      31A     -0.558223    32A     -0.541336    33A     -0.530314
      34A     -0.516181    35A     -0.500613    36A     -0.476056
      37A     -0.424215    38A     -0.411764    39A     -0.352622
      40A     -0.323017

  @DF-RHF Final Energy:  -512.54290754979900

   => Energetics <=

    Nuclear Repulsion Energy =            592.4041246278804920
    One-Electron Energy =               -1873.7502098060554090
    Two-Electron Energy =                 768.8031776283759200
    Total Energy =                       -512.5429075497989970
  Basis Set: (AUG-CC-PVTZ AUX)
    Blend: AUG-CC-PVTZ-RI
    Molecular point group: c1

    Geometry (in Angstrom), charge = 0, multiplicity = 1:

       Center              X                  Y                   Z               Mass
    ------------   -----------------  -----------------  -----------------  -----------------
         O            0.404960793053     1.744543425935     0.168416359657    15.994914619570
         O           -2.159993206947     0.921281425935    -0.974688640343    15.994914619570
         N           -2.676286206947    -0.437349574065     0.793649359657    14.003074004430
         C           -0.416446206947    -0.446703574065    -0.033926640343    12.000000000000
         C            0.694618793053     0.414752425935     0.051765359657    12.000000000000
         C           -0.216109206947    -1.827435574065    -0.100656640343    12.000000000000
         C            1.987322793053    -0.120319574065     0.057684359657    12.000000000000
         C            1.074158793053    -2.363122574065    -0.102129640343    12.000000000000
         C            2.168124793053    -1.504799574065    -0.026410640343    12.000000000000
         C           -1.806018206947     0.113282425935    -0.120929640343    12.000000000000
         C            1.506590793053     2.648121425935     0.186112359657    12.000000000000
         H           -1.083580206947    -2.479187574065    -0.177419640343     1.007825032230
         H            2.857353793053     0.523501425935     0.127945359657     1.007825032230
         H            1.227388293053    -3.487214674065    -0.172000240343     1.007825032230
         H            3.178816793053    -1.906369574065    -0.027297640343     1.007825032230
         H            2.106891793053     2.558716425935    -0.725365640343     1.007825032230
         H            2.142930793053     2.487443425935     1.063547359657     1.007825032230
         H            1.060440793053     3.640571425935     0.234683359657     1.007825032230
         H           -2.304512206947    -0.823219574065     1.650990359657     1.007825032230
         H           -3.588608206947     0.001019425935     0.847449359657     1.007825032230

  Basis Set: AUG-CC-PVTZ
    Blend: AUG-CC-PVTZ
  Basis Set: (AUG-CC-PVTZ AUX)
    Blend: AUG-CC-PVTZ-JKFIT
	 Reference Energy          =    -512.5429075497989970 [Eh]
	 Singles Energy            =      -0.0000000000000000 [Eh]
	 Same-Spin Energy          =      -0.5358040709943844 [Eh]
	 Opposite-Spin Energy      =      -1.6457199325755854 [Eh]
	 Correlation Energy        =      -2.1815240035699697 [Eh]
	 Total Energy              =    -514.7244315533689587 [Eh]

	 ================> DF-SCS-MP2 Energies <==================
	-----------------------------------------------------------
	 SCS Same-Spin Scale       =       0.3333333333333333 [-]
	 SCS Opposite-Spin Scale   =       1.2000000000000000 [-]
	 SCS Same-Spin Energy      =      -0.1786013569981281 [Eh]
	 SCS Opposite-Spin Energy  =      -1.9748639190907022 [Eh]
	 SCS Correlation Energy    =      -2.1534652760888302 [Eh]
	 SCS Total Energy          =    -514.6963728258878064 [Eh]
	-----------------------------------------------------------

  Dipole Moment: [D]
     X:     1.9913      Y:    -0.8935      Z:     2.9005     Total:     3.6299

*** Psi4 exiting successfully. Buy a developer a beer!
