                               Psi4 1.4a3.dev225

  ==> Input File <==

--------------------------------------------------------------------------
#psi4
#
memory 32 gb

molecule  {
0 1
  O        0.3703410     1.7406370     0.1509160
  O       -2.1946130     0.9173750    -0.9921890
  N       -2.7109060    -0.4412560     0.7761490
  C       -0.4510660    -0.4506100    -0.0514270
  C        0.6599990     0.4108460     0.0342650
  C       -0.2507290    -1.8313420    -0.1181570
  C        1.9527030    -0.1242260     0.0401840
  C        1.0395390    -2.3670290    -0.1196300
  C        2.1335050    -1.5087060    -0.0439110
  C       -1.8406380     0.1093760    -0.1384300
  C        1.4719710     2.6442150     0.1686120
  H       -1.1182000    -2.4830940    -0.1949200
  H        2.8227340     0.5195950     0.1104450
  H        1.1590661    -3.2438804    -0.1741327
  H        3.1441970    -1.9102760    -0.0447980
  H        2.0722720     2.5548100    -0.7428660
  H        2.1083110     2.4835370     1.0460470
  H        1.0258210     3.6366650     0.2171830
  H       -2.3391320    -0.8271260     1.6334900
  H       -3.6232280    -0.0028870     0.8299490
units angstrom
no_reorient  #important for SAPT in psi4, default
symmetry c1  #important for SAPT in psi4, default
}

set PROPERTIES_ORIGIN ["COM"]
properties('MP2/aug-cc-pvtz', properties = ['dipole'])
--------------------------------------------------------------------------

    Molecular point group: c1
  Charge       = 0
  Multiplicity = 1
  Basis Set: AUG-CC-PVTZ
    Blend: AUG-CC-PVTZ
  Basis Set: (AUG-CC-PVTZ AUX)
    Blend: AUG-CC-PVTZ-JKFIT

    Orbital Energies [Eh]
    ---------------------

    Doubly Occupied:

       1A    -20.590110     2A    -20.516917     3A    -15.582446
       4A    -11.354467     5A    -11.317100     6A    -11.287396
       7A    -11.254138     8A    -11.252934     9A    -11.247284
      10A    -11.241709    11A    -11.214502    12A     -1.413617
      13A     -1.369215    14A     -1.207496    15A     -1.159031
      16A     -1.044780    17A     -1.030210    18A     -0.953275
      19A     -0.876626    20A     -0.832487    21A     -0.800085
      22A     -0.739538    23A     -0.709618    24A     -0.689786
      25A     -0.670242    26A     -0.658577    27A     -0.646933
      28A     -0.623168    29A     -0.595846    30A     -0.581867
      31A     -0.560640    32A     -0.551763    33A     -0.530111
      34A     -0.523048    35A     -0.499934    36A     -0.475164
      37A     -0.423831    38A     -0.411228    39A     -0.351453
      40A     -0.322475

  @DF-RHF Final Energy:  -512.51059542330029

   => Energetics <=

    Nuclear Repulsion Energy =            593.8661463770454247
    One-Electron Energy =               -1876.5313912194728800
    Two-Electron Energy =                 770.1546494191271677
    Total Energy =                       -512.5105954233002876
  Basis Set: (AUG-CC-PVTZ AUX)
    Blend: AUG-CC-PVTZ-RI
    Molecular point group: c1

    Geometry (in Angstrom), charge = 0, multiplicity = 1:

       Center              X                  Y                   Z               Mass
    ------------   -----------------  -----------------  -----------------  -----------------
         O            0.405185639961     1.742893949726     0.168313832098    15.994914619570
         O           -2.159768360039     0.919631949726    -0.974791167902    15.994914619570
         N           -2.676061360039    -0.438999050274     0.793546832098    14.003074004430
         C           -0.416221360039    -0.448353050274    -0.034029167902    12.000000000000
         C            0.694843639961     0.413102949726     0.051662832098    12.000000000000
         C           -0.215884360039    -1.829085050274    -0.100759167902    12.000000000000
         C            1.987547639961    -0.121969050274     0.057581832098    12.000000000000
         C            1.074383639961    -2.364772050274    -0.102232167902    12.000000000000
         C            2.168349639961    -1.506449050274    -0.026513167902    12.000000000000
         C           -1.805793360039     0.111632949726    -0.121032167902    12.000000000000
         C            1.506815639961     2.646471949726     0.186009832098    12.000000000000
         H           -1.083355360039    -2.480837050274    -0.177522167902     1.007825032230
         H            2.857578639961     0.521851949726     0.127842832098     1.007825032230
         H            1.193910739961    -3.241623450274    -0.156734867902     1.007825032230
         H            3.179041639961    -1.908019050274    -0.027400167902     1.007825032230
         H            2.107116639961     2.557066949726    -0.725468167902     1.007825032230
         H            2.143155639961     2.485793949726     1.063444832098     1.007825032230
         H            1.060665639961     3.638921949726     0.234580832098     1.007825032230
         H           -2.304287360039    -0.824869050274     1.650887832098     1.007825032230
         H           -3.588383360039    -0.000630050274     0.847346832098     1.007825032230

  Basis Set: AUG-CC-PVTZ
    Blend: AUG-CC-PVTZ
  Basis Set: (AUG-CC-PVTZ AUX)
    Blend: AUG-CC-PVTZ-JKFIT
	 Reference Energy          =    -512.5105954233002876 [Eh]
	 Singles Energy            =      -0.0000000000000000 [Eh]
	 Same-Spin Energy          =      -0.5355376042321985 [Eh]
	 Opposite-Spin Energy      =      -1.6447848282010664 [Eh]
	 Correlation Energy        =      -2.1803224324332651 [Eh]
	 Total Energy              =    -514.6909178557335736 [Eh]

	 ================> DF-SCS-MP2 Energies <==================
	-----------------------------------------------------------
	 SCS Same-Spin Scale       =       0.3333333333333333 [-]
	 SCS Opposite-Spin Scale   =       1.2000000000000000 [-]
	 SCS Same-Spin Energy      =      -0.1785125347440662 [Eh]
	 SCS Opposite-Spin Energy  =      -1.9737417938412796 [Eh]
	 SCS Correlation Energy    =      -2.1522543285853457 [Eh]
	 SCS Total Energy          =    -514.6628497518856875 [Eh]
	-----------------------------------------------------------

  Dipole Moment: [D]
     X:     2.0111      Y:    -0.9524      Z:     2.8981     Total:     3.6539

*** Psi4 exiting successfully. Buy a developer a beer!
