                               Psi4 1.4a3.dev225

  ==> Input File <==

--------------------------------------------------------------------------
#psi4
#
memory 32 gb

molecule  {
0 1
  O        0.3703410     1.7406370     0.1509160
  O       -2.1946130     0.9173750    -0.9921890
  N       -2.7109060    -0.4412560     0.7761490
  C       -0.4510660    -0.4506100    -0.0514270
  C        0.6599990     0.4108460     0.0342650
  C       -0.1078877    -1.8035595    -0.1040091
  C        1.9527030    -0.1242260     0.0401840
  C        1.0395390    -2.3670290    -0.1196300
  C        2.1335050    -1.5087060    -0.0439110
  C       -1.8406380     0.1093760    -0.1384300
  C        1.4719710     2.6442150     0.1686120
  H       -1.1182000    -2.4830940    -0.1949200
  H        2.8227340     0.5195950     0.1104450
  H        1.1860280    -3.4416730    -0.1864270
  H        3.1441970    -1.9102760    -0.0447980
  H        2.0722720     2.5548100    -0.7428660
  H        2.1083110     2.4835370     1.0460470
  H        1.0258210     3.6366650     0.2171830
  H       -2.3391320    -0.8271260     1.6334900
  H       -3.6232280    -0.0028870     0.8299490
units angstrom
no_reorient  #important for SAPT in psi4, default
symmetry c1  #important for SAPT in psi4, default
}

set PROPERTIES_ORIGIN ["COM"]
properties('MP2/aug-cc-pvtz', properties = ['dipole'])
--------------------------------------------------------------------------

    Molecular point group: c1
  Charge       = 0
  Multiplicity = 1
  Basis Set: AUG-CC-PVTZ
    Blend: AUG-CC-PVTZ
  Basis Set: (AUG-CC-PVTZ AUX)
    Blend: AUG-CC-PVTZ-JKFIT

    Orbital Energies [Eh]
    ---------------------

    Doubly Occupied:

       1A    -20.590092     2A    -20.518780     3A    -15.582830
       4A    -11.357956     5A    -11.317369     6A    -11.287490
       7A    -11.256735     8A    -11.251100     9A    -11.245092
      10A    -11.242441    11A    -11.224766    12A     -1.413931
      13A     -1.370539    14A     -1.207856    15A     -1.173297
      16A     -1.045573    17A     -1.032244    18A     -0.951548
      19A     -0.881911    20A     -0.811855    21A     -0.796329
      22A     -0.736136    23A     -0.706186    24A     -0.687080
      25A     -0.671537    26A     -0.658238    27A     -0.644170
      28A     -0.607745    29A     -0.593591    30A     -0.583898
      31A     -0.556489    32A     -0.556002    33A     -0.533397
      34A     -0.509187    35A     -0.485174    36A     -0.477449
      37A     -0.427055    38A     -0.411441    39A     -0.354539
      40A     -0.329043

  @DF-RHF Final Energy:  -512.51746257445416

   => Energetics <=

    Nuclear Repulsion Energy =            594.3679864473544967
    One-Electron Energy =               -1877.5947083921942067
    Two-Electron Energy =                 770.7092593703855528
    Total Energy =                       -512.5174625744541572
  Basis Set: (AUG-CC-PVTZ AUX)
    Blend: AUG-CC-PVTZ-RI
    Molecular point group: c1

    Geometry (in Angstrom), charge = 0, multiplicity = 1:

       Center              X                  Y                   Z               Mass
    ------------   -----------------  -----------------  -----------------  -----------------
         O            0.393658894889     1.742006575750     0.167271988931    15.994914619570
         O           -2.171295105111     0.918744575750    -0.975833011069    15.994914619570
         N           -2.687588105111    -0.439886424250     0.792504988931    14.003074004430
         C           -0.427748105111    -0.449240424250    -0.035071011069    12.000000000000
         C            0.683316894889     0.412215575750     0.050620988931    12.000000000000
         C           -0.084569805111    -1.802189924250    -0.087653111069    12.000000000000
         C            1.976020894889    -0.122856424250     0.056539988931    12.000000000000
         C            1.062856894889    -2.365659424250    -0.103274011069    12.000000000000
         C            2.156822894889    -1.507336424250    -0.027555011069    12.000000000000
         C           -1.817320105111     0.110745575750    -0.122074011069    12.000000000000
         C            1.495288894889     2.645584575750     0.184967988931    12.000000000000
         H           -1.094882105111    -2.481724424250    -0.178564011069     1.007825032230
         H            2.846051894889     0.520964575750     0.126800988931     1.007825032230
         H            1.209345894889    -3.440303424250    -0.170071011069     1.007825032230
         H            3.167514894889    -1.908906424250    -0.028442011069     1.007825032230
         H            2.095589894889     2.556179575750    -0.726510011069     1.007825032230
         H            2.131628894889     2.484906575750     1.062402988931     1.007825032230
         H            1.049138894889     3.638034575750     0.233538988931     1.007825032230
         H           -2.315814105111    -0.825756424250     1.649845988931     1.007825032230
         H           -3.599910105111    -0.001517424250     0.846304988931     1.007825032230

  Basis Set: AUG-CC-PVTZ
    Blend: AUG-CC-PVTZ
  Basis Set: (AUG-CC-PVTZ AUX)
    Blend: AUG-CC-PVTZ-JKFIT
	 Reference Energy          =    -512.5174625744541572 [Eh]
	 Singles Energy            =      -0.0000000000000000 [Eh]
	 Same-Spin Energy          =      -0.5362576831518168 [Eh]
	 Opposite-Spin Energy      =      -1.6462599857823339 [Eh]
	 Correlation Energy        =      -2.1825176689341506 [Eh]
	 Total Energy              =    -514.6999802433882678 [Eh]

	 ================> DF-SCS-MP2 Energies <==================
	-----------------------------------------------------------
	 SCS Same-Spin Scale       =       0.3333333333333333 [-]
	 SCS Opposite-Spin Scale   =       1.2000000000000000 [-]
	 SCS Same-Spin Energy      =      -0.1787525610506056 [Eh]
	 SCS Opposite-Spin Energy  =      -1.9755119829388006 [Eh]
	 SCS Correlation Energy    =      -2.1542645439894064 [Eh]
	 SCS Total Energy          =    -514.6717271184435276 [Eh]
	-----------------------------------------------------------

  Dipole Moment: [D]
     X:     2.0640      Y:    -0.8607      Z:     2.9038     Total:     3.6651

*** Psi4 exiting successfully. Buy a developer a beer!
