                               Psi4 1.4a3.dev225

  ==> Input File <==

--------------------------------------------------------------------------
#psi4
#
memory 32 gb

molecule  {
0 1
  O        0.3703410     1.7406370     0.1509160
  O       -2.1946130     0.9173750    -0.9921890
  N       -2.7109060    -0.4412560     0.7761490
  C       -0.4510660    -0.4506100    -0.0514270
  C        0.6599990     0.4108460     0.0342650
  C       -0.2507290    -1.8313420    -0.1181570
  C        1.9527030    -0.1242260     0.0401840
  C        1.0395390    -2.3670290    -0.1196300
  C        2.1335050    -1.5087060    -0.0439110
  C       -1.8406380     0.1093760    -0.1384300
  C        1.4719710     2.6442150     0.1686120
  H       -1.1182000    -2.4830940    -0.1949200
  H        2.8227340     0.5195950     0.1104450
  H        1.1860280    -3.4416730    -0.1864270
  H        3.1441970    -1.9102760    -0.0447980
  H        2.0722720     2.5548100    -0.7428660
  H        2.1166360     2.4486424     1.0327860
  H        1.0258210     3.6366650     0.2171830
  H       -2.3391320    -0.8271260     1.6334900
  H       -3.6232280    -0.0028870     0.8299490
units angstrom
no_reorient  #important for SAPT in psi4, default
symmetry c1  #important for SAPT in psi4, default
}

set PROPERTIES_ORIGIN ["COM"]
properties('MP2/aug-cc-pvtz', properties = ['dipole'])
--------------------------------------------------------------------------

    Molecular point group: c1
  Charge       = 0
  Multiplicity = 1
  Basis Set: AUG-CC-PVTZ
    Blend: AUG-CC-PVTZ
  Basis Set: (AUG-CC-PVTZ AUX)
    Blend: AUG-CC-PVTZ-JKFIT

    Orbital Energies [Eh]
    ---------------------

    Doubly Occupied:

       1A    -20.589947     2A    -20.517384     3A    -15.582803
       4A    -11.355046     5A    -11.317418     6A    -11.287767
       7A    -11.255375     8A    -11.254152     9A    -11.248296
      10A    -11.242781    11A    -11.238442    12A     -1.413814
      13A     -1.369653    14A     -1.207871    15A     -1.157913
      16A     -1.042867    17A     -1.024669    18A     -0.949498
      19A     -0.877237    20A     -0.824143    21A     -0.789409
      22A     -0.735672    23A     -0.709022    24A     -0.681992
      25A     -0.665241    26A     -0.656818    27A     -0.639772
      28A     -0.623685    29A     -0.596537    30A     -0.582664
      31A     -0.558153    32A     -0.544126    33A     -0.530175
      34A     -0.518528    35A     -0.500731    36A     -0.475303
      37A     -0.424090    38A     -0.411612    39A     -0.352361
      40A     -0.322785

  @DF-RHF Final Energy:  -512.54522335511501

   => Energetics <=

    Nuclear Repulsion Energy =            592.7271568816729541
    One-Electron Energy =               -1874.3932526877706550
    Two-Electron Energy =                 769.1208724509826880
    Total Energy =                       -512.5452233551150130
  Basis Set: (AUG-CC-PVTZ AUX)
    Blend: AUG-CC-PVTZ-RI
    Molecular point group: c1

    Geometry (in Angstrom), charge = 0, multiplicity = 1:

       Center              X                  Y                   Z               Mass
    ------------   -----------------  -----------------  -----------------  -----------------
         O            0.404950221998     1.744446331678     0.168484325303    15.994914619570
         O           -2.160003778002     0.921184331678    -0.974620674697    15.994914619570
         N           -2.676296778002    -0.437446668322     0.793717325303    14.003074004430
         C           -0.416456778002    -0.446800668322    -0.033858674697    12.000000000000
         C            0.694608221998     0.414655331678     0.051833325303    12.000000000000
         C           -0.216119778002    -1.827532668322    -0.100588674697    12.000000000000
         C            1.987312221998    -0.120416668322     0.057752325303    12.000000000000
         C            1.074148221998    -2.363219668322    -0.102061674697    12.000000000000
         C            2.168114221998    -1.504896668322    -0.026342674697    12.000000000000
         C           -1.806028778002     0.113185331678    -0.120861674697    12.000000000000
         C            1.506580221998     2.648024331678     0.186180325303    12.000000000000
         H           -1.083590778002    -2.479284668322    -0.177351674697     1.007825032230
         H            2.857343221998     0.523404331678     0.128013325303     1.007825032230
         H            1.220637221998    -3.437863668322    -0.168858674697     1.007825032230
         H            3.178806221998    -1.906466668322    -0.027229674697     1.007825032230
         H            2.106881221998     2.558619331678    -0.725297674697     1.007825032230
         H            2.151245221998     2.452451731678     1.050354325303     1.007825032230
         H            1.060430221998     3.640474331678     0.234751325303     1.007825032230
         H           -2.304522778002    -0.823316668322     1.651058325303     1.007825032230
         H           -3.588618778002     0.000922331678     0.847517325303     1.007825032230

  Basis Set: AUG-CC-PVTZ
    Blend: AUG-CC-PVTZ
  Basis Set: (AUG-CC-PVTZ AUX)
    Blend: AUG-CC-PVTZ-JKFIT
	 Reference Energy          =    -512.5452233551150130 [Eh]
	 Singles Energy            =      -0.0000000000000000 [Eh]
	 Same-Spin Energy          =      -0.5357354717767464 [Eh]
	 Opposite-Spin Energy      =      -1.6453278121903490 [Eh]
	 Correlation Energy        =      -2.1810632839670951 [Eh]
	 Total Energy              =    -514.7262866390821046 [Eh]

	 ================> DF-SCS-MP2 Energies <==================
	-----------------------------------------------------------
	 SCS Same-Spin Scale       =       0.3333333333333333 [-]
	 SCS Opposite-Spin Scale   =       1.2000000000000000 [-]
	 SCS Same-Spin Energy      =      -0.1785784905922488 [Eh]
	 SCS Opposite-Spin Energy  =      -1.9743933746284186 [Eh]
	 SCS Correlation Energy    =      -2.1529718652206675 [Eh]
	 SCS Total Energy          =    -514.6981952203357196 [Eh]
	-----------------------------------------------------------

  Dipole Moment: [D]
     X:     1.9948      Y:    -0.9204      Z:     2.8905     Total:     3.6306

*** Psi4 exiting successfully. Buy a developer a beer!
