                               Psi4 1.4a3.dev225

  ==> Input File <==

--------------------------------------------------------------------------
#psi4
#
memory 32 gb

molecule  {
0 1
  O        0.3703410     1.7406370     0.1509160
  O       -2.1946130     0.9173750    -0.9921890
  N       -2.7109060    -0.4412560     0.7761490
  C       -0.4510660    -0.4506100    -0.0514270
  C        0.6599990     0.4108460     0.0342650
  C       -0.2507290    -1.8313420    -0.1181570
  C        1.9527030    -0.1242260     0.0401840
  C        1.0395390    -2.3670290    -0.1196300
  C        2.2297668    -1.4929456    -0.0397433
  C       -1.8406380     0.1093760    -0.1384300
  C        1.4719710     2.6442150     0.1686120
  H       -1.1182000    -2.4830940    -0.1949200
  H        2.8227340     0.5195950     0.1104450
  H        1.1860280    -3.4416730    -0.1864270
  H        3.1441970    -1.9102760    -0.0447980
  H        2.0722720     2.5548100    -0.7428660
  H        2.1083110     2.4835370     1.0460470
  H        1.0258210     3.6366650     0.2171830
  H       -2.3391320    -0.8271260     1.6334900
  H       -3.6232280    -0.0028870     0.8299490
units angstrom
no_reorient  #important for SAPT in psi4, default
symmetry c1  #important for SAPT in psi4, default
}

set PROPERTIES_ORIGIN ["COM"]
properties('MP2/aug-cc-pvtz', properties = ['dipole'])
--------------------------------------------------------------------------

    Molecular point group: c1
  Charge       = 0
  Multiplicity = 1
  Basis Set: AUG-CC-PVTZ
    Blend: AUG-CC-PVTZ
  Basis Set: (AUG-CC-PVTZ AUX)
    Blend: AUG-CC-PVTZ-JKFIT

    Orbital Energies [Eh]
    ---------------------

    Doubly Occupied:

       1A    -20.590948     2A    -20.517580     3A    -15.582901
       4A    -11.355054     5A    -11.318349     6A    -11.287617
       7A    -11.257806     8A    -11.254305     9A    -11.248710
      10A    -11.247198    11A    -11.245879    12A     -1.414306
      13A     -1.369778    14A     -1.207888    15A     -1.150827
      16A     -1.042605    17A     -1.020379    18A     -0.946975
      19A     -0.883534    20A     -0.820539    21A     -0.791124
      22A     -0.735549    23A     -0.716487    24A     -0.682745
      25A     -0.665107    26A     -0.657073    27A     -0.640307
      28A     -0.623230    29A     -0.603670    30A     -0.578414
      31A     -0.556477    32A     -0.553649    33A     -0.527803
      34A     -0.515092    35A     -0.495310    36A     -0.470955
      37A     -0.424529    38A     -0.411619    39A     -0.354783
      40A     -0.315853

  @DF-RHF Final Energy:  -512.53126826544349

   => Energetics <=

    Nuclear Repulsion Energy =            591.0991079529169383
    One-Electron Energy =               -1871.0948414651763869
    Two-Electron Energy =                 767.4644652468159620
    Total Energy =                       -512.5312682654434866
  Basis Set: (AUG-CC-PVTZ AUX)
    Blend: AUG-CC-PVTZ-RI
    Molecular point group: c1

    Geometry (in Angstrom), charge = 0, multiplicity = 1:

       Center              X                  Y                   Z               Mass
    ------------   -----------------  -----------------  -----------------  -----------------
         O            0.397359025195     1.742961573905     0.168064784913    15.994914619570
         O           -2.167594974805     0.919699573905    -0.975040215087    15.994914619570
         N           -2.683887974805    -0.438931426095     0.793297784913    14.003074004430
         C           -0.424047974805    -0.448285426095    -0.034278215087    12.000000000000
         C            0.687017025195     0.413170573905     0.051413784913    12.000000000000
         C           -0.223710974805    -1.829017426095    -0.101008215087    12.000000000000
         C            1.979721025195    -0.121901426095     0.057332784913    12.000000000000
         C            1.066557025195    -2.364704426095    -0.102481215087    12.000000000000
         C            2.256784825195    -1.490621026095    -0.022594515087    12.000000000000
         C           -1.813619974805     0.111700573905    -0.121281215087    12.000000000000
         C            1.498989025195     2.646539573905     0.185760784913    12.000000000000
         H           -1.091181974805    -2.480769426095    -0.177771215087     1.007825032230
         H            2.849752025195     0.521919573905     0.127593784913     1.007825032230
         H            1.213046025195    -3.439348426095    -0.169278215087     1.007825032230
         H            3.171215025195    -1.907951426095    -0.027649215087     1.007825032230
         H            2.099290025195     2.557134573905    -0.725717215087     1.007825032230
         H            2.135329025195     2.485861573905     1.063195784913     1.007825032230
         H            1.052839025195     3.638989573905     0.234331784913     1.007825032230
         H           -2.312113974805    -0.824801426095     1.650638784913     1.007825032230
         H           -3.596209974805    -0.000562426095     0.847097784913     1.007825032230

  Basis Set: AUG-CC-PVTZ
    Blend: AUG-CC-PVTZ
  Basis Set: (AUG-CC-PVTZ AUX)
    Blend: AUG-CC-PVTZ-JKFIT
	 Reference Energy          =    -512.5312682654434866 [Eh]
	 Singles Energy            =      -0.0000000000000000 [Eh]
	 Same-Spin Energy          =      -0.5360534034966469 [Eh]
	 Opposite-Spin Energy      =      -1.6467162501883341 [Eh]
	 Correlation Energy        =      -2.1827696536849812 [Eh]
	 Total Energy              =    -514.7140379191284865 [Eh]

	 ================> DF-SCS-MP2 Energies <==================
	-----------------------------------------------------------
	 SCS Same-Spin Scale       =       0.3333333333333333 [-]
	 SCS Opposite-Spin Scale   =       1.2000000000000000 [-]
	 SCS Same-Spin Energy      =      -0.1786844678322156 [Eh]
	 SCS Opposite-Spin Energy  =      -1.9760595002260009 [Eh]
	 SCS Correlation Energy    =      -2.1547439680582166 [Eh]
	 SCS Total Energy          =    -514.6860122335017422 [Eh]
	-----------------------------------------------------------

  Dipole Moment: [D]
     X:     2.0274      Y:    -0.9092      Z:     2.8995     Total:     3.6529

*** Psi4 exiting successfully. Buy a developer a beer!
