                               Psi4 1.4a3.dev225

  ==> Input File <==

--------------------------------------------------------------------------
#psi4
#
memory 32 gb

molecule  {
0 1
  O        0.3703410     1.7406370     0.1509160
  O       -2.1946130     0.9173750    -0.9921890
  N       -2.7794437    -0.3842122     0.7402232
  C       -0.4510660    -0.4506100    -0.0514270
  C        0.6599990     0.4108460     0.0342650
  C       -0.2507290    -1.8313420    -0.1181570
  C        1.9527030    -0.1242260     0.0401840
  C        1.0395390    -2.3670290    -0.1196300
  C        2.1335050    -1.5087060    -0.0439110
  C       -1.8406380     0.1093760    -0.1384300
  C        1.4719710     2.6442150     0.1686120
  H       -1.1182000    -2.4830940    -0.1949200
  H        2.8227340     0.5195950     0.1104450
  H        1.1860280    -3.4416730    -0.1864270
  H        3.1441970    -1.9102760    -0.0447980
  H        2.0722720     2.5548100    -0.7428660
  H        2.1083110     2.4835370     1.0460470
  H        1.0258210     3.6366650     0.2171830
  H       -2.3391320    -0.8271260     1.6334900
  H       -3.6232280    -0.0028870     0.8299490
units angstrom
no_reorient  #important for SAPT in psi4, default
symmetry c1  #important for SAPT in psi4, default
}

set PROPERTIES_ORIGIN ["COM"]
properties('MP2/aug-cc-pvtz', properties = ['dipole'])
--------------------------------------------------------------------------

    Molecular point group: c1
  Charge       = 0
  Multiplicity = 1
  Basis Set: AUG-CC-PVTZ
    Blend: AUG-CC-PVTZ
  Basis Set: (AUG-CC-PVTZ AUX)
    Blend: AUG-CC-PVTZ-JKFIT

    Orbital Energies [Eh]
    ---------------------

    Doubly Occupied:

       1A    -20.591335     2A    -20.512345     3A    -15.579504
       4A    -11.353788     5A    -11.319612     6A    -11.288272
       7A    -11.257469     8A    -11.255831     9A    -11.251868
      10A    -11.244186    11A    -11.239857    12A     -1.414860
      13A     -1.369020    14A     -1.203299    15A     -1.160225
      16A     -1.045557    17A     -1.026246    18A     -0.950721
      19A     -0.881614    20A     -0.826969    21A     -0.795145
      22A     -0.727964    23A     -0.700304    24A     -0.688274
      25A     -0.673256    26A     -0.658550    27A     -0.640278
      28A     -0.622950    29A     -0.594712    30A     -0.580514
      31A     -0.558816    32A     -0.543797    33A     -0.531693
      34A     -0.519698    35A     -0.501109    36A     -0.476822
      37A     -0.421424    38A     -0.407568    39A     -0.354034
      40A     -0.324366

  @DF-RHF Final Energy:  -512.53237908217784

   => Energetics <=

    Nuclear Repulsion Energy =            592.1933106143933401
    One-Electron Energy =               -1873.2636785179356593
    Two-Electron Energy =                 768.5379888213644790
    Total Energy =                       -512.5323790821778402
  Basis Set: (AUG-CC-PVTZ AUX)
    Blend: AUG-CC-PVTZ-RI
    Molecular point group: c1

    Geometry (in Angstrom), charge = 0, multiplicity = 1:

       Center              X                  Y                   Z               Mass
    ------------   -----------------  -----------------  -----------------  -----------------
         O            0.411358982072     1.738925758205     0.171726057582    15.994914619570
         O           -2.153595017928     0.915663758205    -0.971378942418    15.994914619570
         N           -2.738425717928    -0.385923441795     0.761033257582    14.003074004430
         C           -0.410048017928    -0.452321241795    -0.030616942418    12.000000000000
         C            0.701016982072     0.409134758205     0.055075057582    12.000000000000
         C           -0.209711017928    -1.833053241795    -0.097346942418    12.000000000000
         C            1.993720982072    -0.125937241795     0.060994057582    12.000000000000
         C            1.080556982072    -2.368740241795    -0.098819942418    12.000000000000
         C            2.174522982072    -1.510417241795    -0.023100942418    12.000000000000
         C           -1.799620017928     0.107664758205    -0.117619942418    12.000000000000
         C            1.512988982072     2.642503758205     0.189422057582    12.000000000000
         H           -1.077182017928    -2.484805241795    -0.174109942418     1.007825032230
         H            2.863751982072     0.517883758205     0.131255057582     1.007825032230
         H            1.227045982072    -3.443384241795    -0.165616942418     1.007825032230
         H            3.185214982072    -1.911987241795    -0.023987942418     1.007825032230
         H            2.113289982072     2.553098758205    -0.722055942418     1.007825032230
         H            2.149328982072     2.481825758205     1.066857057582     1.007825032230
         H            1.066838982072     3.634953758205     0.237993057582     1.007825032230
         H           -2.298114017928    -0.828837241795     1.654300057582     1.007825032230
         H           -3.582210017928    -0.004598241795     0.850759057582     1.007825032230

  Basis Set: AUG-CC-PVTZ
    Blend: AUG-CC-PVTZ
  Basis Set: (AUG-CC-PVTZ AUX)
    Blend: AUG-CC-PVTZ-JKFIT
	 Reference Energy          =    -512.5323790821778402 [Eh]
	 Singles Energy            =      -0.0000000000000000 [Eh]
	 Same-Spin Energy          =      -0.5354390601540934 [Eh]
	 Opposite-Spin Energy      =      -1.6452221972486814 [Eh]
	 Correlation Energy        =      -2.1806612574027748 [Eh]
	 Total Energy              =    -514.7130403395806297 [Eh]

	 ================> DF-SCS-MP2 Energies <==================
	-----------------------------------------------------------
	 SCS Same-Spin Scale       =       0.3333333333333333 [-]
	 SCS Opposite-Spin Scale   =       1.2000000000000000 [-]
	 SCS Same-Spin Energy      =      -0.1784796867180311 [Eh]
	 SCS Opposite-Spin Energy  =      -1.9742666366984176 [Eh]
	 SCS Correlation Energy    =      -2.1527463234164488 [Eh]
	 SCS Total Energy          =    -514.6851254055942491 [Eh]
	-----------------------------------------------------------

  Dipole Moment: [D]
     X:     2.1797      Y:    -0.9907      Z:     2.8995     Total:     3.7603

*** Psi4 exiting successfully. Buy a developer a beer!
