                               Psi4 1.4a3.dev225

  ==> Input File <==

--------------------------------------------------------------------------
#psi4
#
memory 32 gb

molecule  {
0 1
  O        0.3703410     1.7406370     0.1509160
  O       -2.1946130     0.9173750    -0.9921890
  N       -2.7109060    -0.4412560     0.7761490
  C       -0.4510660    -0.4506100    -0.0514270
  C        0.6599990     0.4108460     0.0342650
  C       -0.2507290    -1.8313420    -0.1181570
  C        1.9527030    -0.1242260     0.0401840
  C        0.9471825    -2.3286849    -0.1195246
  C        2.1335050    -1.5087060    -0.0439110
  C       -1.8406380     0.1093760    -0.1384300
  C        1.4719710     2.6442150     0.1686120
  H       -1.1182000    -2.4830940    -0.1949200
  H        2.8227340     0.5195950     0.1104450
  H        1.1860280    -3.4416730    -0.1864270
  H        3.1441970    -1.9102760    -0.0447980
  H        2.0722720     2.5548100    -0.7428660
  H        2.1083110     2.4835370     1.0460470
  H        1.0258210     3.6366650     0.2171830
  H       -2.3391320    -0.8271260     1.6334900
  H       -3.6232280    -0.0028870     0.8299490
units angstrom
no_reorient  #important for SAPT in psi4, default
symmetry c1  #important for SAPT in psi4, default
}

set PROPERTIES_ORIGIN ["COM"]
properties('MP2/aug-cc-pvtz', properties = ['dipole'])
--------------------------------------------------------------------------

    Molecular point group: c1
  Charge       = 0
  Multiplicity = 1
  Basis Set: AUG-CC-PVTZ
    Blend: AUG-CC-PVTZ
  Basis Set: (AUG-CC-PVTZ AUX)
    Blend: AUG-CC-PVTZ-JKFIT

    Orbital Energies [Eh]
    ---------------------

    Doubly Occupied:

       1A    -20.589702     2A    -20.516103     3A    -15.581741
       4A    -11.353475     5A    -11.316759     6A    -11.287860
       7A    -11.260665     8A    -11.245473     9A    -11.245271
      10A    -11.241256    11A    -11.236665    12A     -1.413516
      13A     -1.368379    14A     -1.207101    15A     -1.164248
      16A     -1.041417    17A     -1.032550    18A     -0.947988
      19A     -0.881431    20A     -0.819394    21A     -0.787689
      22A     -0.735009    23A     -0.709018    24A     -0.681947
      25A     -0.665537    26A     -0.656628    27A     -0.638512
      28A     -0.622823    29A     -0.599868    30A     -0.582013
      31A     -0.559170    32A     -0.549459    33A     -0.530778
      34A     -0.508668    35A     -0.492033    36A     -0.479795
      37A     -0.423349    38A     -0.410687    39A     -0.358376
      40A     -0.320744

  @DF-RHF Final Energy:  -512.53142910703866

   => Energetics <=

    Nuclear Repulsion Energy =            593.9854869809672664
    One-Electron Energy =               -1876.9076402031241741
    Two-Electron Energy =                 770.3907241151181324
    Total Energy =                       -512.5314291070386616
  Basis Set: (AUG-CC-PVTZ AUX)
    Blend: AUG-CC-PVTZ-RI
    Molecular point group: c1

    Geometry (in Angstrom), charge = 0, multiplicity = 1:

       Center              X                  Y                   Z               Mass
    ------------   -----------------  -----------------  -----------------  -----------------
         O            0.412342275080     1.741167595163     0.168387481364    15.994914619570
         O           -2.152611724920     0.917905595163    -0.974717518636    15.994914619570
         N           -2.668904724920    -0.440725404837     0.793620481364    14.003074004430
         C           -0.409064724920    -0.450079404837    -0.033955518636    12.000000000000
         C            0.702000275080     0.411376595163     0.051736481364    12.000000000000
         C           -0.208727724920    -1.830811404837    -0.100685518636    12.000000000000
         C            1.994704275080    -0.123695404837     0.057655481364    12.000000000000
         C            0.989183775080    -2.328154304837    -0.102053118636    12.000000000000
         C            2.175506275080    -1.508175404837    -0.026439518636    12.000000000000
         C           -1.798636724920     0.109906595163    -0.120958518636    12.000000000000
         C            1.513972275080     2.644745595163     0.186083481364    12.000000000000
         H           -1.076198724920    -2.482563404837    -0.177448518636     1.007825032230
         H            2.864735275080     0.520125595163     0.127916481364     1.007825032230
         H            1.228029275080    -3.441142404837    -0.168955518636     1.007825032230
         H            3.186198275080    -1.909745404837    -0.027326518636     1.007825032230
         H            2.114273275080     2.555340595163    -0.725394518636     1.007825032230
         H            2.150312275080     2.484067595163     1.063518481364     1.007825032230
         H            1.067822275080     3.637195595163     0.234654481364     1.007825032230
         H           -2.297130724920    -0.826595404837     1.650961481364     1.007825032230
         H           -3.581226724920    -0.002356404837     0.847420481364     1.007825032230

  Basis Set: AUG-CC-PVTZ
    Blend: AUG-CC-PVTZ
  Basis Set: (AUG-CC-PVTZ AUX)
    Blend: AUG-CC-PVTZ-JKFIT
	 Reference Energy          =    -512.5314291070386616 [Eh]
	 Singles Energy            =      -0.0000000000000000 [Eh]
	 Same-Spin Energy          =      -0.5358986782055246 [Eh]
	 Opposite-Spin Energy      =      -1.6457738288960169 [Eh]
	 Correlation Energy        =      -2.1816725071015415 [Eh]
	 Total Energy              =    -514.7131016141402142 [Eh]

	 ================> DF-SCS-MP2 Energies <==================
	-----------------------------------------------------------
	 SCS Same-Spin Scale       =       0.3333333333333333 [-]
	 SCS Opposite-Spin Scale   =       1.2000000000000000 [-]
	 SCS Same-Spin Energy      =      -0.1786328927351749 [Eh]
	 SCS Opposite-Spin Energy  =      -1.9749285946752202 [Eh]
	 SCS Correlation Energy    =      -2.1535614874103950 [Eh]
	 SCS Total Energy          =    -514.6849905944490047 [Eh]
	-----------------------------------------------------------

  Dipole Moment: [D]
     X:     2.0797      Y:    -0.8979      Z:     2.9029     Total:     3.6822

*** Psi4 exiting successfully. Buy a developer a beer!
