                               Psi4 1.4a3.dev225

  ==> Input File <==

--------------------------------------------------------------------------
#psi4
#
memory 32 gb

molecule  {
0 1
  O        0.3703410     1.7406370     0.1509160
  O       -2.1946130     0.9173750    -0.9921890
  N       -2.7109060    -0.4412560     0.7761490
  C       -0.4510660    -0.4506100    -0.0514270
  C        0.6599990     0.4108460     0.0342650
  C       -0.2507290    -1.8313420    -0.1181570
  C        1.9527030    -0.1242260     0.0401840
  C        1.0395390    -2.3670290    -0.1196300
  C        2.1335050    -1.5087060    -0.0439110
  C       -1.8406380     0.1093760    -0.1384300
  C        1.4719710     2.6442150     0.1686120
  H       -1.1182000    -2.4830940    -0.1949200
  H        2.8227340     0.5195950     0.1104450
  H        1.1860280    -3.4416730    -0.1864270
  H        3.1441970    -1.9102760    -0.0447980
  H        2.0722720     2.5548100    -0.7428660
  H        2.1309204     2.3796103     1.0031227
  H        1.0258210     3.6366650     0.2171830
  H       -2.3391320    -0.8271260     1.6334900
  H       -3.6232280    -0.0028870     0.8299490
units angstrom
no_reorient  #important for SAPT in psi4, default
symmetry c1  #important for SAPT in psi4, default
}

set PROPERTIES_ORIGIN ["COM"]
properties('MP2/aug-cc-pvtz', properties = ['dipole'])
--------------------------------------------------------------------------

    Molecular point group: c1
  Charge       = 0
  Multiplicity = 1
  Basis Set: AUG-CC-PVTZ
    Blend: AUG-CC-PVTZ
  Basis Set: (AUG-CC-PVTZ AUX)
    Blend: AUG-CC-PVTZ-JKFIT

    Orbital Energies [Eh]
    ---------------------

    Doubly Occupied:

       1A    -20.589121     2A    -20.517365     3A    -15.582806
       4A    -11.355049     5A    -11.317449     6A    -11.287950
       7A    -11.255451     8A    -11.254274     9A    -11.248347
      10A    -11.242938    11A    -11.238518    12A     -1.413657
      13A     -1.369634    14A     -1.207873    15A     -1.157992
      16A     -1.043006    17A     -1.024679    18A     -0.949594
      19A     -0.877349    20A     -0.823843    21A     -0.789694
      22A     -0.736035    23A     -0.709186    24A     -0.682528
      25A     -0.664422    26A     -0.655842    27A     -0.640672
      28A     -0.624026    29A     -0.596581    30A     -0.583709
      31A     -0.557881    32A     -0.545187    33A     -0.529796
      34A     -0.517884    35A     -0.501192    36A     -0.474064
      37A     -0.424047    38A     -0.411609    39A     -0.352473
      40A     -0.322789

  @DF-RHF Final Energy:  -512.54397796617127

   => Energetics <=

    Nuclear Repulsion Energy =            592.8661576492147560
    One-Electron Energy =               -1874.6672547729699545
    Two-Electron Energy =                 769.2571191575839293
    Total Energy =                       -512.5439779661712691
  Basis Set: (AUG-CC-PVTZ AUX)
    Blend: AUG-CC-PVTZ-RI
    Molecular point group: c1

    Geometry (in Angstrom), charge = 0, multiplicity = 1:

       Center              X                  Y                   Z               Mass
    ------------   -----------------  -----------------  -----------------  -----------------
         O            0.404854923052     1.744906882092     0.168682225194    15.994914619570
         O           -2.160099076948     0.921644882092    -0.974422774806    15.994914619570
         N           -2.676392076948    -0.436986117908     0.793915225194    14.003074004430
         C           -0.416552076948    -0.446340117908    -0.033660774806    12.000000000000
         C            0.694512923052     0.415115882092     0.052031225194    12.000000000000
         C           -0.216215076948    -1.827072117908    -0.100390774806    12.000000000000
         C            1.987216923052    -0.119956117908     0.057950225194    12.000000000000
         C            1.074052923052    -2.362759117908    -0.101863774806    12.000000000000
         C            2.168018923052    -1.504436117908    -0.026144774806    12.000000000000
         C           -1.806124076948     0.113645882092    -0.120663774806    12.000000000000
         C            1.506484923052     2.648484882092     0.186378225194    12.000000000000
         H           -1.083686076948    -2.478824117908    -0.177153774806     1.007825032230
         H            2.857247923052     0.523864882092     0.128211225194     1.007825032230
         H            1.220541923052    -3.437403117908    -0.168660774806     1.007825032230
         H            3.178710923052    -1.906006117908    -0.027031774806     1.007825032230
         H            2.106785923052     2.559079882092    -0.725099774806     1.007825032230
         H            2.165434323052     2.383880182092     1.020888925194     1.007825032230
         H            1.060334923052     3.640934882092     0.234949225194     1.007825032230
         H           -2.304618076948    -0.822856117908     1.651256225194     1.007825032230
         H           -3.588714076948     0.001382882092     0.847715225194     1.007825032230

  Basis Set: AUG-CC-PVTZ
    Blend: AUG-CC-PVTZ
  Basis Set: (AUG-CC-PVTZ AUX)
    Blend: AUG-CC-PVTZ-JKFIT
	 Reference Energy          =    -512.5439779661712691 [Eh]
	 Singles Energy            =      -0.0000000000000000 [Eh]
	 Same-Spin Energy          =      -0.5358389368464397 [Eh]
	 Opposite-Spin Energy      =      -1.6454662282012638 [Eh]
	 Correlation Energy        =      -2.1813051650477036 [Eh]
	 Total Energy              =    -514.7252831312189301 [Eh]

	 ================> DF-SCS-MP2 Energies <==================
	-----------------------------------------------------------
	 SCS Same-Spin Scale       =       0.3333333333333333 [-]
	 SCS Opposite-Spin Scale   =       1.2000000000000000 [-]
	 SCS Same-Spin Energy      =      -0.1786129789488132 [Eh]
	 SCS Opposite-Spin Energy  =      -1.9745594738415164 [Eh]
	 SCS Correlation Energy    =      -2.1531724527903298 [Eh]
	 SCS Total Energy          =    -514.6971504189616553 [Eh]
	-----------------------------------------------------------

  Dipole Moment: [D]
     X:     1.9880      Y:    -0.9331      Z:     2.8712     Total:     3.6148

*** Psi4 exiting successfully. Buy a developer a beer!
