                               Psi4 1.4a3.dev225

  ==> Input File <==

--------------------------------------------------------------------------
#psi4
#
memory 32 gb

molecule  {
0 1
  O        0.3703410     1.7406370     0.1509160
  O       -2.1946130     0.9173750    -0.9921890
  N       -2.7109060    -0.4412560     0.7761490
  C       -0.4510660    -0.4506100    -0.0514270
  C        0.6599990     0.4108460     0.0342650
  C       -0.2507290    -1.8313420    -0.1181570
  C        1.9527030    -0.1242260     0.0401840
  C        1.0395390    -2.3670290    -0.1196300
  C        2.1335050    -1.5087060    -0.0439110
  C       -1.8406380     0.1093760    -0.1384300
  C        1.4719710     2.6442150     0.1686120
  H       -1.1182000    -2.4830940    -0.1949200
  H        2.8227340     0.5195950     0.1104450
  H        1.1860280    -3.4416730    -0.1864270
  H        3.2371302    -1.9472004    -0.0448796
  H        2.0722720     2.5548100    -0.7428660
  H        2.1083110     2.4835370     1.0460470
  H        1.0258210     3.6366650     0.2171830
  H       -2.3391320    -0.8271260     1.6334900
  H       -3.6232280    -0.0028870     0.8299490
units angstrom
no_reorient  #important for SAPT in psi4, default
symmetry c1  #important for SAPT in psi4, default
}

set PROPERTIES_ORIGIN ["COM"]
properties('MP2/aug-cc-pvtz', properties = ['dipole'])
--------------------------------------------------------------------------

    Molecular point group: c1
  Charge       = 0
  Multiplicity = 1
  Basis Set: AUG-CC-PVTZ
    Blend: AUG-CC-PVTZ
  Basis Set: (AUG-CC-PVTZ AUX)
    Blend: AUG-CC-PVTZ-JKFIT

    Orbital Energies [Eh]
    ---------------------

    Doubly Occupied:

       1A    -20.590846     2A    -20.517671     3A    -15.583063
       4A    -11.355340     5A    -11.318108     6A    -11.287929
       7A    -11.265288     8A    -11.256081     9A    -11.248692
      10A    -11.243720    11A    -11.239417    12A     -1.414356
      13A     -1.369940    14A     -1.208146    15A     -1.158024
      16A     -1.040978    17A     -1.025372    18A     -0.949731
      19A     -0.872938    20A     -0.824762    21A     -0.788441
      22A     -0.734954    23A     -0.704286    24A     -0.681220
      25A     -0.666168    26A     -0.657389    27A     -0.635942
      28A     -0.623340    29A     -0.591317    30A     -0.582698
      31A     -0.558621    32A     -0.538522    33A     -0.530614
      34A     -0.519308    35A     -0.497358    36A     -0.476345
      37A     -0.424276    38A     -0.411857    39A     -0.352886
      40A     -0.323364

  @DF-RHF Final Energy:  -512.53799226528315

   => Energetics <=

    Nuclear Repulsion Energy =            592.1603393018187944
    One-Electron Energy =               -1873.2580482766397836
    Two-Electron Energy =                 768.5597167095378381
    Total Energy =                       -512.5379922652831510
  Basis Set: (AUG-CC-PVTZ AUX)
    Blend: AUG-CC-PVTZ-RI
    Molecular point group: c1

    Geometry (in Angstrom), charge = 0, multiplicity = 1:

       Center              X                  Y                   Z               Mass
    ------------   -----------------  -----------------  -----------------  -----------------
         O            0.404385755011     1.744459873570     0.168396398410    15.994914619570
         O           -2.160568244989     0.921197873570    -0.974708601590    15.994914619570
         N           -2.676861244989    -0.437433126430     0.793629398410    14.003074004430
         C           -0.417021244989    -0.446787126430    -0.033946601590    12.000000000000
         C            0.694043755011     0.414668873570     0.051745398410    12.000000000000
         C           -0.216684244989    -1.827519126430    -0.100676601590    12.000000000000
         C            1.986747755011    -0.120403126430     0.057664398410    12.000000000000
         C            1.073583755011    -2.363206126430    -0.102149601590    12.000000000000
         C            2.167549755011    -1.504883126430    -0.026430601590    12.000000000000
         C           -1.806593244989     0.113198873570    -0.120949601590    12.000000000000
         C            1.506015755011     2.648037873570     0.186092398410    12.000000000000
         H           -1.084155244989    -2.479271126430    -0.177439601590     1.007825032230
         H            2.856778755011     0.523417873570     0.127925398410     1.007825032230
         H            1.220072755011    -3.437850126430    -0.168946601590     1.007825032230
         H            3.271174955011    -1.943377526430    -0.027399201590     1.007825032230
         H            2.106316755011     2.558632873570    -0.725385601590     1.007825032230
         H            2.142355755011     2.487359873570     1.063527398410     1.007825032230
         H            1.059865755011     3.640487873570     0.234663398410     1.007825032230
         H           -2.305087244989    -0.823303126430     1.650970398410     1.007825032230
         H           -3.589183244989     0.000935873570     0.847429398410     1.007825032230

  Basis Set: AUG-CC-PVTZ
    Blend: AUG-CC-PVTZ
  Basis Set: (AUG-CC-PVTZ AUX)
    Blend: AUG-CC-PVTZ-JKFIT
	 Reference Energy          =    -512.5379922652831510 [Eh]
	 Singles Energy            =      -0.0000000000000000 [Eh]
	 Same-Spin Energy          =      -0.5359265344080524 [Eh]
	 Opposite-Spin Energy      =      -1.6462368529263778 [Eh]
	 Correlation Energy        =      -2.1821633873344304 [Eh]
	 Total Energy              =    -514.7201556526175636 [Eh]

	 ================> DF-SCS-MP2 Energies <==================
	-----------------------------------------------------------
	 SCS Same-Spin Scale       =       0.3333333333333333 [-]
	 SCS Opposite-Spin Scale   =       1.2000000000000000 [-]
	 SCS Same-Spin Energy      =      -0.1786421781360175 [Eh]
	 SCS Opposite-Spin Energy  =      -1.9754842235116532 [Eh]
	 SCS Correlation Energy    =      -2.1541264016476704 [Eh]
	 SCS Total Energy          =    -514.6921186669308099 [Eh]
	-----------------------------------------------------------

  Dipole Moment: [D]
     X:     1.9541      Y:    -0.8912      Z:     2.8999     Total:     3.6086

*** Psi4 exiting successfully. Buy a developer a beer!
