                               Psi4 1.4a3.dev225

  ==> Input File <==

--------------------------------------------------------------------------
#psi4
#
memory 32 gb

molecule  {
0 1
  O        0.3703410     1.7406370     0.1509160
  O       -2.1946130     0.9173750    -0.9921890
  N       -2.7109060    -0.4412560     0.7761490
  C       -0.4510660    -0.4506100    -0.0514270
  C        0.6599990     0.4108460     0.0342650
  C       -0.2507290    -1.8313420    -0.1181570
  C        1.9527030    -0.1242260     0.0401840
  C        1.0395390    -2.3670290    -0.1196300
  C        2.1360902    -1.5285017    -0.0451134
  C       -1.8406380     0.1093760    -0.1384300
  C        1.4719710     2.6442150     0.1686120
  H       -1.1182000    -2.4830940    -0.1949200
  H        2.8227340     0.5195950     0.1104450
  H        1.1860280    -3.4416730    -0.1864270
  H        3.1441970    -1.9102760    -0.0447980
  H        2.0722720     2.5548100    -0.7428660
  H        2.1083110     2.4835370     1.0460470
  H        1.0258210     3.6366650     0.2171830
  H       -2.3391320    -0.8271260     1.6334900
  H       -3.6232280    -0.0028870     0.8299490
units angstrom
no_reorient  #important for SAPT in psi4, default
symmetry c1  #important for SAPT in psi4, default
}

set PROPERTIES_ORIGIN ["COM"]
properties('MP2/aug-cc-pvtz', properties = ['dipole'])
--------------------------------------------------------------------------

    Molecular point group: c1
  Charge       = 0
  Multiplicity = 1
  Basis Set: AUG-CC-PVTZ
    Blend: AUG-CC-PVTZ
  Basis Set: (AUG-CC-PVTZ AUX)
    Blend: AUG-CC-PVTZ-JKFIT

    Orbital Energies [Eh]
    ---------------------

    Doubly Occupied:

       1A    -20.590025     2A    -20.517634     3A    -15.583007
       4A    -11.355312     5A    -11.316967     6A    -11.287386
       7A    -11.255774     8A    -11.254199     9A    -11.249064
      10A    -11.244027    11A    -11.237838    12A     -1.413587
      13A     -1.369884    14A     -1.208062    15A     -1.157066
      16A     -1.042375    17A     -1.023973    18A     -0.949571
      19A     -0.878204    20A     -0.823760    21A     -0.789121
      22A     -0.735477    23A     -0.709569    24A     -0.681476
      25A     -0.665529    26A     -0.656784    27A     -0.640333
      28A     -0.623449    29A     -0.597868    30A     -0.581422
      31A     -0.558493    32A     -0.543249    33A     -0.529801
      34A     -0.517234    35A     -0.501828    36A     -0.475604
      37A     -0.424342    38A     -0.411795    39A     -0.350058
      40A     -0.324346

  @DF-RHF Final Energy:  -512.54482131922384

   => Energetics <=

    Nuclear Repulsion Energy =            592.4212123869912148
    One-Electron Energy =               -1873.7810818167624802
    Two-Electron Energy =                 768.8150481105473091
    Total Energy =                       -512.5448213192238427
  Basis Set: (AUG-CC-PVTZ AUX)
    Blend: AUG-CC-PVTZ-RI
    Molecular point group: c1

    Geometry (in Angstrom), charge = 0, multiplicity = 1:

       Center              X                  Y                   Z               Mass
    ------------   -----------------  -----------------  -----------------  -----------------
         O            0.404800402337     1.745786039671     0.168491368920    15.994914619570
         O           -2.160153597663     0.922524039671    -0.974613631080    15.994914619570
         N           -2.676446597663    -0.436106960329     0.793724368920    14.003074004430
         C           -0.416606597663    -0.445460960329    -0.033851631080    12.000000000000
         C            0.694458402337     0.415995039671     0.051840368920    12.000000000000
         C           -0.216269597663    -1.826192960329    -0.100581631080    12.000000000000
         C            1.987162402337    -0.119076960329     0.057759368920    12.000000000000
         C            1.073998402337    -2.361879960329    -0.102054631080    12.000000000000
         C            2.170549602337    -1.523352660329    -0.027538031080    12.000000000000
         C           -1.806178597663     0.114525039671    -0.120854631080    12.000000000000
         C            1.506430402337     2.649364039671     0.186187368920    12.000000000000
         H           -1.083740597663    -2.477944960329    -0.177344631080     1.007825032230
         H            2.857193402337     0.524744039671     0.128020368920     1.007825032230
         H            1.220487402337    -3.436523960329    -0.168851631080     1.007825032230
         H            3.178656402337    -1.905126960329    -0.027222631080     1.007825032230
         H            2.106731402337     2.559959039671    -0.725290631080     1.007825032230
         H            2.142770402337     2.488686039671     1.063622368920     1.007825032230
         H            1.060280402337     3.641814039671     0.234758368920     1.007825032230
         H           -2.304672597663    -0.821976960329     1.651065368920     1.007825032230
         H           -3.588768597663     0.002262039671     0.847524368920     1.007825032230

  Basis Set: AUG-CC-PVTZ
    Blend: AUG-CC-PVTZ
  Basis Set: (AUG-CC-PVTZ AUX)
    Blend: AUG-CC-PVTZ-JKFIT
	 Reference Energy          =    -512.5448213192238427 [Eh]
	 Singles Energy            =      -0.0000000000000000 [Eh]
	 Same-Spin Energy          =      -0.5356716772192049 [Eh]
	 Opposite-Spin Energy      =      -1.6453816742497012 [Eh]
	 Correlation Energy        =      -2.1810533514689059 [Eh]
	 Total Energy              =    -514.7258746706927468 [Eh]

	 ================> DF-SCS-MP2 Energies <==================
	-----------------------------------------------------------
	 SCS Same-Spin Scale       =       0.3333333333333333 [-]
	 SCS Opposite-Spin Scale   =       1.2000000000000000 [-]
	 SCS Same-Spin Energy      =      -0.1785572257397350 [Eh]
	 SCS Opposite-Spin Energy  =      -1.9744580090996413 [Eh]
	 SCS Correlation Energy    =      -2.1530152348393763 [Eh]
	 SCS Total Energy          =    -514.6978365540632012 [Eh]
	-----------------------------------------------------------

  Dipole Moment: [D]
     X:     1.9877      Y:    -0.9247      Z:     2.8986     Total:     3.6342

*** Psi4 exiting successfully. Buy a developer a beer!
