                               Psi4 1.4a3.dev225

  ==> Input File <==

--------------------------------------------------------------------------
#psi4
#
memory 32 gb

molecule  {
0 1
  O        0.3703410     1.7406370     0.1509160
  O       -2.1946130     0.9173750    -0.9921890
  N       -2.7109060    -0.4412560     0.7761490
  C       -0.4510660    -0.4506100    -0.0514270
  C        0.6599990     0.4108460     0.0342650
  C       -0.2507290    -1.8313420    -0.1181570
  C        1.9527030    -0.1242260     0.0401840
  C        1.0395390    -2.3670290    -0.1196300
  C        2.1335050    -1.5087060    -0.0439110
  C       -1.8406380     0.1093760    -0.1384300
  C        1.4719710     2.6442150     0.1686120
  H       -1.1182000    -2.4830940    -0.1949200
  H        2.8227340     0.5195950     0.1104450
  H        1.1860280    -3.4416730    -0.1864270
  H        3.1441970    -1.9102760    -0.0447980
  H        2.0722720     2.5548100    -0.7428660
  H        2.1083110     2.4835370     1.0460470
  H        1.0258210     3.6366650     0.2171830
  H       -2.3391320    -0.8271260     1.6334900
  H       -3.6412295     0.0057627     0.8310106
units angstrom
no_reorient  #important for SAPT in psi4, default
symmetry c1  #important for SAPT in psi4, default
}

set PROPERTIES_ORIGIN ["COM"]
properties('MP2/aug-cc-pvtz', properties = ['dipole'])
--------------------------------------------------------------------------

    Molecular point group: c1
  Charge       = 0
  Multiplicity = 1
  Basis Set: AUG-CC-PVTZ
    Blend: AUG-CC-PVTZ
  Basis Set: (AUG-CC-PVTZ AUX)
    Blend: AUG-CC-PVTZ-JKFIT

    Orbital Energies [Eh]
    ---------------------

    Doubly Occupied:

       1A    -20.590318     2A    -20.517183     3A    -15.584523
       4A    -11.354930     5A    -11.317386     6A    -11.287634
       7A    -11.255303     8A    -11.254070     9A    -11.248297
      10A    -11.242682    11A    -11.238369    12A     -1.413860
      13A     -1.369298    14A     -1.205644    15A     -1.157647
      16A     -1.042538    17A     -1.024633    18A     -0.949404
      19A     -0.876414    20A     -0.824066    21A     -0.788384
      22A     -0.735024    23A     -0.707460    24A     -0.680968
      25A     -0.664389    26A     -0.656811    27A     -0.639122
      28A     -0.623438    29A     -0.596050    30A     -0.582001
      31A     -0.557938    32A     -0.543566    33A     -0.530171
      34A     -0.518632    35A     -0.500379    36A     -0.475737
      37A     -0.423926    38A     -0.411232    39A     -0.352261
      40A     -0.322745

  @DF-RHF Final Energy:  -512.54435737739550

   => Energetics <=

    Nuclear Repulsion Energy =            592.5463717800723771
    One-Electron Energy =               -1874.0525886237492159
    Two-Electron Energy =                 768.9618594662813393
    Total Energy =                       -512.5443573773954995
  Basis Set: (AUG-CC-PVTZ AUX)
    Blend: AUG-CC-PVTZ-RI
    Molecular point group: c1

    Geometry (in Angstrom), charge = 0, multiplicity = 1:

       Center              X                  Y                   Z               Mass
    ------------   -----------------  -----------------  -----------------  -----------------
         O            0.405125860294     1.744155824141     0.168388771505    15.994914619570
         O           -2.159828139706     0.920893824141    -0.974716228495    15.994914619570
         N           -2.676121139706    -0.437737175859     0.793621771505    14.003074004430
         C           -0.416281139706    -0.447091175859    -0.033954228495    12.000000000000
         C            0.694783860294     0.414364824141     0.051737771505    12.000000000000
         C           -0.215944139706    -1.827823175859    -0.100684228495    12.000000000000
         C            1.987487860294    -0.120707175859     0.057656771505    12.000000000000
         C            1.074323860294    -2.363510175859    -0.102157228495    12.000000000000
         C            2.168289860294    -1.505187175859    -0.026438228495    12.000000000000
         C           -1.805853139706     0.112894824141    -0.120957228495    12.000000000000
         C            1.506755860294     2.647733824141     0.186084771505    12.000000000000
         H           -1.083415139706    -2.479575175859    -0.177447228495     1.007825032230
         H            2.857518860294     0.523113824141     0.127917771505     1.007825032230
         H            1.220812860294    -3.438154175859    -0.168954228495     1.007825032230
         H            3.178981860294    -1.906757175859    -0.027325228495     1.007825032230
         H            2.107056860294     2.558328824141    -0.725393228495     1.007825032230
         H            2.143095860294     2.487055824141     1.063519771505     1.007825032230
         H            1.060605860294     3.640183824141     0.234655771505     1.007825032230
         H           -2.304347139706    -0.823607175859     1.650962771505     1.007825032230
         H           -3.606444639706     0.009281524141     0.848483371505     1.007825032230

  Basis Set: AUG-CC-PVTZ
    Blend: AUG-CC-PVTZ
  Basis Set: (AUG-CC-PVTZ AUX)
    Blend: AUG-CC-PVTZ-JKFIT
	 Reference Energy          =    -512.5443573773954995 [Eh]
	 Singles Energy            =      -0.0000000000000000 [Eh]
	 Same-Spin Energy          =      -0.5358403972985111 [Eh]
	 Opposite-Spin Energy      =      -1.6456255251812788 [Eh]
	 Correlation Energy        =      -2.1814659224797897 [Eh]
	 Total Energy              =    -514.7258232998752874 [Eh]

	 ================> DF-SCS-MP2 Energies <==================
	-----------------------------------------------------------
	 SCS Same-Spin Scale       =       0.3333333333333333 [-]
	 SCS Opposite-Spin Scale   =       1.2000000000000000 [-]
	 SCS Same-Spin Energy      =      -0.1786134657661703 [Eh]
	 SCS Opposite-Spin Energy  =      -1.9747506302175344 [Eh]
	 SCS Correlation Energy    =      -2.1533640959837048 [Eh]
	 SCS Total Energy          =    -514.6977214733792607 [Eh]
	-----------------------------------------------------------

  Dipole Moment: [D]
     X:     1.9803      Y:    -0.9076      Z:     2.9006     Total:     3.6275

*** Psi4 exiting successfully. Buy a developer a beer!
