                               Psi4 1.4a3.dev225

  ==> Input File <==

--------------------------------------------------------------------------
#psi4
#
memory 32 gb

molecule  {
0 1
  O        0.3703410     1.7406370     0.1509160
  O       -2.1946130     0.9173750    -0.9921890
  N       -2.7109060    -0.4412560     0.7761490
  C       -0.4510660    -0.4506100    -0.0514270
  C        0.6599990     0.4108460     0.0342650
  C       -0.2507290    -1.8313420    -0.1181570
  C        1.9527030    -0.1242260     0.0401840
  C        1.0395390    -2.3670290    -0.1196300
  C        2.1335050    -1.5087060    -0.0439110
  C       -1.8406380     0.1093760    -0.1384300
  C        1.4719710     2.6442150     0.1686120
  H       -1.1182000    -2.4830940    -0.1949200
  H        2.8227340     0.5195950     0.1104450
  H        1.1860280    -3.4416730    -0.1864270
  H        3.1441970    -1.9102760    -0.0447980
  H        2.0722720     2.5548100    -0.7428660
  H        2.1083110     2.4835370     1.0460470
  H        1.0258210     3.6366650     0.2171830
  H       -2.3391320    -0.8271260     1.6334900
  H       -3.5332203    -0.0461355     0.8246412
units angstrom
no_reorient  #important for SAPT in psi4, default
symmetry c1  #important for SAPT in psi4, default
}

set PROPERTIES_ORIGIN ["COM"]
properties('MP2/aug-cc-pvtz', properties = ['dipole'])
--------------------------------------------------------------------------

    Molecular point group: c1
  Charge       = 0
  Multiplicity = 1
  Basis Set: AUG-CC-PVTZ
    Blend: AUG-CC-PVTZ
  Basis Set: (AUG-CC-PVTZ AUX)
    Blend: AUG-CC-PVTZ-JKFIT

    Orbital Energies [Eh]
    ---------------------

    Doubly Occupied:

       1A    -20.590580     2A    -20.518510     3A    -15.573288
       4A    -11.355692     5A    -11.317580     6A    -11.287844
       7A    -11.255599     8A    -11.254298     9A    -11.248246
      10A    -11.242907    11A    -11.238648    12A     -1.414156
      13A     -1.371784    14A     -1.221740    15A     -1.159025
      16A     -1.044381    17A     -1.024923    18A     -0.950116
      19A     -0.882189    20A     -0.825922    21A     -0.794735
      22A     -0.739269    23A     -0.717708    24A     -0.686132
      25A     -0.670807    26A     -0.657853    27A     -0.640157
      28A     -0.623920    29A     -0.598680    30A     -0.582965
      31A     -0.559931    32A     -0.544126    33A     -0.530639
      34A     -0.519161    35A     -0.500750    36A     -0.476058
      37A     -0.425044    38A     -0.413649    39A     -0.352608
      40A     -0.323018

  @DF-RHF Final Energy:  -512.53863024757345

   => Energetics <=

    Nuclear Repulsion Energy =            593.2870495371344077
    One-Electron Energy =               -1875.3820833529134688
    Two-Electron Energy =                 769.5564035682056101
    Total Energy =                       -512.5386302475734510
  Basis Set: (AUG-CC-PVTZ AUX)
    Blend: AUG-CC-PVTZ-RI
    Molecular point group: c1

    Geometry (in Angstrom), charge = 0, multiplicity = 1:

       Center              X                  Y                   Z               Mass
    ------------   -----------------  -----------------  -----------------  -----------------
         O            0.404405272601     1.744502065056     0.168431265212    15.994914619570
         O           -2.160548727399     0.921240065056    -0.974673734788    15.994914619570
         N           -2.676841727399    -0.437390934944     0.793664265212    14.003074004430
         C           -0.417001727399    -0.446744934944    -0.033911734788    12.000000000000
         C            0.694063272601     0.414711065056     0.051780265212    12.000000000000
         C           -0.216664727399    -1.827476934944    -0.100641734788    12.000000000000
         C            1.986767272601    -0.120360934944     0.057699265212    12.000000000000
         C            1.073603272601    -2.363163934944    -0.102114734788    12.000000000000
         C            2.167569272601    -1.504840934944    -0.026395734788    12.000000000000
         C           -1.806573727399     0.113241065056    -0.120914734788    12.000000000000
         C            1.506035272601     2.648080065056     0.186127265212    12.000000000000
         H           -1.084135727399    -2.479228934944    -0.177404734788     1.007825032230
         H            2.856798272601     0.523460065056     0.127960265212     1.007825032230
         H            1.220092272601    -3.437807934944    -0.168911734788     1.007825032230
         H            3.178261272601    -1.906410934944    -0.027282734788     1.007825032230
         H            2.106336272601     2.558675065056    -0.725350734788     1.007825032230
         H            2.142375272601     2.487402065056     1.063562265212     1.007825032230
         H            1.059885272601     3.640530065056     0.234698265212     1.007825032230
         H           -2.305067727399    -0.823260934944     1.651005265212     1.007825032230
         H           -3.499156027399    -0.042270434944     0.842156465212     1.007825032230

  Basis Set: AUG-CC-PVTZ
    Blend: AUG-CC-PVTZ
  Basis Set: (AUG-CC-PVTZ AUX)
    Blend: AUG-CC-PVTZ-JKFIT
	 Reference Energy          =    -512.5386302475734510 [Eh]
	 Singles Energy            =      -0.0000000000000000 [Eh]
	 Same-Spin Energy          =      -0.5350885362549274 [Eh]
	 Opposite-Spin Energy      =      -1.6438365456002233 [Eh]
	 Correlation Energy        =      -2.1789250818551507 [Eh]
	 Total Energy              =    -514.7175553294285919 [Eh]

	 ================> DF-SCS-MP2 Energies <==================
	-----------------------------------------------------------
	 SCS Same-Spin Scale       =       0.3333333333333333 [-]
	 SCS Opposite-Spin Scale   =       1.2000000000000000 [-]
	 SCS Same-Spin Energy      =      -0.1783628454183091 [Eh]
	 SCS Opposite-Spin Energy  =      -1.9726038547202678 [Eh]
	 SCS Correlation Energy    =      -2.1509667001385768 [Eh]
	 SCS Total Energy          =    -514.6895969477120616 [Eh]
	-----------------------------------------------------------

  Dipole Moment: [D]
     X:     2.0839      Y:    -0.9443      Z:     2.8922     Total:     3.6877

*** Psi4 exiting successfully. Buy a developer a beer!
