                               Psi4 1.4a3.dev225

  ==> Input File <==

--------------------------------------------------------------------------
#psi4
#
memory 32 gb

molecule  {
0 1
  O        0.3703410     1.7406370     0.1509160
  O       -2.1946130     0.9173750    -0.9921890
  N       -2.7109060    -0.4412560     0.7761490
  C       -0.4510660    -0.4506100    -0.0514270
  C        0.6599990     0.4108460     0.0342650
  C       -0.2507290    -1.8313420    -0.1181570
  C        1.9527030    -0.1242260     0.0401840
  C        1.0395390    -2.3670290    -0.1196300
  C        2.1335050    -1.5087060    -0.0439110
  C       -1.8406380     0.1093760    -0.1384300
  C        1.4719710     2.6442150     0.1686120
  H       -1.1182000    -2.4830940    -0.1949200
  H        2.8227340     0.5195950     0.1104450
  H        1.1995089    -3.5405693    -0.1925741
  H        3.1441970    -1.9102760    -0.0447980
  H        2.0722720     2.5548100    -0.7428660
  H        2.1083110     2.4835370     1.0460470
  H        1.0258210     3.6366650     0.2171830
  H       -2.3391320    -0.8271260     1.6334900
  H       -3.6232280    -0.0028870     0.8299490
units angstrom
no_reorient  #important for SAPT in psi4, default
symmetry c1  #important for SAPT in psi4, default
}

set PROPERTIES_ORIGIN ["COM"]
properties('MP2/aug-cc-pvtz', properties = ['dipole'])
--------------------------------------------------------------------------

    Molecular point group: c1
  Charge       = 0
  Multiplicity = 1
  Basis Set: AUG-CC-PVTZ
    Blend: AUG-CC-PVTZ
  Basis Set: (AUG-CC-PVTZ AUX)
    Blend: AUG-CC-PVTZ-JKFIT

    Orbital Energies [Eh]
    ---------------------

    Doubly Occupied:

       1A    -20.590684     2A    -20.517772     3A    -15.583097
       4A    -11.355491     5A    -11.317842     6A    -11.287943
       7A    -11.256410     8A    -11.255167     9A    -11.249597
      10A    -11.249005    11A    -11.243460    12A     -1.414246
      13A     -1.370023    14A     -1.208193    15A     -1.158088
      16A     -1.043034    17A     -1.023238    18A     -0.948601
      19A     -0.877745    20A     -0.823206    21A     -0.785677
      22A     -0.734323    23A     -0.709090    24A     -0.680474
      25A     -0.664609    26A     -0.656516    27A     -0.633286
      28A     -0.623566    29A     -0.597099    30A     -0.582559
      31A     -0.558268    32A     -0.539401    33A     -0.530389
      34A     -0.512679    35A     -0.500762    36A     -0.476372
      37A     -0.424334    38A     -0.411932    39A     -0.352968
      40A     -0.323309

  @DF-RHF Final Energy:  -512.53797442679229

   => Energetics <=

    Nuclear Repulsion Energy =            592.1606785817128866
    One-Electron Energy =               -1873.2563975235141243
    Two-Electron Energy =                 768.5577445150090625
    Total Energy =                       -512.5379744267922888
  Basis Set: (AUG-CC-PVTZ AUX)
    Blend: AUG-CC-PVTZ-RI
    Molecular point group: c1

    Geometry (in Angstrom), charge = 0, multiplicity = 1:

       Center              X                  Y                   Z               Mass
    ------------   -----------------  -----------------  -----------------  -----------------
         O            0.404915824205     1.744873321577     0.168436864635    15.994914619570
         O           -2.160038175795     0.921611321577    -0.974668135365    15.994914619570
         N           -2.676331175795    -0.437019678423     0.793669864635    14.003074004430
         C           -0.416491175795    -0.446373678423    -0.033906135365    12.000000000000
         C            0.694573824205     0.415082321577     0.051785864635    12.000000000000
         C           -0.216154175795    -1.827105678423    -0.100636135365    12.000000000000
         C            1.987277824205    -0.119989678423     0.057704864635    12.000000000000
         C            1.074113824205    -2.362792678423    -0.102109135365    12.000000000000
         C            2.168079824205    -1.504469678423    -0.026390135365    12.000000000000
         C           -1.806063175795     0.113612321577    -0.120909135365    12.000000000000
         C            1.506545824205     2.648451321577     0.186132864635    12.000000000000
         H           -1.083625175795    -2.478857678423    -0.177399135365     1.007825032230
         H            2.857308824205     0.523831321577     0.127965864635     1.007825032230
         H            1.234083724205    -3.536332978423    -0.175053235365     1.007825032230
         H            3.178771824205    -1.906039678423    -0.027277135365     1.007825032230
         H            2.106846824205     2.559046321577    -0.725345135365     1.007825032230
         H            2.142885824205     2.487773321577     1.063567864635     1.007825032230
         H            1.060395824205     3.640901321577     0.234703864635     1.007825032230
         H           -2.304557175795    -0.822889678423     1.651010864635     1.007825032230
         H           -3.588653175795     0.001349321577     0.847469864635     1.007825032230

  Basis Set: AUG-CC-PVTZ
    Blend: AUG-CC-PVTZ
  Basis Set: (AUG-CC-PVTZ AUX)
    Blend: AUG-CC-PVTZ-JKFIT
	 Reference Energy          =    -512.5379744267922888 [Eh]
	 Singles Energy            =      -0.0000000000000000 [Eh]
	 Same-Spin Energy          =      -0.5359143792036618 [Eh]
	 Opposite-Spin Energy      =      -1.6462471026526484 [Eh]
	 Correlation Energy        =      -2.1821614818563102 [Eh]
	 Total Energy              =    -514.7201359086485581 [Eh]

	 ================> DF-SCS-MP2 Energies <==================
	-----------------------------------------------------------
	 SCS Same-Spin Scale       =       0.3333333333333333 [-]
	 SCS Opposite-Spin Scale   =       1.2000000000000000 [-]
	 SCS Same-Spin Energy      =      -0.1786381264012206 [Eh]
	 SCS Opposite-Spin Energy  =      -1.9754965231831780 [Eh]
	 SCS Correlation Energy    =      -2.1541346495843987 [Eh]
	 SCS Total Energy          =    -514.6921090763767097 [Eh]
	-----------------------------------------------------------

  Dipole Moment: [D]
     X:     1.9847      Y:    -0.8685      Z:     2.9017     Total:     3.6213

*** Psi4 exiting successfully. Buy a developer a beer!
