                               Psi4 1.4a3.dev225

  ==> Input File <==

--------------------------------------------------------------------------
#psi4
#
memory 32 gb

molecule  {
0 1
  O        0.3703410     1.7406370     0.1509160
  O       -2.1946130     0.9173750    -0.9921890
  N       -2.7109060    -0.4412560     0.7761490
  C       -0.4510660    -0.4506100    -0.0514270
  C        0.7024098     0.2161421     0.0171853
  C       -0.2507290    -1.8313420    -0.1181570
  C        1.9527030    -0.1242260     0.0401840
  C        1.0395390    -2.3670290    -0.1196300
  C        2.1335050    -1.5087060    -0.0439110
  C       -1.8406380     0.1093760    -0.1384300
  C        1.4719710     2.6442150     0.1686120
  H       -1.1182000    -2.4830940    -0.1949200
  H        2.8227340     0.5195950     0.1104450
  H        1.1860280    -3.4416730    -0.1864270
  H        3.1441970    -1.9102760    -0.0447980
  H        2.0722720     2.5548100    -0.7428660
  H        2.1083110     2.4835370     1.0460470
  H        1.0258210     3.6366650     0.2171830
  H       -2.3391320    -0.8271260     1.6334900
  H       -3.6232280    -0.0028870     0.8299490
units angstrom
no_reorient  #important for SAPT in psi4, default
symmetry c1  #important for SAPT in psi4, default
}

set PROPERTIES_ORIGIN ["COM"]
properties('MP2/aug-cc-pvtz', properties = ['dipole'])
--------------------------------------------------------------------------

    Molecular point group: c1
  Charge       = 0
  Multiplicity = 1
  Basis Set: AUG-CC-PVTZ
    Blend: AUG-CC-PVTZ
  Basis Set: (AUG-CC-PVTZ AUX)
    Blend: AUG-CC-PVTZ-JKFIT

    Orbital Energies [Eh]
    ---------------------

    Doubly Occupied:

       1A    -20.555763     2A    -20.521494     3A    -15.587836
       4A    -11.364013     5A    -11.305376     6A    -11.267258
       7A    -11.262612     8A    -11.261655     9A    -11.253680
      10A    -11.247863    11A    -11.242985    12A     -1.375089
      13A     -1.335101    14A     -1.213990    15A     -1.186845
      16A     -1.061736    17A     -1.036175    18A     -0.917705
      19A     -0.887211    20A     -0.837648    21A     -0.797536
      22A     -0.740661    23A     -0.709297    24A     -0.671769
      25A     -0.663469    26A     -0.639309    27A     -0.624348
      28A     -0.623804    29A     -0.600454    30A     -0.570770
      31A     -0.563074    32A     -0.547981    33A     -0.535863
      34A     -0.522161    35A     -0.466753    36A     -0.451700
      37A     -0.426905    38A     -0.415430    39A     -0.364035
      40A     -0.347344

  @DF-RHF Final Energy:  -512.50001734560101

   => Energetics <=

    Nuclear Repulsion Energy =            593.0107332817681254
    One-Electron Energy =               -1875.0121100620742709
    Two-Electron Energy =                 769.5013594347051367
    Total Energy =                       -512.5000173456010089
  Basis Set: (AUG-CC-PVTZ AUX)
    Blend: AUG-CC-PVTZ-RI
    Molecular point group: c1

    Geometry (in Angstrom), charge = 0, multiplicity = 1:

       Center              X                  Y                   Z               Mass
    ------------   -----------------  -----------------  -----------------  -----------------
         O            0.401636780797     1.759680201943     0.169752612148    15.994914619570
         O           -2.163317219203     0.936418201943    -0.973352387852    15.994914619570
         N           -2.679610219203    -0.422212798057     0.794985612148    14.003074004430
         C           -0.419770219203    -0.431566798057    -0.032590387852    12.000000000000
         C            0.733705580797     0.235185301943     0.036021912148    12.000000000000
         C           -0.219433219203    -1.812298798057    -0.099320387852    12.000000000000
         C            1.983998780797    -0.105182798057     0.059020612148    12.000000000000
         C            1.070834780797    -2.347985798057    -0.100793387852    12.000000000000
         C            2.164800780797    -1.489662798057    -0.025074387852    12.000000000000
         C           -1.809342219203     0.128419201943    -0.119593387852    12.000000000000
         C            1.503266780797     2.663258201943     0.187448612148    12.000000000000
         H           -1.086904219203    -2.464050798057    -0.176083387852     1.007825032230
         H            2.854029780797     0.538638201943     0.129281612148     1.007825032230
         H            1.217323780797    -3.422629798057    -0.167590387852     1.007825032230
         H            3.175492780797    -1.891232798057    -0.025961387852     1.007825032230
         H            2.103567780797     2.573853201943    -0.724029387852     1.007825032230
         H            2.139606780797     2.502580201943     1.064883612148     1.007825032230
         H            1.057116780797     3.655708201943     0.236019612148     1.007825032230
         H           -2.307836219203    -0.808082798057     1.652326612148     1.007825032230
         H           -3.591932219203     0.016156201943     0.848785612148     1.007825032230

  Basis Set: AUG-CC-PVTZ
    Blend: AUG-CC-PVTZ
  Basis Set: (AUG-CC-PVTZ AUX)
    Blend: AUG-CC-PVTZ-JKFIT
	 Reference Energy          =    -512.5000173456010089 [Eh]
	 Singles Energy            =      -0.0000000000000000 [Eh]
	 Same-Spin Energy          =      -0.5372675004151797 [Eh]
	 Opposite-Spin Energy      =      -1.6500020827510937 [Eh]
	 Correlation Energy        =      -2.1872695831662732 [Eh]
	 Total Energy              =    -514.6872869287673211 [Eh]

	 ================> DF-SCS-MP2 Energies <==================
	-----------------------------------------------------------
	 SCS Same-Spin Scale       =       0.3333333333333333 [-]
	 SCS Opposite-Spin Scale   =       1.2000000000000000 [-]
	 SCS Same-Spin Energy      =      -0.1790891668050599 [Eh]
	 SCS Opposite-Spin Energy  =      -1.9800024993013123 [Eh]
	 SCS Correlation Energy    =      -2.1590916661063724 [Eh]
	 SCS Total Energy          =    -514.6591090117074145 [Eh]
	-----------------------------------------------------------

  Dipole Moment: [D]
     X:     1.9104      Y:    -2.1735      Z:     2.7883     Total:     4.0185

*** Psi4 exiting successfully. Buy a developer a beer!
