                               Psi4 1.4a3.dev225

  ==> Input File <==

--------------------------------------------------------------------------
#psi4
#
memory 32 gb

molecule  {
0 1
  O        0.3703410     1.7406370     0.1509160
  O       -2.1946130     0.9173750    -0.9921890
  N       -2.7109060    -0.4412560     0.7761490
  C       -0.4510660    -0.4506100    -0.0514270
  C        0.6599990     0.4108460     0.0342650
  C       -0.2507290    -1.8313420    -0.1181570
  C        1.9527030    -0.1242260     0.0401840
  C        1.0395390    -2.3670290    -0.1196300
  C        2.1335050    -1.5087060    -0.0439110
  C       -2.0258293     0.1840066    -0.1500251
  C        1.4719710     2.6442150     0.1686120
  H       -1.1182000    -2.4830940    -0.1949200
  H        2.8227340     0.5195950     0.1104450
  H        1.1860280    -3.4416730    -0.1864270
  H        3.1441970    -1.9102760    -0.0447980
  H        2.0722720     2.5548100    -0.7428660
  H        2.1083110     2.4835370     1.0460470
  H        1.0258210     3.6366650     0.2171830
  H       -2.3391320    -0.8271260     1.6334900
  H       -3.6232280    -0.0028870     0.8299490
units angstrom
no_reorient  #important for SAPT in psi4, default
symmetry c1  #important for SAPT in psi4, default
}

set PROPERTIES_ORIGIN ["COM"]
properties('MP2/aug-cc-pvtz', properties = ['dipole'])
--------------------------------------------------------------------------

    Molecular point group: c1
  Charge       = 0
  Multiplicity = 1
  Basis Set: AUG-CC-PVTZ
    Blend: AUG-CC-PVTZ
  Basis Set: (AUG-CC-PVTZ AUX)
    Blend: AUG-CC-PVTZ-JKFIT

    Orbital Energies [Eh]
    ---------------------

    Doubly Occupied:

       1A    -20.581275     2A    -20.536724     3A    -15.596421
       4A    -11.359035     5A    -11.300736     6A    -11.281926
       7A    -11.239289     8A    -11.238405     9A    -11.232718
      10A    -11.231658    11A    -11.227111    12A     -1.448190
      13A     -1.403347    14A     -1.252969    15A     -1.142364
      16A     -1.017811    17A     -1.011819    18A     -0.938655
      19A     -0.848305    20A     -0.812657    21A     -0.801989
      22A     -0.749837    23A     -0.705255    24A     -0.683234
      25A     -0.662505    26A     -0.651100    27A     -0.644073
      28A     -0.617522    29A     -0.611087    30A     -0.588799
      31A     -0.573932    32A     -0.540246    33A     -0.521495
      34A     -0.510529    35A     -0.494110    36A     -0.466377
      37A     -0.446677    38A     -0.393093    39A     -0.338068
      40A     -0.309451

  @DF-RHF Final Energy:  -512.50928295352628

   => Energetics <=

    Nuclear Repulsion Energy =            591.6026354528589764
    One-Electron Energy =               -1872.2022429499870668
    Two-Electron Energy =                 768.0903245436018096
    Total Energy =                       -512.5092829535262808
  Basis Set: (AUG-CC-PVTZ AUX)
    Blend: AUG-CC-PVTZ-RI
    Molecular point group: c1

    Geometry (in Angstrom), charge = 0, multiplicity = 1:

       Center              X                  Y                   Z               Mass
    ------------   -----------------  -----------------  -----------------  -----------------
         O            0.419716782254     1.738285108697     0.169316932617    15.994914619570
         O           -2.145237217746     0.915023108697    -0.973788067383    15.994914619570
         N           -2.661530217746    -0.443607891303     0.794549932617    14.003074004430
         C           -0.401690217746    -0.452961891303    -0.033026067383    12.000000000000
         C            0.709374782254     0.408494108697     0.052665932617    12.000000000000
         C           -0.201353217746    -1.833693891303    -0.099756067383    12.000000000000
         C            2.002078782254    -0.126577891303     0.058584932617    12.000000000000
         C            1.088914782254    -2.369380891303    -0.101229067383    12.000000000000
         C            2.182880782254    -1.511057891303    -0.025510067383    12.000000000000
         C           -1.976453517746     0.181654708697    -0.131624167383    12.000000000000
         C            1.521346782254     2.641863108697     0.187012932617    12.000000000000
         H           -1.068824217746    -2.485445891303    -0.176519067383     1.007825032230
         H            2.872109782254     0.517243108697     0.128845932617     1.007825032230
         H            1.235403782254    -3.444024891303    -0.168026067383     1.007825032230
         H            3.193572782254    -1.912627891303    -0.026397067383     1.007825032230
         H            2.121647782254     2.552458108697    -0.724465067383     1.007825032230
         H            2.157686782254     2.481185108697     1.064447932617     1.007825032230
         H            1.075196782254     3.634313108697     0.235583932617     1.007825032230
         H           -2.289756217746    -0.829477891303     1.651890932617     1.007825032230
         H           -3.573852217746    -0.005238891303     0.848349932617     1.007825032230

  Basis Set: AUG-CC-PVTZ
    Blend: AUG-CC-PVTZ
  Basis Set: (AUG-CC-PVTZ AUX)
    Blend: AUG-CC-PVTZ-JKFIT
	 Reference Energy          =    -512.5092829535262808 [Eh]
	 Singles Energy            =      -0.0000000000000000 [Eh]
	 Same-Spin Energy          =      -0.5346292489150446 [Eh]
	 Opposite-Spin Energy      =      -1.6420101599380448 [Eh]
	 Correlation Energy        =      -2.1766394088530894 [Eh]
	 Total Energy              =    -514.6859223623794151 [Eh]

	 ================> DF-SCS-MP2 Energies <==================
	-----------------------------------------------------------
	 SCS Same-Spin Scale       =       0.3333333333333333 [-]
	 SCS Opposite-Spin Scale   =       1.2000000000000000 [-]
	 SCS Same-Spin Energy      =      -0.1782097496383482 [Eh]
	 SCS Opposite-Spin Energy  =      -1.9704121919256536 [Eh]
	 SCS Correlation Energy    =      -2.1486219415640018 [Eh]
	 SCS Total Energy          =    -514.6579048950902688 [Eh]
	-----------------------------------------------------------

  Dipole Moment: [D]
     X:     0.4464      Y:    -0.4378      Z:     2.8416     Total:     2.9096

*** Psi4 exiting successfully. Buy a developer a beer!
