                               Psi4 1.4a3.dev225

  ==> Input File <==

--------------------------------------------------------------------------
#psi4
#
memory 32 gb

molecule  {
0 1
  O        0.3703410     1.7406370     0.1509160
  O       -2.1946130     0.9173750    -0.9921890
  N       -2.7109060    -0.4412560     0.7761490
  C       -0.4510660    -0.4506100    -0.0514270
  C        0.6599990     0.4108460     0.0342650
  C       -0.2507290    -1.8313420    -0.1181570
  C        1.9989014    -0.1433483     0.0403955
  C        1.0395390    -2.3670290    -0.1196300
  C        2.1335050    -1.5087060    -0.0439110
  C       -1.8406380     0.1093760    -0.1384300
  C        1.4719710     2.6442150     0.1686120
  H       -1.1182000    -2.4830940    -0.1949200
  H        2.8227340     0.5195950     0.1104450
  H        1.1860280    -3.4416730    -0.1864270
  H        3.1441970    -1.9102760    -0.0447980
  H        2.0722720     2.5548100    -0.7428660
  H        2.1083110     2.4835370     1.0460470
  H        1.0258210     3.6366650     0.2171830
  H       -2.3391320    -0.8271260     1.6334900
  H       -3.6232280    -0.0028870     0.8299490
units angstrom
no_reorient  #important for SAPT in psi4, default
symmetry c1  #important for SAPT in psi4, default
}

set PROPERTIES_ORIGIN ["COM"]
properties('MP2/aug-cc-pvtz', properties = ['dipole'])
--------------------------------------------------------------------------

    Molecular point group: c1
  Charge       = 0
  Multiplicity = 1
  Basis Set: AUG-CC-PVTZ
    Blend: AUG-CC-PVTZ
  Basis Set: (AUG-CC-PVTZ AUX)
    Blend: AUG-CC-PVTZ-JKFIT

    Orbital Energies [Eh]
    ---------------------

    Doubly Occupied:

       1A    -20.592757     2A    -20.517179     3A    -15.582644
       4A    -11.354792     5A    -11.323528     6A    -11.289103
       7A    -11.255411     8A    -11.251393     9A    -11.246925
      10A    -11.244218    11A    -11.237409    12A     -1.415107
      13A     -1.369490    14A     -1.207678    15A     -1.156054
      16A     -1.045996    17A     -1.020642    18A     -0.950025
      19A     -0.873838    20A     -0.827508    21A     -0.788412
      22A     -0.735552    23A     -0.707871    24A     -0.682975
      25A     -0.666402    26A     -0.658204    27A     -0.639060
      28A     -0.624111    29A     -0.596823    30A     -0.585930
      31A     -0.558193    32A     -0.542737    33A     -0.530624
      34A     -0.522171    35A     -0.496846    36A     -0.477040
      37A     -0.423520    38A     -0.411481    39A     -0.355233
      40A     -0.317996

  @DF-RHF Final Energy:  -512.54222661960500

   => Energetics <=

    Nuclear Repulsion Energy =            591.8796096894772063
    One-Electron Energy =               -1872.6779172568424201
    Two-Electron Energy =                 768.2560809477600969
    Total Energy =                       -512.5422266196050032
  Basis Set: (AUG-CC-PVTZ AUX)
    Blend: AUG-CC-PVTZ-RI
    Molecular point group: c1

    Geometry (in Angstrom), charge = 0, multiplicity = 1:

       Center              X                  Y                   Z               Mass
    ------------   -----------------  -----------------  -----------------  -----------------
         O            0.401335905658     1.745732546874     0.168379053111    15.994914619570
         O           -2.163618094342     0.922470546874    -0.974725946889    15.994914619570
         N           -2.679911094342    -0.436160453126     0.793612053111    14.003074004430
         C           -0.420071094342    -0.445514453126    -0.033963946889    12.000000000000
         C            0.690993905658     0.415941546874     0.051728053111    12.000000000000
         C           -0.219734094342    -1.826246453126    -0.100693946889    12.000000000000
         C            2.029896305658    -0.138252753126     0.057858553111    12.000000000000
         C            1.070533905658    -2.361933453126    -0.102166946889    12.000000000000
         C            2.164499905658    -1.503610453126    -0.026447946889    12.000000000000
         C           -1.809643094342     0.114471546874    -0.120966946889    12.000000000000
         C            1.502965905658     2.649310546874     0.186075053111    12.000000000000
         H           -1.087205094342    -2.477998453126    -0.177456946889     1.007825032230
         H            2.853728905658     0.524690546874     0.127908053111     1.007825032230
         H            1.217022905658    -3.436577453126    -0.168963946889     1.007825032230
         H            3.175191905658    -1.905180453126    -0.027334946889     1.007825032230
         H            2.103266905658     2.559905546874    -0.725402946889     1.007825032230
         H            2.139305905658     2.488632546874     1.063510053111     1.007825032230
         H            1.056815905658     3.641760546874     0.234646053111     1.007825032230
         H           -2.308137094342    -0.822030453126     1.650953053111     1.007825032230
         H           -3.592233094342     0.002208546874     0.847412053111     1.007825032230

  Basis Set: AUG-CC-PVTZ
    Blend: AUG-CC-PVTZ
  Basis Set: (AUG-CC-PVTZ AUX)
    Blend: AUG-CC-PVTZ-JKFIT
	 Reference Energy          =    -512.5422266196050032 [Eh]
	 Singles Energy            =      -0.0000000000000000 [Eh]
	 Same-Spin Energy          =      -0.5356605328295525 [Eh]
	 Opposite-Spin Energy      =      -1.6454352508092729 [Eh]
	 Correlation Energy        =      -2.1810957836388254 [Eh]
	 Total Energy              =    -514.7233224032438557 [Eh]

	 ================> DF-SCS-MP2 Energies <==================
	-----------------------------------------------------------
	 SCS Same-Spin Scale       =       0.3333333333333333 [-]
	 SCS Opposite-Spin Scale   =       1.2000000000000000 [-]
	 SCS Same-Spin Energy      =      -0.1785535109431842 [Eh]
	 SCS Opposite-Spin Energy  =      -1.9745223009711275 [Eh]
	 SCS Correlation Energy    =      -2.1530758119143116 [Eh]
	 SCS Total Energy          =    -514.6953024315192806 [Eh]
	-----------------------------------------------------------

  Dipole Moment: [D]
     X:     1.9992      Y:    -0.8317      Z:     2.9058     Total:     3.6238

*** Psi4 exiting successfully. Buy a developer a beer!
