                               Psi4 1.4a3.dev225

  ==> Input File <==

--------------------------------------------------------------------------
#psi4
#
memory 32 gb

molecule  {
0 1
  O        0.3703410     1.7406370     0.1509160
  O       -2.1946130     0.9173750    -0.9921890
  N       -2.7109060    -0.4412560     0.7761490
  C       -0.4510660    -0.4506100    -0.0514270
  C        0.6599990     0.4108460     0.0342650
  C       -0.2507290    -1.8313420    -0.1181570
  C        1.9527030    -0.1242260     0.0401840
  C        1.0395390    -2.3670290    -0.1196300
  C        2.1335050    -1.5087060    -0.0439110
  C       -1.8406380     0.1093760    -0.1384300
  C        1.4719710     2.6442150     0.1686120
  H       -1.1182000    -2.4830940    -0.1949200
  H        2.8227340     0.5195950     0.1104450
  H        1.1860280    -3.4416730    -0.1864270
  H        3.1256104    -1.9028911    -0.0447817
  H        2.0722720     2.5548100    -0.7428660
  H        2.1083110     2.4835370     1.0460470
  H        1.0258210     3.6366650     0.2171830
  H       -2.3391320    -0.8271260     1.6334900
  H       -3.6232280    -0.0028870     0.8299490
units angstrom
no_reorient  #important for SAPT in psi4, default
symmetry c1  #important for SAPT in psi4, default
}

set PROPERTIES_ORIGIN ["COM"]
properties('MP2/aug-cc-pvtz', properties = ['dipole'])
--------------------------------------------------------------------------

    Molecular point group: c1
  Charge       = 0
  Multiplicity = 1
  Basis Set: AUG-CC-PVTZ
    Blend: AUG-CC-PVTZ
  Basis Set: (AUG-CC-PVTZ AUX)
    Blend: AUG-CC-PVTZ-JKFIT

    Orbital Energies [Eh]
    ---------------------

    Doubly Occupied:

       1A    -20.590274     2A    -20.517355     3A    -15.582765
       4A    -11.355003     5A    -11.317292     6A    -11.287623
       7A    -11.255219     8A    -11.251773     9A    -11.248218
      10A    -11.242542    11A    -11.238242    12A     -1.413828
      13A     -1.369622    14A     -1.207831    15A     -1.157910
      16A     -1.043318    17A     -1.024557    18A     -0.949482
      19A     -0.878284    20A     -0.824237    21A     -0.789538
      22A     -0.735716    23A     -0.710118    24A     -0.681904
      25A     -0.665828    26A     -0.657090    27A     -0.640141
      28A     -0.623560    29A     -0.597543    30A     -0.582104
      31A     -0.558243    32A     -0.544564    33A     -0.530176
      34A     -0.518617    35A     -0.500874    36A     -0.475693
      37A     -0.424083    38A     -0.411579    39A     -0.352225
      40A     -0.322690

  @DF-RHF Final Energy:  -512.54552117403136

   => Energetics <=

    Nuclear Repulsion Energy =            592.7685067021687928
    One-Electron Energy =               -1874.4727340875749633
    Two-Electron Energy =                 769.1587062113749198
    Total Energy =                       -512.5455211740313644
  Basis Set: (AUG-CC-PVTZ AUX)
    Blend: AUG-CC-PVTZ-RI
    Molecular point group: c1

    Geometry (in Angstrom), charge = 0, multiplicity = 1:

       Center              X                  Y                   Z               Mass
    ------------   -----------------  -----------------  -----------------  -----------------
         O            0.405129763812     1.744164262305     0.168395745266    15.994914619570
         O           -2.159824236188     0.920902262305    -0.974709254734    15.994914619570
         N           -2.676117236188    -0.437728737695     0.793628745266    14.003074004430
         C           -0.416277236188    -0.447082737695    -0.033947254734    12.000000000000
         C            0.694787763812     0.414373262305     0.051744745266    12.000000000000
         C           -0.215940236188    -1.827814737695    -0.100677254734    12.000000000000
         C            1.987491763812    -0.120698737695     0.057663745266    12.000000000000
         C            1.074327763812    -2.363501737695    -0.102150254734    12.000000000000
         C            2.168293763812    -1.505178737695    -0.026431254734    12.000000000000
         C           -1.805849236188     0.112903262305    -0.120950254734    12.000000000000
         C            1.506759763812     2.647742262305     0.186091745266    12.000000000000
         H           -1.083411236188    -2.479566737695    -0.177440254734     1.007825032230
         H            2.857522763812     0.523122262305     0.127924745266     1.007825032230
         H            1.220816763812    -3.438145737695    -0.168947254734     1.007825032230
         H            3.160399163812    -1.899363837695    -0.027301954734     1.007825032230
         H            2.107060763812     2.558337262305    -0.725386254734     1.007825032230
         H            2.143099763812     2.487064262305     1.063526745266     1.007825032230
         H            1.060609763812     3.640192262305     0.234662745266     1.007825032230
         H           -2.304343236188    -0.823598737695     1.650969745266     1.007825032230
         H           -3.588439236188     0.000640262305     0.847428745266     1.007825032230

  Basis Set: AUG-CC-PVTZ
    Blend: AUG-CC-PVTZ
  Basis Set: (AUG-CC-PVTZ AUX)
    Blend: AUG-CC-PVTZ-JKFIT
	 Reference Energy          =    -512.5455211740313644 [Eh]
	 Singles Energy            =      -0.0000000000000000 [Eh]
	 Same-Spin Energy          =      -0.5356720335846045 [Eh]
	 Opposite-Spin Energy      =      -1.6451524649249034 [Eh]
	 Correlation Energy        =      -2.1808244985095078 [Eh]
	 Total Energy              =    -514.7263456725409014 [Eh]

	 ================> DF-SCS-MP2 Energies <==================
	-----------------------------------------------------------
	 SCS Same-Spin Scale       =       0.3333333333333333 [-]
	 SCS Opposite-Spin Scale   =       1.2000000000000000 [-]
	 SCS Same-Spin Energy      =      -0.1785573445282015 [Eh]
	 SCS Opposite-Spin Energy  =      -1.9741829579098840 [Eh]
	 SCS Correlation Energy    =      -2.1527403024380853 [Eh]
	 SCS Total Energy          =    -514.6982614764694972 [Eh]
	-----------------------------------------------------------

  Dipole Moment: [D]
     X:     2.0036      Y:    -0.9176      Z:     2.8994     Total:     3.6419

*** Psi4 exiting successfully. Buy a developer a beer!
