                               Psi4 1.4a3.dev225

  ==> Input File <==

--------------------------------------------------------------------------
#psi4
#
memory 32 gb

molecule  {
0 1
  O        0.3703410     1.7406370     0.1509160
  O       -2.1946130     0.9173750    -0.9921890
  N       -2.7109060    -0.4412560     0.7761490
  C       -0.4510660    -0.4506100    -0.0514270
  C        0.6599990     0.4108460     0.0342650
  C       -0.2507290    -1.8313420    -0.1181570
  C        2.0450998    -0.1624706     0.0406071
  C        1.0395390    -2.3670290    -0.1196300
  C        2.1335050    -1.5087060    -0.0439110
  C       -1.8406380     0.1093760    -0.1384300
  C        1.4719710     2.6442150     0.1686120
  H       -1.1182000    -2.4830940    -0.1949200
  H        2.8227340     0.5195950     0.1104450
  H        1.1860280    -3.4416730    -0.1864270
  H        3.1441970    -1.9102760    -0.0447980
  H        2.0722720     2.5548100    -0.7428660
  H        2.1083110     2.4835370     1.0460470
  H        1.0258210     3.6366650     0.2171830
  H       -2.3391320    -0.8271260     1.6334900
  H       -3.6232280    -0.0028870     0.8299490
units angstrom
no_reorient  #important for SAPT in psi4, default
symmetry c1  #important for SAPT in psi4, default
}

set PROPERTIES_ORIGIN ["COM"]
properties('MP2/aug-cc-pvtz', properties = ['dipole'])
--------------------------------------------------------------------------

    Molecular point group: c1
  Charge       = 0
  Multiplicity = 1
  Basis Set: AUG-CC-PVTZ
    Blend: AUG-CC-PVTZ
  Basis Set: (AUG-CC-PVTZ AUX)
    Blend: AUG-CC-PVTZ-JKFIT

    Orbital Energies [Eh]
    ---------------------

    Doubly Occupied:

       1A    -20.594862     2A    -20.516913     3A    -15.582449
       4A    -11.354486     5A    -11.328575     6A    -11.290399
       7A    -11.255592     8A    -11.248951     9A    -11.245548
      10A    -11.245530    11A    -11.236508    12A     -1.416145
      13A     -1.369265    14A     -1.207456    15A     -1.154626
      16A     -1.049260    17A     -1.017528    18A     -0.950512
      19A     -0.870621    20A     -0.830372    21A     -0.787898
      22A     -0.735569    23A     -0.706782    24A     -0.684420
      25A     -0.667686    26A     -0.659315    27A     -0.640234
      28A     -0.623225    29A     -0.596928    30A     -0.588913
      31A     -0.558127    32A     -0.542211    33A     -0.531747
      34A     -0.523618    35A     -0.491673    36A     -0.478217
      37A     -0.422734    38A     -0.411284    39A     -0.358733
      40A     -0.313584

  @DF-RHF Final Energy:  -512.53379760980670

   => Energetics <=

    Nuclear Repulsion Energy =            591.1303227221843599
    One-Electron Energy =               -1871.1512473146106004
    Two-Electron Energy =                 767.4871269826194293
    Total Energy =                       -512.5337976098066974
  Basis Set: (AUG-CC-PVTZ AUX)
    Blend: AUG-CC-PVTZ-RI
    Molecular point group: c1

    Geometry (in Angstrom), charge = 0, multiplicity = 1:

       Center              X                  Y                   Z               Mass
    ------------   -----------------  -----------------  -----------------  -----------------
         O            0.397666048749     1.747251562787     0.168362244267    15.994914619570
         O           -2.167287951251     0.923989562787    -0.974742755733    15.994914619570
         N           -2.683580951251    -0.434641437213     0.793595244267    14.003074004430
         C           -0.423740951251    -0.443995437213    -0.033980755733    12.000000000000
         C            0.687324048749     0.417460562787     0.051711244267    12.000000000000
         C           -0.223403951251    -1.824727437213    -0.100710755733    12.000000000000
         C            2.072424848749    -0.155856037213     0.058053344267    12.000000000000
         C            1.066864048749    -2.360414437213    -0.102183755733    12.000000000000
         C            2.160830048749    -1.502091437213    -0.026464755733    12.000000000000
         C           -1.813312951251     0.115990562787    -0.120983755733    12.000000000000
         C            1.499296048749     2.650829562787     0.186058244267    12.000000000000
         H           -1.090874951251    -2.476479437213    -0.177473755733     1.007825032230
         H            2.850059048749     0.526209562787     0.127891244267     1.007825032230
         H            1.213353048749    -3.435058437213    -0.168980755733     1.007825032230
         H            3.171522048749    -1.903661437213    -0.027351755733     1.007825032230
         H            2.099597048749     2.561424562787    -0.725419755733     1.007825032230
         H            2.135636048749     2.490151562787     1.063493244267     1.007825032230
         H            1.053146048749     3.643279562787     0.234629244267     1.007825032230
         H           -2.311806951251    -0.820511437213     1.650936244267     1.007825032230
         H           -3.595902951251     0.003727562787     0.847395244267     1.007825032230

  Basis Set: AUG-CC-PVTZ
    Blend: AUG-CC-PVTZ
  Basis Set: (AUG-CC-PVTZ AUX)
    Blend: AUG-CC-PVTZ-JKFIT
	 Reference Energy          =    -512.5337976098066974 [Eh]
	 Singles Energy            =      -0.0000000000000000 [Eh]
	 Same-Spin Energy          =      -0.5355551862552768 [Eh]
	 Opposite-Spin Energy      =      -1.6458081544288772 [Eh]
	 Correlation Energy        =      -2.1813633406841539 [Eh]
	 Total Energy              =    -514.7151609504908265 [Eh]

	 ================> DF-SCS-MP2 Energies <==================
	-----------------------------------------------------------
	 SCS Same-Spin Scale       =       0.3333333333333333 [-]
	 SCS Opposite-Spin Scale   =       1.2000000000000000 [-]
	 SCS Same-Spin Energy      =      -0.1785183954184256 [Eh]
	 SCS Opposite-Spin Energy  =      -1.9749697853146526 [Eh]
	 SCS Correlation Energy    =      -2.1534881807330781 [Eh]
	 SCS Total Energy          =    -514.6872857905398178 [Eh]
	-----------------------------------------------------------

  Dipole Moment: [D]
     X:     2.0037      Y:    -0.7607      Z:     2.9112     Total:     3.6151

*** Psi4 exiting successfully. Buy a developer a beer!
