                               Psi4 1.4a3.dev225

  ==> Input File <==

--------------------------------------------------------------------------
#psi4
#
memory 32 gb

molecule  {
0 1
  O        0.3703410     1.7406370     0.1509160
  O       -2.1946130     0.9173750    -0.9921890
  N       -2.7457262    -0.4130523     0.7587326
  C       -0.4510660    -0.4506100    -0.0514270
  C        0.6599990     0.4108460     0.0342650
  C       -0.2507290    -1.8313420    -0.1181570
  C        1.9527030    -0.1242260     0.0401840
  C        1.0395390    -2.3670290    -0.1196300
  C        2.1335050    -1.5087060    -0.0439110
  C       -1.8406380     0.1093760    -0.1384300
  C        1.4719710     2.6442150     0.1686120
  H       -1.1182000    -2.4830940    -0.1949200
  H        2.8227340     0.5195950     0.1104450
  H        1.1860280    -3.4416730    -0.1864270
  H        3.1441970    -1.9102760    -0.0447980
  H        2.0722720     2.5548100    -0.7428660
  H        2.1083110     2.4835370     1.0460470
  H        1.0258210     3.6366650     0.2171830
  H       -2.3391320    -0.8271260     1.6334900
  H       -3.6232280    -0.0028870     0.8299490
units angstrom
no_reorient  #important for SAPT in psi4, default
symmetry c1  #important for SAPT in psi4, default
}

set PROPERTIES_ORIGIN ["COM"]
properties('MP2/aug-cc-pvtz', properties = ['dipole'])
--------------------------------------------------------------------------

    Molecular point group: c1
  Charge       = 0
  Multiplicity = 1
  Basis Set: AUG-CC-PVTZ
    Blend: AUG-CC-PVTZ
  Basis Set: (AUG-CC-PVTZ AUX)
    Blend: AUG-CC-PVTZ-JKFIT

    Orbital Energies [Eh]
    ---------------------

    Doubly Occupied:

       1A    -20.590817     2A    -20.514749     3A    -15.581160
       4A    -11.354139     5A    -11.318480     6A    -11.287948
       7A    -11.256380     8A    -11.254942     9A    -11.250016
      10A    -11.243426    11A    -11.239113    12A     -1.414351
      13A     -1.369163    14A     -1.205090    15A     -1.158993
      16A     -1.044114    17A     -1.025434    18A     -0.950068
      19A     -0.878984    20A     -0.825435    21A     -0.790715
      22A     -0.729590    23A     -0.707530    24A     -0.684760
      25A     -0.670282    26A     -0.657954    27A     -0.639725
      28A     -0.623100    29A     -0.595939    30A     -0.581683
      31A     -0.558539    32A     -0.543771    33A     -0.530968
      34A     -0.519174    35A     -0.500753    36A     -0.476276
      37A     -0.422763    38A     -0.409543    39A     -0.353167
      40A     -0.323551

  @DF-RHF Final Energy:  -512.54258472522611

   => Energetics <=

    Nuclear Repulsion Energy =            592.4078437953253342
    One-Electron Energy =               -1873.7356808992592505
    Two-Electron Energy =                 768.7852523787078098
    Total Energy =                       -512.5425847252261065
  Basis Set: (AUG-CC-PVTZ AUX)
    Blend: AUG-CC-PVTZ-RI
    Molecular point group: c1

    Geometry (in Angstrom), charge = 0, multiplicity = 1:

       Center              X                  Y                   Z               Mass
    ------------   -----------------  -----------------  -----------------  -----------------
         O            0.408233480653     1.741599140677     0.170010297044    15.994914619570
         O           -2.156720519347     0.918337140677    -0.973094702956    15.994914619570
         N           -2.707833719347    -0.412090159323     0.777826897044    14.003074004430
         C           -0.413173519347    -0.449647859323    -0.032332702956    12.000000000000
         C            0.697891480653     0.411808140677     0.053359297044    12.000000000000
         C           -0.212836519347    -1.830379859323    -0.099062702956    12.000000000000
         C            1.990595480653    -0.123263859323     0.059278297044    12.000000000000
         C            1.077431480653    -2.366066859323    -0.100535702956    12.000000000000
         C            2.171397480653    -1.507743859323    -0.024816702956    12.000000000000
         C           -1.802745519347     0.110338140677    -0.119335702956    12.000000000000
         C            1.509863480653     2.645177140677     0.187706297044    12.000000000000
         H           -1.080307519347    -2.482131859323    -0.175825702956     1.007825032230
         H            2.860626480653     0.520557140677     0.129539297044     1.007825032230
         H            1.223920480653    -3.440710859323    -0.167332702956     1.007825032230
         H            3.182089480653    -1.909313859323    -0.025703702956     1.007825032230
         H            2.110164480653     2.555772140677    -0.723771702956     1.007825032230
         H            2.146203480653     2.484499140677     1.065141297044     1.007825032230
         H            1.063713480653     3.637627140677     0.236277297044     1.007825032230
         H           -2.301239519347    -0.826163859323     1.652584297044     1.007825032230
         H           -3.585335519347    -0.001924859323     0.849043297044     1.007825032230

  Basis Set: AUG-CC-PVTZ
    Blend: AUG-CC-PVTZ
  Basis Set: (AUG-CC-PVTZ AUX)
    Blend: AUG-CC-PVTZ-JKFIT
	 Reference Energy          =    -512.5425847252261065 [Eh]
	 Singles Energy            =      -0.0000000000000000 [Eh]
	 Same-Spin Energy          =      -0.5355210178098554 [Eh]
	 Opposite-Spin Energy      =      -1.6450821104993603 [Eh]
	 Correlation Energy        =      -2.1806031283092158 [Eh]
	 Total Energy              =    -514.7231878535353644 [Eh]

	 ================> DF-SCS-MP2 Energies <==================
	-----------------------------------------------------------
	 SCS Same-Spin Scale       =       0.3333333333333333 [-]
	 SCS Opposite-Spin Scale   =       1.2000000000000000 [-]
	 SCS Same-Spin Energy      =      -0.1785070059366184 [Eh]
	 SCS Opposite-Spin Energy  =      -1.9740985325992322 [Eh]
	 SCS Correlation Energy    =      -2.1526055385358505 [Eh]
	 SCS Total Energy          =    -514.6951902637619014 [Eh]
	-----------------------------------------------------------

  Dipole Moment: [D]
     X:     2.0840      Y:    -0.9543      Z:     2.9040     Total:     3.6996

*** Psi4 exiting successfully. Buy a developer a beer!
