                               Psi4 1.4a3.dev225

  ==> Input File <==

--------------------------------------------------------------------------
#psi4
#
memory 32 gb

molecule  {
0 1
  O        0.3703410     1.7406370     0.1509160
  O       -2.1946130     0.9173750    -0.9921890
  N       -2.7109060    -0.4412560     0.7761490
  C       -0.4510660    -0.4506100    -0.0514270
  C        0.6599990     0.4108460     0.0342650
  C       -0.2507290    -1.8313420    -0.1181570
  C        1.9527030    -0.1242260     0.0401840
  C        1.0395390    -2.3670290    -0.1196300
  C        2.1335050    -1.5087060    -0.0439110
  C       -1.8221189     0.1019129    -0.1372705
  C        1.4719710     2.6442150     0.1686120
  H       -1.1182000    -2.4830940    -0.1949200
  H        2.8227340     0.5195950     0.1104450
  H        1.1860280    -3.4416730    -0.1864270
  H        3.1441970    -1.9102760    -0.0447980
  H        2.0722720     2.5548100    -0.7428660
  H        2.1083110     2.4835370     1.0460470
  H        1.0258210     3.6366650     0.2171830
  H       -2.3391320    -0.8271260     1.6334900
  H       -3.6232280    -0.0028870     0.8299490
units angstrom
no_reorient  #important for SAPT in psi4, default
symmetry c1  #important for SAPT in psi4, default
}

set PROPERTIES_ORIGIN ["COM"]
properties('MP2/aug-cc-pvtz', properties = ['dipole'])
--------------------------------------------------------------------------

    Molecular point group: c1
  Charge       = 0
  Multiplicity = 1
  Basis Set: AUG-CC-PVTZ
    Blend: AUG-CC-PVTZ
  Basis Set: (AUG-CC-PVTZ AUX)
    Blend: AUG-CC-PVTZ-JKFIT

    Orbital Energies [Eh]
    ---------------------

    Doubly Occupied:

       1A    -20.591218     2A    -20.516122     3A    -15.581853
       4A    -11.355539     5A    -11.318995     6A    -11.288196
       7A    -11.256938     8A    -11.255541     9A    -11.248651
      10A    -11.243702    11A    -11.239417    12A     -1.414730
      13A     -1.362416    14A     -1.203720    15A     -1.159216
      16A     -1.045756    17A     -1.025850    18A     -0.950612
      19A     -0.880774    20A     -0.825607    21A     -0.788774
      22A     -0.733874    23A     -0.708600    24A     -0.682968
      25A     -0.666930    26A     -0.657818    27A     -0.639318
      28A     -0.623124    29A     -0.596399    30A     -0.582364
      31A     -0.555777    32A     -0.544173    33A     -0.530627
      34A     -0.518628    35A     -0.500920    36A     -0.476588
      37A     -0.423859    38A     -0.409091    39A     -0.353508
      40A     -0.323944

  @DF-RHF Final Energy:  -512.54353676799087

   => Energetics <=

    Nuclear Repulsion Energy =            592.7805089956019629
    One-Electron Energy =               -1874.4838172471104372
    Two-Electron Energy =                 769.1597714835177158
    Total Energy =                       -512.5435367679908722
  Basis Set: (AUG-CC-PVTZ AUX)
    Blend: AUG-CC-PVTZ-RI
    Molecular point group: c1

    Geometry (in Angstrom), charge = 0, multiplicity = 1:

       Center              X                  Y                   Z               Mass
    ------------   -----------------  -----------------  -----------------  -----------------
         O            0.403534662982     1.744806376364     0.168303746946    15.994914619570
         O           -2.161419337018     0.921544376364    -0.974801253054    15.994914619570
         N           -2.677712337018    -0.437086623636     0.793536746946    14.003074004430
         C           -0.417872337018    -0.446440623636    -0.034039253054    12.000000000000
         C            0.693192662982     0.415015376364     0.051652746946    12.000000000000
         C           -0.217535337018    -1.827172623636    -0.100769253054    12.000000000000
         C            1.985896662982    -0.120056623636     0.057571746946    12.000000000000
         C            1.072732662982    -2.362859623636    -0.102242253054    12.000000000000
         C            2.166698662982    -1.504536623636    -0.026523253054    12.000000000000
         C           -1.788925237018     0.106082276364    -0.119882753054    12.000000000000
         C            1.505164662982     2.648384376364     0.185999746946    12.000000000000
         H           -1.085006337018    -2.478924623636    -0.177532253054     1.007825032230
         H            2.855927662982     0.523764376364     0.127832746946     1.007825032230
         H            1.219221662982    -3.437503623636    -0.169039253054     1.007825032230
         H            3.177390662982    -1.906106623636    -0.027410253054     1.007825032230
         H            2.105465662982     2.558979376364    -0.725478253054     1.007825032230
         H            2.141504662982     2.487706376364     1.063434746946     1.007825032230
         H            1.059014662982     3.640834376364     0.234570746946     1.007825032230
         H           -2.305938337018    -0.822956623636     1.650877746946     1.007825032230
         H           -3.590034337018     0.001282376364     0.847336746946     1.007825032230

  Basis Set: AUG-CC-PVTZ
    Blend: AUG-CC-PVTZ
  Basis Set: (AUG-CC-PVTZ AUX)
    Blend: AUG-CC-PVTZ-JKFIT
	 Reference Energy          =    -512.5435367679908722 [Eh]
	 Singles Energy            =      -0.0000000000000000 [Eh]
	 Same-Spin Energy          =      -0.5360879219672102 [Eh]
	 Opposite-Spin Energy      =      -1.6461073291475790 [Eh]
	 Correlation Energy        =      -2.1821952511147891 [Eh]
	 Total Energy              =    -514.7257320191056351 [Eh]

	 ================> DF-SCS-MP2 Energies <==================
	-----------------------------------------------------------
	 SCS Same-Spin Scale       =       0.3333333333333333 [-]
	 SCS Opposite-Spin Scale   =       1.2000000000000000 [-]
	 SCS Same-Spin Energy      =      -0.1786959739890701 [Eh]
	 SCS Opposite-Spin Energy  =      -1.9753287949770946 [Eh]
	 SCS Correlation Energy    =      -2.1540247689661647 [Eh]
	 SCS Total Energy          =    -514.6975615369569823 [Eh]
	-----------------------------------------------------------

  Dipole Moment: [D]
     X:     2.1341      Y:    -0.9493      Z:     2.8970     Total:     3.7213

*** Psi4 exiting successfully. Buy a developer a beer!
