                               Psi4 1.3.2 release

  ==> Input File <==

--------------------------------------------------------------------------
#psi4
#
memory 32 gb

molecule  {
0 1
 Cl        2.0130890    -0.0049270    -0.0000050
  N       -1.8138400    -0.6574940    -0.0000180
  C       -0.5187430    -1.1124640     0.0000150
  C        0.3867306     0.0103874     0.0000044
  C       -0.5336970     1.1630840     0.0000160
  C       -1.8417450     0.7137110    -0.0000070
  H       -0.2711300    -2.1638270     0.0000120
  H       -2.6309220    -1.2532900     0.0000410
  H       -0.2027490     2.1923290     0.0000180
  H       -2.7761160     1.2570530    -0.0000260
units angstrom
no_reorient  #important for SAPT in psi4, default
symmetry c1  #important for SAPT in psi4, default
}

set PROPERTIES_ORIGIN ["COM"]
properties('MP2/aug-cc-pvtz', properties = ['dipole'])
--------------------------------------------------------------------------

    Molecular point group: c1
  Charge       = 0
  Multiplicity = 1
  Basis Set: AUG-CC-PVTZ
    Blend: AUG-CC-PVTZ
  Basis Set: (AUG-CC-PVTZ AUX)
    Blend: AUG-CC-PVTZ-JKFIT

    Orbital Energies [Eh]
    ---------------------

    Doubly Occupied:

       1A   -104.840925     2A    -15.623459     3A    -11.282978
       4A    -11.275346     5A    -11.268724     6A    -11.231151
       7A    -10.566380     8A     -8.033694     9A     -8.031344
      10A     -8.031274    11A     -1.300003    12A     -1.170507
      13A     -1.022561    14A     -0.971493    15A     -0.799057
      16A     -0.760940    17A     -0.742270    18A     -0.609244
      19A     -0.595673    20A     -0.584486    21A     -0.573820
      22A     -0.556889    23A     -0.502828    24A     -0.438935
      25A     -0.340338    26A     -0.297558

  @DF-RHF Final Energy:  -667.80310048208560

   => Energetics <=

    Nuclear Repulsion Energy =            261.7523912115939879
    One-Electron Energy =               -1436.2072310739467866
    Two-Electron Energy =                 506.6517393802672586
    Total Energy =                       -667.8031004820855969
  Basis Set: (AUG-CC-PVTZ AUX)
    Blend: AUG-CC-PVTZ-RI
    Molecular point group: c1

    Geometry (in Angstrom), charge = 0, multiplicity = 1:

       Center              X                  Y                   Z               Mass
    ------------   -----------------  -----------------  -----------------  -----------------
         CL           1.924184030895    -0.004431071270    -0.000004596573    34.968852682000
         N           -1.902744969105    -0.656998071270    -0.000017596573    14.003074004430
         C           -0.607647969105    -1.111968071270     0.000015403427    12.000000000000
         C            0.297825630895     0.010883328730     0.000004803427    12.000000000000
         C           -0.622601969105     1.163579928730     0.000016403427    12.000000000000
         C           -1.930649969105     0.714206928730    -0.000006596573    12.000000000000
         H           -0.360034969105    -2.163331071270     0.000012403427     1.007825032230
         H           -2.719826969105    -1.252794071270     0.000041403427     1.007825032230
         H           -0.291653969105     2.192824928730     0.000018403427     1.007825032230
         H           -2.865020969105     1.257548928730    -0.000025596573     1.007825032230

  Basis Set: AUG-CC-PVTZ
    Blend: AUG-CC-PVTZ
  Basis Set: (AUG-CC-PVTZ AUX)
    Blend: AUG-CC-PVTZ-JKFIT
	 Reference Energy          =    -667.8031004820855969 [Eh]
	 Singles Energy            =      -0.0000000000000000 [Eh]
	 Same-Spin Energy          =      -0.2957010763546494 [Eh]
	 Opposite-Spin Energy      =      -0.8860197697563273 [Eh]
	 Correlation Energy        =      -1.1817208461109767 [Eh]
	 Total Energy              =    -668.9848213281965172 [Eh]

	 ================> DF-SCS-MP2 Energies <==================
	-----------------------------------------------------------
	 SCS Same-Spin Scale       =       0.3333333333333333 [-]
	 SCS Opposite-Spin Scale   =       1.2000000000000000 [-]
	 SCS Same-Spin Energy      =      -0.0985670254515498 [Eh]
	 SCS Opposite-Spin Energy  =      -1.0632237237075928 [Eh]
	 SCS Correlation Energy    =      -1.1617907491591426 [Eh]
	 SCS Total Energy          =    -668.9648912312447919 [Eh]
	-----------------------------------------------------------

  Dipole Moment: [D]
     X:    -2.8462      Y:    -1.0409      Z:     0.0001     Total:     3.0306

*** Psi4 exiting successfully. Buy a developer a beer!
