                               Psi4 1.3.2 release

  ==> Input File <==

--------------------------------------------------------------------------
#psi4
#
memory 32 gb

molecule  {
0 1
 Cl        2.0130890    -0.0049270    -0.0000050
  N       -1.8138400    -0.6574940    -0.0000180
  C       -0.5187430    -1.1124640     0.0000150
  C        0.1867394     0.0122706     0.0000056
  C       -0.5336970     1.1630840     0.0000160
  C       -1.8417450     0.7137110    -0.0000070
  H       -0.2711300    -2.1638270     0.0000120
  H       -2.6309220    -1.2532900     0.0000410
  H       -0.2027490     2.1923290     0.0000180
  H       -2.7761160     1.2570530    -0.0000260
units angstrom
no_reorient  #important for SAPT in psi4, default
symmetry c1  #important for SAPT in psi4, default
}

set PROPERTIES_ORIGIN ["COM"]
properties('MP2/aug-cc-pvtz', properties = ['dipole'])
--------------------------------------------------------------------------

    Molecular point group: c1
  Charge       = 0
  Multiplicity = 1
  Basis Set: AUG-CC-PVTZ
    Blend: AUG-CC-PVTZ
  Basis Set: (AUG-CC-PVTZ AUX)
    Blend: AUG-CC-PVTZ-JKFIT

    Orbital Energies [Eh]
    ---------------------

    Doubly Occupied:

       1A   -104.823740     2A    -15.625820     3A    -11.277729
       4A    -11.275915     5A    -11.265867     6A    -11.226616
       7A    -10.546225     8A     -8.013006     9A     -8.011364
      10A     -8.011306    11A     -1.320561    12A     -1.122933
      13A     -1.041487    14A     -0.992973    15A     -0.818945
      16A     -0.767380    17A     -0.742474    18A     -0.610813
      19A     -0.601900    20A     -0.600313    21A     -0.591218
      22A     -0.520486    23A     -0.471787    24A     -0.439089
      25A     -0.363164    26A     -0.316835

  @DF-RHF Final Energy:  -667.80959436475939

   => Energetics <=

    Nuclear Repulsion Energy =            262.1407180263463488
    One-Electron Energy =               -1437.1007353417469403
    Two-Electron Energy =                 507.1504229506412003
    Total Energy =                       -667.8095943647593913
  Basis Set: (AUG-CC-PVTZ AUX)
    Blend: AUG-CC-PVTZ-RI
    Molecular point group: c1

    Geometry (in Angstrom), charge = 0, multiplicity = 1:

       Center              X                  Y                   Z               Mass
    ------------   -----------------  -----------------  -----------------  -----------------
         CL           1.947944602470    -0.004654810657    -0.000004739142    34.968852682000
         N           -1.878984397530    -0.657221810657    -0.000017739142    14.003074004430
         C           -0.583887397530    -1.112191810657     0.000015260858    12.000000000000
         C            0.121595002470     0.012542789343     0.000005860858    12.000000000000
         C           -0.598841397530     1.163356189343     0.000016260858    12.000000000000
         C           -1.906889397530     0.713983189343    -0.000006739142    12.000000000000
         H           -0.336274397530    -2.163554810657     0.000012260858     1.007825032230
         H           -2.696066397530    -1.253017810657     0.000041260858     1.007825032230
         H           -0.267893397530     2.192601189343     0.000018260858     1.007825032230
         H           -2.841260397530     1.257325189343    -0.000025739142     1.007825032230

  Basis Set: AUG-CC-PVTZ
    Blend: AUG-CC-PVTZ
  Basis Set: (AUG-CC-PVTZ AUX)
    Blend: AUG-CC-PVTZ-JKFIT
	 Reference Energy          =    -667.8095943647593913 [Eh]
	 Singles Energy            =      -0.0000000000000000 [Eh]
	 Same-Spin Energy          =      -0.2937591162506208 [Eh]
	 Opposite-Spin Energy      =      -0.8827879192122998 [Eh]
	 Correlation Energy        =      -1.1765470354629206 [Eh]
	 Total Energy              =    -668.9861414002223228 [Eh]

	 ================> DF-SCS-MP2 Energies <==================
	-----------------------------------------------------------
	 SCS Same-Spin Scale       =       0.3333333333333333 [-]
	 SCS Opposite-Spin Scale   =       1.2000000000000000 [-]
	 SCS Same-Spin Energy      =      -0.0979197054168736 [Eh]
	 SCS Opposite-Spin Energy  =      -1.0593455030547598 [Eh]
	 SCS Correlation Energy    =      -1.1572652084716335 [Eh]
	 SCS Total Energy          =    -668.9668595732309768 [Eh]
	-----------------------------------------------------------

  Dipole Moment: [D]
     X:    -3.6454      Y:    -1.0148      Z:     0.0001     Total:     3.7840

*** Psi4 exiting successfully. Buy a developer a beer!
