                               Psi4 1.3.2 release

  ==> Input File <==

--------------------------------------------------------------------------
#psi4
#
memory 32 gb

molecule  {
0 1
 Cl        2.0053311     0.1756152    -0.0000058
  N       -1.8138400    -0.6574940    -0.0000180
  C       -0.5187430    -1.1124640     0.0000150
  C        0.2867350     0.0113290     0.0000050
  C       -0.5336970     1.1630840     0.0000160
  C       -1.8417450     0.7137110    -0.0000070
  H       -0.2711300    -2.1638270     0.0000120
  H       -2.6309220    -1.2532900     0.0000410
  H       -0.2027490     2.1923290     0.0000180
  H       -2.7761160     1.2570530    -0.0000260
units angstrom
no_reorient  #important for SAPT in psi4, default
symmetry c1  #important for SAPT in psi4, default
}

set PROPERTIES_ORIGIN ["COM"]
properties('MP2/aug-cc-pvtz', properties = ['dipole'])
--------------------------------------------------------------------------

    Molecular point group: c1
  Charge       = 0
  Multiplicity = 1
  Basis Set: AUG-CC-PVTZ
    Blend: AUG-CC-PVTZ
  Basis Set: (AUG-CC-PVTZ AUX)
    Blend: AUG-CC-PVTZ-JKFIT

    Orbital Energies [Eh]
    ---------------------

    Doubly Occupied:

       1A   -104.834238     2A    -15.624326     3A    -11.279553
       4A    -11.272522     5A    -11.270768     6A    -11.225468
       7A    -10.557810     8A     -8.024812     9A     -8.022872
      10A     -8.022814    11A     -1.308533    12A     -1.142585
      13A     -1.031387    14A     -0.983758    15A     -0.807814
      16A     -0.762605    17A     -0.743052    18A     -0.605816
      19A     -0.599833    20A     -0.590785    21A     -0.572682
      22A     -0.549114    23A     -0.487193    24A     -0.442335
      25A     -0.349670    26A     -0.309033

  @DF-RHF Final Energy:  -667.81732453301322

   => Energetics <=

    Nuclear Repulsion Energy =            261.9136723099321102
    One-Electron Energy =               -1436.6192421869668578
    Two-Electron Energy =                 506.8882453440215272
    Total Energy =                       -667.8173245330133341
  Basis Set: (AUG-CC-PVTZ AUX)
    Blend: AUG-CC-PVTZ-RI
    Molecular point group: c1

    Geometry (in Angstrom), charge = 0, multiplicity = 1:

       Center              X                  Y                   Z               Mass
    ------------   -----------------  -----------------  -----------------  -----------------
         CL           1.930992319606     0.113492804602    -0.000005190885    34.968852682000
         N           -1.888178780394    -0.719616395398    -0.000017390885    14.003074004430
         C           -0.593081780394    -1.174586395398     0.000015609115    12.000000000000
         C            0.212396219606    -0.050793395398     0.000005609115    12.000000000000
         C           -0.608035780394     1.100961604602     0.000016609115    12.000000000000
         C           -1.916083780394     0.651588604602    -0.000006390885    12.000000000000
         H           -0.345468780394    -2.225949395398     0.000012609115     1.007825032230
         H           -2.705260780394    -1.315412395398     0.000041609115     1.007825032230
         H           -0.277087780394     2.130206604602     0.000018609115     1.007825032230
         H           -2.850454780394     1.194930604602    -0.000025390885     1.007825032230

  Basis Set: AUG-CC-PVTZ
    Blend: AUG-CC-PVTZ
  Basis Set: (AUG-CC-PVTZ AUX)
    Blend: AUG-CC-PVTZ-JKFIT
	 Reference Energy          =    -667.8173245330132204 [Eh]
	 Singles Energy            =      -0.0000000000000000 [Eh]
	 Same-Spin Energy          =      -0.2942259966697331 [Eh]
	 Opposite-Spin Energy      =      -0.8837466038319948 [Eh]
	 Correlation Energy        =      -1.1779726005017279 [Eh]
	 Total Energy              =    -668.9952971335148959 [Eh]

	 ================> DF-SCS-MP2 Energies <==================
	-----------------------------------------------------------
	 SCS Same-Spin Scale       =       0.3333333333333333 [-]
	 SCS Opposite-Spin Scale   =       1.2000000000000000 [-]
	 SCS Same-Spin Energy      =      -0.0980753322232444 [Eh]
	 SCS Opposite-Spin Energy  =      -1.0604959245983936 [Eh]
	 SCS Correlation Energy    =      -1.1585712568216380 [Eh]
	 SCS Total Energy          =    -668.9758957898349081 [Eh]
	-----------------------------------------------------------

  Dipole Moment: [D]
     X:    -3.2061      Y:    -1.1173      Z:     0.0001     Total:     3.3952

*** Psi4 exiting successfully. Buy a developer a beer!
