                               Psi4 1.4a3.dev225

  ==> Input File <==

--------------------------------------------------------------------------
#psi4
#
memory 32 gb

molecule  {
0 1
 Cl        2.0130890    -0.0049270    -0.0000050
  N       -1.8138400    -0.6574940    -0.0000180
  C       -0.5187430    -1.1124640     0.0000150
  C        0.3067341     0.0111407     0.0000049
  C       -0.5336970     1.1630840     0.0000160
  C       -1.8417450     0.7137110    -0.0000070
  H       -0.2711300    -2.1638270     0.0000120
  H       -2.6309220    -1.2532900     0.0000410
  H       -0.2027490     2.1923290     0.0000180
  H       -2.7761160     1.2570530    -0.0000260
units angstrom
no_reorient  #important for SAPT in psi4, default
symmetry c1  #important for SAPT in psi4, default
}

set PROPERTIES_ORIGIN ["COM"]
properties('MP2/aug-cc-pvtz', properties = ['dipole'])
--------------------------------------------------------------------------

    Molecular point group: c1
  Charge       = 0
  Multiplicity = 1
  Basis Set: AUG-CC-PVTZ
    Blend: AUG-CC-PVTZ
  Basis Set: (AUG-CC-PVTZ AUX)
    Blend: AUG-CC-PVTZ-JKFIT

    Orbital Energies [Eh]
    ---------------------

    Doubly Occupied:

       1A   -104.835571     2A    -15.623952     3A    -11.279760
       4A    -11.271162     5A    -11.270877     6A    -11.228754
       7A    -10.559423     8A     -8.026484     9A     -8.024484
      10A     -8.024420    11A     -1.306451    12A     -1.146796
      13A     -1.031324    14A     -0.980151    15A     -0.806092
      16A     -0.762083    17A     -0.743304    18A     -0.603991
      19A     -0.599513    20A     -0.589121    21A     -0.568949
      22A     -0.556208    23A     -0.489888    24A     -0.443217
      25A     -0.348787    26A     -0.305966

  @DF-RHF Final Energy:  -667.81794568039390

   => Energetics <=

    Nuclear Repulsion Energy =            261.7742353006354961
    One-Electron Energy =               -1436.3309091304447520
    Two-Electron Energy =                 506.7387281494154649
    Total Energy =                       -667.8179456803939047
  Basis Set: (AUG-CC-PVTZ AUX)
    Blend: AUG-CC-PVTZ-RI
    Molecular point group: c1

    Geometry (in Angstrom), charge = 0, multiplicity = 1:

       Center              X                  Y                   Z               Mass
    ------------   -----------------  -----------------  -----------------  -----------------
         CL           1.933688261901    -0.004520569401    -0.000004655977    34.968852682000
         N           -1.893240738099    -0.657087569401    -0.000017655977    14.003074004430
         C           -0.598143738099    -1.112057569401     0.000015344023    12.000000000000
         C            0.227333361901     0.011547130599     0.000005244023    12.000000000000
         C           -0.613097738099     1.163490430599     0.000016344023    12.000000000000
         C           -1.921145738099     0.714117430599    -0.000006655977    12.000000000000
         H           -0.350530738099    -2.163420569401     0.000012344023     1.007825032230
         H           -2.710322738099    -1.252883569401     0.000041344023     1.007825032230
         H           -0.282149738099     2.192735430599     0.000018344023     1.007825032230
         H           -2.855516738099     1.257459430599    -0.000025655977     1.007825032230

  Basis Set: AUG-CC-PVTZ
    Blend: AUG-CC-PVTZ
  Basis Set: (AUG-CC-PVTZ AUX)
    Blend: AUG-CC-PVTZ-JKFIT
	 Reference Energy          =    -667.8179456803939047 [Eh]
	 Singles Energy            =      -0.0000000000000000 [Eh]
	 Same-Spin Energy          =      -0.2944418694767357 [Eh]
	 Opposite-Spin Energy      =      -0.8840295568066288 [Eh]
	 Correlation Energy        =      -1.1784714262833644 [Eh]
	 Total Energy              =    -668.9964171066773133 [Eh]

	 ================> DF-SCS-MP2 Energies <==================
	-----------------------------------------------------------
	 SCS Same-Spin Scale       =       0.3333333333333333 [-]
	 SCS Opposite-Spin Scale   =       1.2000000000000000 [-]
	 SCS Same-Spin Energy      =      -0.0981472898255785 [Eh]
	 SCS Opposite-Spin Energy  =      -1.0608354681679544 [Eh]
	 SCS Correlation Energy    =      -1.1589827579935330 [Eh]
	 SCS Total Energy          =    -668.9769284383874037 [Eh]
	-----------------------------------------------------------

  Dipole Moment: [D]
     X:    -3.1449      Y:    -1.0373      Z:     0.0001     Total:     3.3116

*** Psi4 exiting successfully. Buy a developer a beer!
