                               Psi4 1.3.2 release

  ==> Input File <==

--------------------------------------------------------------------------
#psi4
#
memory 32 gb

molecule  {
0 1
 Cl        2.0100176     0.1155370    -0.0000056
  N       -1.8138400    -0.6574940    -0.0000180
  C       -0.5187430    -1.1124640     0.0000150
  C        0.2867350     0.0113290     0.0000050
  C       -0.5336970     1.1630840     0.0000160
  C       -1.8417450     0.7137110    -0.0000070
  H       -0.2711300    -2.1638270     0.0000120
  H       -2.6309220    -1.2532900     0.0000410
  H       -0.2027490     2.1923290     0.0000180
  H       -2.7761160     1.2570530    -0.0000260
units angstrom
no_reorient  #important for SAPT in psi4, default
symmetry c1  #important for SAPT in psi4, default
}

set PROPERTIES_ORIGIN ["COM"]
properties('MP2/aug-cc-pvtz', properties = ['dipole'])
--------------------------------------------------------------------------

    Molecular point group: c1
  Charge       = 0
  Multiplicity = 1
  Basis Set: AUG-CC-PVTZ
    Blend: AUG-CC-PVTZ
  Basis Set: (AUG-CC-PVTZ AUX)
    Blend: AUG-CC-PVTZ-JKFIT

    Orbital Energies [Eh]
    ---------------------

    Doubly Occupied:

       1A   -104.834180     2A    -15.624279     3A    -11.279427
       4A    -11.271728     5A    -11.271043     6A    -11.226391
       7A    -10.557735     8A     -8.024739     9A     -8.022804
      10A     -8.022746    11A     -1.308489    12A     -1.142236
      13A     -1.032090    14A     -0.983294    15A     -0.807885
      16A     -0.762618    17A     -0.743150    18A     -0.605202
      19A     -0.599846    20A     -0.590726    21A     -0.572607
      22A     -0.549881    23A     -0.487049    24A     -0.442812
      25A     -0.350160    26A     -0.308655

  @DF-RHF Final Energy:  -667.81830949494054

   => Energetics <=

    Nuclear Repulsion Energy =            261.8468407497046542
    One-Electron Energy =               -1436.4867559857959805
    Two-Electron Energy =                 506.8216057411507904
    Total Energy =                       -667.8183094949406495
  Basis Set: (AUG-CC-PVTZ AUX)
    Blend: AUG-CC-PVTZ-RI
    Molecular point group: c1

    Geometry (in Angstrom), charge = 0, multiplicity = 1:

       Center              X                  Y                   Z               Mass
    ------------   -----------------  -----------------  -----------------  -----------------
         CL           1.934056282057     0.074214590815    -0.000005060128    34.968852682000
         N           -1.889801317943    -0.698816409185    -0.000017460128    14.003074004430
         C           -0.594704317943    -1.153786409185     0.000015539872    12.000000000000
         C            0.210773682057    -0.029993409185     0.000005539872    12.000000000000
         C           -0.609658317943     1.121761590815     0.000016539872    12.000000000000
         C           -1.917706317943     0.672388590815    -0.000006460128    12.000000000000
         H           -0.347091317943    -2.205149409185     0.000012539872     1.007825032230
         H           -2.706883317943    -1.294612409185     0.000041539872     1.007825032230
         H           -0.278710317943     2.151006590815     0.000018539872     1.007825032230
         H           -2.852077317943     1.215730590815    -0.000025460128     1.007825032230

  Basis Set: AUG-CC-PVTZ
    Blend: AUG-CC-PVTZ
  Basis Set: (AUG-CC-PVTZ AUX)
    Blend: AUG-CC-PVTZ-JKFIT
	 Reference Energy          =    -667.8183094949405358 [Eh]
	 Singles Energy            =      -0.0000000000000000 [Eh]
	 Same-Spin Energy          =      -0.2942073422817694 [Eh]
	 Opposite-Spin Energy      =      -0.8836893587839174 [Eh]
	 Correlation Energy        =      -1.1778967010656869 [Eh]
	 Total Energy              =    -668.9962061960062556 [Eh]

	 ================> DF-SCS-MP2 Energies <==================
	-----------------------------------------------------------
	 SCS Same-Spin Scale       =       0.3333333333333333 [-]
	 SCS Opposite-Spin Scale   =       1.2000000000000000 [-]
	 SCS Same-Spin Energy      =      -0.0980691140939231 [Eh]
	 SCS Opposite-Spin Energy  =      -1.0604272305407008 [Eh]
	 SCS Correlation Energy    =      -1.1584963446346239 [Eh]
	 SCS Total Energy          =    -668.9768058395751495 [Eh]
	-----------------------------------------------------------

  Dipole Moment: [D]
     X:    -3.2114      Y:    -1.0901      Z:     0.0001     Total:     3.3914

*** Psi4 exiting successfully. Buy a developer a beer!
