                               Psi4 1.3.2 release

  ==> Input File <==

--------------------------------------------------------------------------
#psi4
#
memory 32 gb

molecule  {
0 1
 Cl        2.0077497    -0.1253118    -0.0000044
  N       -1.8138400    -0.6574940    -0.0000180
  C       -0.5187430    -1.1124640     0.0000150
  C        0.2867350     0.0113290     0.0000050
  C       -0.5336970     1.1630840     0.0000160
  C       -1.8417450     0.7137110    -0.0000070
  H       -0.2711300    -2.1638270     0.0000120
  H       -2.6309220    -1.2532900     0.0000410
  H       -0.2027490     2.1923290     0.0000180
  H       -2.7761160     1.2570530    -0.0000260
units angstrom
no_reorient  #important for SAPT in psi4, default
symmetry c1  #important for SAPT in psi4, default
}

set PROPERTIES_ORIGIN ["COM"]
properties('MP2/aug-cc-pvtz', properties = ['dipole'])
--------------------------------------------------------------------------

    Molecular point group: c1
  Charge       = 0
  Multiplicity = 1
  Basis Set: AUG-CC-PVTZ
    Blend: AUG-CC-PVTZ
  Basis Set: (AUG-CC-PVTZ AUX)
    Blend: AUG-CC-PVTZ-JKFIT

    Orbital Energies [Eh]
    ---------------------

    Doubly Occupied:

       1A   -104.833612     2A    -15.623943     3A    -11.278829
       4A    -11.271983     5A    -11.268603     6A    -11.230088
       7A    -10.557172     8A     -8.024181     9A     -8.022252
      10A     -8.022181    11A     -1.308280    12A     -1.141709
      13A     -1.034526    14A     -0.981124    15A     -0.808210
      16A     -0.762746    17A     -0.743498    18A     -0.603111
      19A     -0.599940    20A     -0.590530    21A     -0.572668
      22A     -0.551512    23A     -0.486548    24A     -0.443197
      25A     -0.351948    26A     -0.307022

  @DF-RHF Final Energy:  -667.81806969473678

   => Energetics <=

    Nuclear Repulsion Energy =            261.8995355875401287
    One-Electron Energy =               -1436.5963858751263160
    Two-Electron Energy =                 506.8787805928493526
    Total Energy =                       -667.8180696947367778
  Basis Set: (AUG-CC-PVTZ AUX)
    Blend: AUG-CC-PVTZ-RI
    Molecular point group: c1

    Geometry (in Angstrom), charge = 0, multiplicity = 1:

       Center              X                  Y                   Z               Mass
    ------------   -----------------  -----------------  -----------------  -----------------
         CL           1.932573563516    -0.083248692986    -0.000004275587    34.968852682000
         N           -1.889016136484    -0.615430892986    -0.000017875587    14.003074004430
         C           -0.593919136484    -1.070400892986     0.000015124413    12.000000000000
         C            0.211558863516     0.053392107014     0.000005124413    12.000000000000
         C           -0.608873136484     1.205147107014     0.000016124413    12.000000000000
         C           -1.916921136484     0.755774107014    -0.000006875587    12.000000000000
         H           -0.346306136484    -2.121763892986     0.000012124413     1.007825032230
         H           -2.706098136484    -1.211226892986     0.000041124413     1.007825032230
         H           -0.277925136484     2.234392107014     0.000018124413     1.007825032230
         H           -2.851292136484     1.299116107014    -0.000025875587     1.007825032230

  Basis Set: AUG-CC-PVTZ
    Blend: AUG-CC-PVTZ
  Basis Set: (AUG-CC-PVTZ AUX)
    Blend: AUG-CC-PVTZ-JKFIT
	 Reference Energy          =    -667.8180696947367778 [Eh]
	 Singles Energy            =      -0.0000000000000000 [Eh]
	 Same-Spin Energy          =      -0.2943382698777020 [Eh]
	 Opposite-Spin Energy      =      -0.8838495741649675 [Eh]
	 Correlation Energy        =      -1.1781878440426694 [Eh]
	 Total Energy              =    -668.9962575387794459 [Eh]

	 ================> DF-SCS-MP2 Energies <==================
	-----------------------------------------------------------
	 SCS Same-Spin Scale       =       0.3333333333333333 [-]
	 SCS Opposite-Spin Scale   =       1.2000000000000000 [-]
	 SCS Same-Spin Energy      =      -0.0981127566259007 [Eh]
	 SCS Opposite-Spin Energy  =      -1.0606194889979610 [Eh]
	 SCS Correlation Energy    =      -1.1587322456238616 [Eh]
	 SCS Total Energy          =    -668.9768019403605877 [Eh]
	-----------------------------------------------------------

  Dipole Moment: [D]
     X:    -3.2326      Y:    -0.9788      Z:     0.0001     Total:     3.3776

*** Psi4 exiting successfully. Buy a developer a beer!
