                               Psi4 1.3.2 release

  ==> Input File <==

--------------------------------------------------------------------------
#psi4
#
memory 32 gb

molecule  {
0 1
 Cl        2.0130890    -0.0049270    -0.0000050
  N       -1.8138400    -0.6574940    -0.0000180
  C       -0.5187430    -1.1124640     0.0000150
  C        0.0867439     0.0132122     0.0000062
  C       -0.5336970     1.1630840     0.0000160
  C       -1.8417450     0.7137110    -0.0000070
  H       -0.2711300    -2.1638270     0.0000120
  H       -2.6309220    -1.2532900     0.0000410
  H       -0.2027490     2.1923290     0.0000180
  H       -2.7761160     1.2570530    -0.0000260
units angstrom
no_reorient  #important for SAPT in psi4, default
symmetry c1  #important for SAPT in psi4, default
}

set PROPERTIES_ORIGIN ["COM"]
properties('MP2/aug-cc-pvtz', properties = ['dipole'])
--------------------------------------------------------------------------

    Molecular point group: c1
  Charge       = 0
  Multiplicity = 1
  Basis Set: AUG-CC-PVTZ
    Blend: AUG-CC-PVTZ
  Basis Set: (AUG-CC-PVTZ AUX)
    Blend: AUG-CC-PVTZ-JKFIT

    Orbital Energies [Eh]
    ---------------------

    Doubly Occupied:

       1A   -104.808883     2A    -15.629421     3A    -11.282583
       4A    -11.280033     5A    -11.263738     6A    -11.227400
       7A    -10.531035     8A     -7.997648     9A     -7.996229
      10A     -7.996173    11A     -1.337793    12A     -1.115862
      13A     -1.044765    14A     -1.002686    15A     -0.831755
      16A     -0.774831    17A     -0.741140    18A     -0.628798
      19A     -0.614211    20A     -0.613627    21A     -0.596242
      22A     -0.485657    23A     -0.457402    24A     -0.428858
      25A     -0.375029    26A     -0.326098

  @DF-RHF Final Energy:  -667.77725047699755

   => Energetics <=

    Nuclear Repulsion Energy =            262.6954144623070420
    One-Electron Energy =               -1438.1695353355066800
    Two-Electron Energy =                 507.6968703962020868
    Total Energy =                       -667.7772504769975512
  Basis Set: (AUG-CC-PVTZ AUX)
    Blend: AUG-CC-PVTZ-RI
    Molecular point group: c1

    Geometry (in Angstrom), charge = 0, multiplicity = 1:

       Center              X                  Y                   Z               Mass
    ------------   -----------------  -----------------  -----------------  -----------------
         CL           1.959824876376    -0.004766680350    -0.000004810427    34.968852682000
         N           -1.867104123624    -0.657333680350    -0.000017810427    14.003074004430
         C           -0.572007123624    -1.112303680350     0.000015189573    12.000000000000
         C            0.033479776376     0.013372519650     0.000006389573    12.000000000000
         C           -0.586961123624     1.163244319650     0.000016189573    12.000000000000
         C           -1.895009123624     0.713871319650    -0.000006810427    12.000000000000
         H           -0.324394123624    -2.163666680350     0.000012189573     1.007825032230
         H           -2.684186123624    -1.253129680350     0.000041189573     1.007825032230
         H           -0.256013123624     2.192489319650     0.000018189573     1.007825032230
         H           -2.829380123624     1.257213319650    -0.000025810427     1.007825032230

  Basis Set: AUG-CC-PVTZ
    Blend: AUG-CC-PVTZ
  Basis Set: (AUG-CC-PVTZ AUX)
    Blend: AUG-CC-PVTZ-JKFIT
	 Reference Energy          =    -667.7772504769975512 [Eh]
	 Singles Energy            =      -0.0000000000000000 [Eh]
	 Same-Spin Energy          =      -0.2941204848647230 [Eh]
	 Opposite-Spin Energy      =      -0.8828587478464355 [Eh]
	 Correlation Energy        =      -1.1769792327111586 [Eh]
	 Total Energy              =    -668.9542297097086703 [Eh]

	 ================> DF-SCS-MP2 Energies <==================
	-----------------------------------------------------------
	 SCS Same-Spin Scale       =       0.3333333333333333 [-]
	 SCS Opposite-Spin Scale   =       1.2000000000000000 [-]
	 SCS Same-Spin Energy      =      -0.0980401616215743 [Eh]
	 SCS Opposite-Spin Energy  =      -1.0594304974157225 [Eh]
	 SCS Correlation Energy    =      -1.1574706590372967 [Eh]
	 SCS Total Energy          =    -668.9347211360347956 [Eh]
	-----------------------------------------------------------

  Dipole Moment: [D]
     X:    -4.1793      Y:    -0.9805      Z:     0.0001     Total:     4.2927

*** Psi4 exiting successfully. Buy a developer a beer!
