                               Psi4 1.3.2 release

  ==> Input File <==

--------------------------------------------------------------------------
#psi4
#
memory 32 gb

molecule  {
0 1
 Cl        2.0114700    -0.0651660    -0.0000047
  N       -1.8138400    -0.6574940    -0.0000180
  C       -0.5187430    -1.1124640     0.0000150
  C        0.2867350     0.0113290     0.0000050
  C       -0.5336970     1.1630840     0.0000160
  C       -1.8417450     0.7137110    -0.0000070
  H       -0.2711300    -2.1638270     0.0000120
  H       -2.6309220    -1.2532900     0.0000410
  H       -0.2027490     2.1923290     0.0000180
  H       -2.7761160     1.2570530    -0.0000260
units angstrom
no_reorient  #important for SAPT in psi4, default
symmetry c1  #important for SAPT in psi4, default
}

set PROPERTIES_ORIGIN ["COM"]
properties('MP2/aug-cc-pvtz', properties = ['dipole'])
--------------------------------------------------------------------------

    Molecular point group: c1
  Charge       = 0
  Multiplicity = 1
  Basis Set: AUG-CC-PVTZ
    Blend: AUG-CC-PVTZ
  Basis Set: (AUG-CC-PVTZ AUX)
    Blend: AUG-CC-PVTZ-JKFIT

    Orbital Energies [Eh]
    ---------------------

    Doubly Occupied:

       1A   -104.833804     2A    -15.624050     3A    -11.278992
       4A    -11.271772     5A    -11.269375     6A    -11.229164
       7A    -10.557352     8A     -8.024360     9A     -8.022431
      10A     -8.022365    11A     -1.308337    12A     -1.141710
      13A     -1.033968    14A     -0.981718    15A     -0.808123
      16A     -0.762701    17A     -0.743418    18A     -0.603572
      19A     -0.599905    20A     -0.590573    21A     -0.572584
      22A     -0.551353    23A     -0.486663    24A     -0.443322
      25A     -0.351525    26A     -0.307450

  @DF-RHF Final Energy:  -667.81875405453718

   => Energetics <=

    Nuclear Repulsion Energy =            261.8383921592898673
    One-Electron Energy =               -1436.4731190561406038
    Two-Electron Energy =                 506.8159728423134425
    Total Energy =                       -667.8187540545372940
  Basis Set: (AUG-CC-PVTZ AUX)
    Blend: AUG-CC-PVTZ-RI
    Molecular point group: c1

    Geometry (in Angstrom), charge = 0, multiplicity = 1:

       Center              X                  Y                   Z               Mass
    ------------   -----------------  -----------------  -----------------  -----------------
         CL           1.935005839096    -0.043926283346    -0.000004471722    34.968852682000
         N           -1.890304160904    -0.636254283346    -0.000017771722    14.003074004430
         C           -0.595207160904    -1.091224283346     0.000015228278    12.000000000000
         C            0.210270839096     0.032568716654     0.000005228278    12.000000000000
         C           -0.610161160904     1.184323716654     0.000016228278    12.000000000000
         C           -1.918209160904     0.734950716654    -0.000006771722    12.000000000000
         H           -0.347594160904    -2.142587283346     0.000012228278     1.007825032230
         H           -2.707386160904    -1.232050283346     0.000041228278     1.007825032230
         H           -0.279213160904     2.213568716654     0.000018228278     1.007825032230
         H           -2.852580160904     1.278292716654    -0.000025771722     1.007825032230

  Basis Set: AUG-CC-PVTZ
    Blend: AUG-CC-PVTZ
  Basis Set: (AUG-CC-PVTZ AUX)
    Blend: AUG-CC-PVTZ-JKFIT
	 Reference Energy          =    -667.8187540545371803 [Eh]
	 Singles Energy            =      -0.0000000000000000 [Eh]
	 Same-Spin Energy          =      -0.2942748420955440 [Eh]
	 Opposite-Spin Energy      =      -0.8837508094186552 [Eh]
	 Correlation Energy        =      -1.1780256515141994 [Eh]
	 Total Energy              =    -668.9967797060513703 [Eh]

	 ================> DF-SCS-MP2 Energies <==================
	-----------------------------------------------------------
	 SCS Same-Spin Scale       =       0.3333333333333333 [-]
	 SCS Opposite-Spin Scale   =       1.2000000000000000 [-]
	 SCS Same-Spin Energy      =      -0.0980916140318480 [Eh]
	 SCS Opposite-Spin Energy  =      -1.0605009713023863 [Eh]
	 SCS Correlation Energy    =      -1.1585925853342343 [Eh]
	 SCS Total Energy          =    -668.9773466398713708 [Eh]
	-----------------------------------------------------------

  Dipole Moment: [D]
     X:    -3.2273      Y:    -1.0070      Z:     0.0001     Total:     3.3808

*** Psi4 exiting successfully. Buy a developer a beer!
