                               Psi4 1.3.2 release

  ==> Input File <==

--------------------------------------------------------------------------
#psi4
#
memory 32 gb

molecule  {
0 1
 Cl        2.0126047     0.0553318    -0.0000047
  N       -1.8138400    -0.6574940    -0.0000180
  C       -0.5187430    -1.1124640     0.0000150
  C        0.2867350     0.0113290     0.0000050
  C       -0.5336970     1.1630840     0.0000160
  C       -1.8417450     0.7137110    -0.0000070
  H       -0.2711300    -2.1638270     0.0000120
  H       -2.6309220    -1.2532900     0.0000410
  H       -0.2027490     2.1923290     0.0000180
  H       -2.7761160     1.2570530    -0.0000260
units angstrom
no_reorient  #important for SAPT in psi4, default
symmetry c1  #important for SAPT in psi4, default
}

set PROPERTIES_ORIGIN ["COM"]
properties('MP2/aug-cc-pvtz', properties = ['dipole'])
--------------------------------------------------------------------------

    Molecular point group: c1
  Charge       = 0
  Multiplicity = 1
  Basis Set: AUG-CC-PVTZ
    Blend: AUG-CC-PVTZ
  Basis Set: (AUG-CC-PVTZ AUX)
    Blend: AUG-CC-PVTZ-JKFIT

    Orbital Energies [Eh]
    ---------------------

    Doubly Occupied:

       1A   -104.834088     2A    -15.624218     3A    -11.279291
       4A    -11.271303     5A    -11.270937     6A    -11.227315
       7A    -10.557634     8A     -8.024640     9A     -8.022708
      10A     -8.022648    11A     -1.308441    12A     -1.141975
      13A     -1.032753    14A     -0.982800    15A     -0.807960
      16A     -0.762638    17A     -0.743244    18A     -0.604620
      19A     -0.599861    20A     -0.590671    21A     -0.572562
      22A     -0.550522    23A     -0.486913    24A     -0.443132
      25A     -0.350632    26A     -0.308265

  @DF-RHF Final Energy:  -667.81887362486077

   => Energetics <=

    Nuclear Repulsion Energy =            261.8120639717099607
    One-Electron Energy =               -1436.4183336708736078
    Two-Electron Energy =                 506.7873960743029329
    Total Energy =                       -667.8188736248607711
  Basis Set: (AUG-CC-PVTZ AUX)
    Blend: AUG-CC-PVTZ-RI
    Molecular point group: c1

    Geometry (in Angstrom), charge = 0, multiplicity = 1:

       Center              X                  Y                   Z               Mass
    ------------   -----------------  -----------------  -----------------  -----------------
         CL           1.935747688705     0.034853346358    -0.000004471722    34.968852682000
         N           -1.890697011295    -0.677972453642    -0.000017771722    14.003074004430
         C           -0.595600011295    -1.132942453642     0.000015228278    12.000000000000
         C            0.209877988705    -0.009149453642     0.000005228278    12.000000000000
         C           -0.610554011295     1.142605546358     0.000016228278    12.000000000000
         C           -1.918602011295     0.693232546358    -0.000006771722    12.000000000000
         H           -0.347987011295    -2.184305453642     0.000012228278     1.007825032230
         H           -2.707779011295    -1.273768453642     0.000041228278     1.007825032230
         H           -0.279606011295     2.171850546358     0.000018228278     1.007825032230
         H           -2.852973011295     1.236574546358    -0.000025771722     1.007825032230

  Basis Set: AUG-CC-PVTZ
    Blend: AUG-CC-PVTZ
  Basis Set: (AUG-CC-PVTZ AUX)
    Blend: AUG-CC-PVTZ-JKFIT
	 Reference Energy          =    -667.8188736248607711 [Eh]
	 Singles Energy            =      -0.0000000000000000 [Eh]
	 Same-Spin Energy          =      -0.2942094336894411 [Eh]
	 Opposite-Spin Energy      =      -0.8836709691351787 [Eh]
	 Correlation Energy        =      -1.1778804028246199 [Eh]
	 Total Energy              =    -668.9967540276853697 [Eh]

	 ================> DF-SCS-MP2 Energies <==================
	-----------------------------------------------------------
	 SCS Same-Spin Scale       =       0.3333333333333333 [-]
	 SCS Opposite-Spin Scale   =       1.2000000000000000 [-]
	 SCS Same-Spin Energy      =      -0.0980698112298137 [Eh]
	 SCS Opposite-Spin Energy  =      -1.0604051629622144 [Eh]
	 SCS Correlation Energy    =      -1.1584749741920282 [Eh]
	 SCS Total Energy          =    -668.9773485990527888 [Eh]
	-----------------------------------------------------------

  Dipole Moment: [D]
     X:    -3.2167      Y:    -1.0627      Z:     0.0001     Total:     3.3877

*** Psi4 exiting successfully. Buy a developer a beer!
