                               Psi4 1.3.2 release

  ==> Input File <==

--------------------------------------------------------------------------
#psi4
#
memory 32 gb

molecule  {
0 1
 Cl        2.0130890    -0.0049270    -0.0000050
  N       -1.8138400    -0.6574940    -0.0000180
  C       -0.5187430    -1.1124640     0.0000150
  C        0.4867261     0.0094458     0.0000038
  C       -0.5336970     1.1630840     0.0000160
  C       -1.8417450     0.7137110    -0.0000070
  H       -0.2711300    -2.1638270     0.0000120
  H       -2.6309220    -1.2532900     0.0000410
  H       -0.2027490     2.1923290     0.0000180
  H       -2.7761160     1.2570530    -0.0000260
units angstrom
no_reorient  #important for SAPT in psi4, default
symmetry c1  #important for SAPT in psi4, default
}

set PROPERTIES_ORIGIN ["COM"]
properties('MP2/aug-cc-pvtz', properties = ['dipole'])
--------------------------------------------------------------------------

    Molecular point group: c1
  Charge       = 0
  Multiplicity = 1
  Basis Set: AUG-CC-PVTZ
    Blend: AUG-CC-PVTZ
  Basis Set: (AUG-CC-PVTZ AUX)
    Blend: AUG-CC-PVTZ-JKFIT

    Orbital Energies [Eh]
    ---------------------

    Doubly Occupied:

       1A   -104.846038     2A    -15.622957     3A    -11.288068
       4A    -11.280136     5A    -11.266828     6A    -11.234310
       7A    -10.574496     8A     -8.042236     9A     -8.039215
      10A     -8.039139    11A     -1.294243    12A     -1.208265
      13A     -1.011917    14A     -0.959642    15A     -0.791827
      16A     -0.761592    17A     -0.739191    18A     -0.622741
      19A     -0.590479    20A     -0.584985    21A     -0.582042
      22A     -0.552232    23A     -0.520268    24A     -0.423798
      25A     -0.331942    26A     -0.284456

  @DF-RHF Final Energy:  -667.75868738105100

   => Energetics <=

    Nuclear Repulsion Energy =            262.0245582646407456
    One-Electron Energy =               -1436.5804067972480880
    Two-Electron Energy =                 506.7971611515563382
    Total Energy =                       -667.7586873810510042
  Basis Set: (AUG-CC-PVTZ AUX)
    Blend: AUG-CC-PVTZ-RI
    Molecular point group: c1

    Geometry (in Angstrom), charge = 0, multiplicity = 1:

       Center              X                  Y                   Z               Mass
    ------------   -----------------  -----------------  -----------------  -----------------
         CL           1.912303756989    -0.004319201577    -0.000004525288    34.968852682000
         N           -1.914625243011    -0.656886201577    -0.000017525288    14.003074004430
         C           -0.619528243011    -1.111856201577     0.000015474712    12.000000000000
         C            0.385940856989     0.010053598423     0.000004274712    12.000000000000
         C           -0.634482243011     1.163691798423     0.000016474712    12.000000000000
         C           -1.942530243011     0.714318798423    -0.000006525288    12.000000000000
         H           -0.371915243011    -2.163219201577     0.000012474712     1.007825032230
         H           -2.731707243011    -1.252682201577     0.000041474712     1.007825032230
         H           -0.303534243011     2.192936798423     0.000018474712     1.007825032230
         H           -2.876901243011     1.257660798423    -0.000025525288     1.007825032230

  Basis Set: AUG-CC-PVTZ
    Blend: AUG-CC-PVTZ
  Basis Set: (AUG-CC-PVTZ AUX)
    Blend: AUG-CC-PVTZ-JKFIT
	 Reference Energy          =    -667.7586873810510042 [Eh]
	 Singles Energy            =      -0.0000000000000000 [Eh]
	 Same-Spin Energy          =      -0.2982750767381757 [Eh]
	 Opposite-Spin Energy      =      -0.8901535025990417 [Eh]
	 Correlation Energy        =      -1.1884285793372174 [Eh]
	 Total Energy              =    -668.9471159603882597 [Eh]

	 ================> DF-SCS-MP2 Energies <==================
	-----------------------------------------------------------
	 SCS Same-Spin Scale       =       0.3333333333333333 [-]
	 SCS Opposite-Spin Scale   =       1.2000000000000000 [-]
	 SCS Same-Spin Energy      =      -0.0994250255793919 [Eh]
	 SCS Opposite-Spin Energy  =      -1.0681842031188500 [Eh]
	 SCS Correlation Energy    =      -1.1676092286982418 [Eh]
	 SCS Total Energy          =    -668.9262966097492153 [Eh]
	-----------------------------------------------------------

  Dipole Moment: [D]
     X:    -2.4611      Y:    -1.0331      Z:     0.0000     Total:     2.6691

*** Psi4 exiting successfully. Buy a developer a beer!
