                               Psi4 1.3.2 release

  ==> Input File <==

--------------------------------------------------------------------------
#psi4
#
memory 32 gb

molecule  {
0 1
 Cl        2.0130890    -0.0049270    -0.0000050
  N       -1.8138400    -0.6574940    -0.0000180
  C       -0.5187430    -1.1124640     0.0000150
  C        0.2867350     0.0113290     0.0000050
  C       -0.5336970     1.1630840     0.0000160
  C       -1.8417450     0.7137110    -0.0000070
  H       -0.2711300    -2.1638270     0.0000120
  H       -2.6309220    -1.2532900     0.0000410
  H       -0.2027490     2.1923290     0.0000180
  H       -2.7761160     1.2570530    -0.0000260
units angstrom
no_reorient  #important for SAPT in psi4, default
symmetry c1  #important for SAPT in psi4, default
}

set PROPERTIES_ORIGIN ["COM"]
properties('MP2/aug-cc-pvtz', properties = ['dipole'])
--------------------------------------------------------------------------

    Molecular point group: c1
  Charge       = 0
  Multiplicity = 1
  Basis Set: AUG-CC-PVTZ
    Blend: AUG-CC-PVTZ
  Basis Set: (AUG-CC-PVTZ AUX)
    Blend: AUG-CC-PVTZ-JKFIT

    Orbital Energies [Eh]
    ---------------------

    Doubly Occupied:

       1A   -104.833962     2A    -15.624141     3A    -11.279146
       4A    -11.271546     5A    -11.270153     6A    -11.228240
       7A    -10.557506     8A     -8.024513     9A     -8.022584
      10A     -8.022521    11A     -1.308390    12A     -1.141799
      13A     -1.033378    14A     -0.982276    15A     -0.808040
      16A     -0.762666    17A     -0.743333    18A     -0.604076
      19A     -0.599880    20A     -0.590620    21A     -0.572551
      22A     -0.551018    23A     -0.486784    24A     -0.443301
      25A     -0.351087    26A     -0.307864

  @DF-RHF Final Energy:  -667.81902138971805

   => Energetics <=

    Nuclear Repulsion Energy =            261.8092549384497829
    One-Electron Energy =               -1436.4138040056122918
    Two-Electron Energy =                 506.7855276774444633
    Total Energy =                       -667.8190213897180456
  Basis Set: (AUG-CC-PVTZ AUX)
    Blend: AUG-CC-PVTZ-RI
    Molecular point group: c1

    Geometry (in Angstrom), charge = 0, multiplicity = 1:

       Center              X                  Y                   Z               Mass
    ------------   -----------------  -----------------  -----------------  -----------------
         CL           1.936064316683    -0.004542940964    -0.000004667857    34.968852682000
         N           -1.890864683317    -0.657109940964    -0.000017667857    14.003074004430
         C           -0.595767683317    -1.112079940964     0.000015332143    12.000000000000
         C            0.209710316683     0.011713059036     0.000005332143    12.000000000000
         C           -0.610721683317     1.163468059036     0.000016332143    12.000000000000
         C           -1.918769683317     0.714095059036    -0.000006667857    12.000000000000
         H           -0.348154683317    -2.163442940964     0.000012332143     1.007825032230
         H           -2.707946683317    -1.252905940964     0.000041332143     1.007825032230
         H           -0.279773683317     2.192713059036     0.000018332143     1.007825032230
         H           -2.853140683317     1.257437059036    -0.000025667857     1.007825032230

  Basis Set: AUG-CC-PVTZ
    Blend: AUG-CC-PVTZ
  Basis Set: (AUG-CC-PVTZ AUX)
    Blend: AUG-CC-PVTZ-JKFIT
	 Reference Energy          =    -667.8190213897180456 [Eh]
	 Singles Energy            =      -0.0000000000000000 [Eh]
	 Same-Spin Energy          =      -0.2942319577668152 [Eh]
	 Opposite-Spin Energy      =      -0.8836913919510752 [Eh]
	 Correlation Energy        =      -1.1779233497178905 [Eh]
	 Total Energy              =    -668.9969447394358895 [Eh]

	 ================> DF-SCS-MP2 Energies <==================
	-----------------------------------------------------------
	 SCS Same-Spin Scale       =       0.3333333333333333 [-]
	 SCS Opposite-Spin Scale   =       1.2000000000000000 [-]
	 SCS Same-Spin Energy      =      -0.0980773192556051 [Eh]
	 SCS Opposite-Spin Energy  =      -1.0604296703412901 [Eh]
	 SCS Correlation Energy    =      -1.1585069895968951 [Eh]
	 SCS Total Energy          =    -668.9775283793148901 [Eh]
	-----------------------------------------------------------

  Dipole Moment: [D]
     X:    -3.2220      Y:    -1.0349      Z:     0.0001     Total:     3.3841

*** Psi4 exiting successfully. Buy a developer a beer!
