                               Psi4 1.3.2 release

  ==> Input File <==

--------------------------------------------------------------------------
#psi4
#
memory 32 gb

molecule  {
0 1
 Cl        2.0125424    -0.0350536    -0.0000049
  N       -1.8138400    -0.6574940    -0.0000180
  C       -0.5187430    -1.1124640     0.0000150
  C        0.2867350     0.0113290     0.0000050
  C       -0.5336970     1.1630840     0.0000160
  C       -1.8417450     0.7137110    -0.0000070
  H       -0.2711300    -2.1638270     0.0000120
  H       -2.6309220    -1.2532900     0.0000410
  H       -0.2027490     2.1923290     0.0000180
  H       -2.7761160     1.2570530    -0.0000260
units angstrom
no_reorient  #important for SAPT in psi4, default
symmetry c1  #important for SAPT in psi4, default
}

set PROPERTIES_ORIGIN ["COM"]
properties('MP2/aug-cc-pvtz', properties = ['dipole'])
--------------------------------------------------------------------------

    Molecular point group: c1
  Charge       = 0
  Multiplicity = 1
  Basis Set: AUG-CC-PVTZ
    Blend: AUG-CC-PVTZ
  Basis Set: (AUG-CC-PVTZ AUX)
    Blend: AUG-CC-PVTZ-JKFIT

    Orbital Energies [Eh]
    ---------------------

    Doubly Occupied:

       1A   -104.833887     2A    -15.624097     3A    -11.279070
       4A    -11.271661     5A    -11.269763     6A    -11.228702
       7A    -10.557432     8A     -8.024440     9A     -8.022511
      10A     -8.022446    11A     -1.308364    12A     -1.141744
      13A     -1.033678    14A     -0.982001    15A     -0.808081
      16A     -0.762683    17A     -0.743376    18A     -0.603819
      19A     -0.599892    20A     -0.590596    21A     -0.572561
      22A     -0.551207    23A     -0.486723    24A     -0.443330
      25A     -0.351308    26A     -0.307659

  @DF-RHF Final Energy:  -667.81893965140398

   => Energetics <=

    Nuclear Repulsion Energy =            261.8198262283747795
    One-Electron Energy =               -1436.4354734809708134
    Two-Electron Energy =                 506.7967076011921677
    Total Energy =                       -667.8189396514039800
  Basis Set: (AUG-CC-PVTZ AUX)
    Blend: AUG-CC-PVTZ-RI
    Molecular point group: c1

    Geometry (in Angstrom), charge = 0, multiplicity = 1:

       Center              X                  Y                   Z               Mass
    ------------   -----------------  -----------------  -----------------  -----------------
         CL           1.935706957913    -0.024239254027    -0.000004602479    34.968852682000
         N           -1.890675442087    -0.646679654027    -0.000017702479    14.003074004430
         C           -0.595578442087    -1.101649654027     0.000015297521    12.000000000000
         C            0.209899557913     0.022143345973     0.000005297521    12.000000000000
         C           -0.610532442087     1.173898345973     0.000016297521    12.000000000000
         C           -1.918580442087     0.724525345973    -0.000006702479    12.000000000000
         H           -0.347965442087    -2.153012654027     0.000012297521     1.007825032230
         H           -2.707757442087    -1.242475654027     0.000041297521     1.007825032230
         H           -0.279584442087     2.203143345973     0.000018297521     1.007825032230
         H           -2.852951442087     1.267867345973    -0.000025702479     1.007825032230

  Basis Set: AUG-CC-PVTZ
    Blend: AUG-CC-PVTZ
  Basis Set: (AUG-CC-PVTZ AUX)
    Blend: AUG-CC-PVTZ-JKFIT
	 Reference Energy          =    -667.8189396514039800 [Eh]
	 Singles Energy            =      -0.0000000000000000 [Eh]
	 Same-Spin Energy          =      -0.2942508489386003 [Eh]
	 Opposite-Spin Energy      =      -0.8837162077398453 [Eh]
	 Correlation Energy        =      -1.1779670566784455 [Eh]
	 Total Energy              =    -668.9969067080824061 [Eh]

	 ================> DF-SCS-MP2 Energies <==================
	-----------------------------------------------------------
	 SCS Same-Spin Scale       =       0.3333333333333333 [-]
	 SCS Opposite-Spin Scale   =       1.2000000000000000 [-]
	 SCS Same-Spin Energy      =      -0.0980836163128667 [Eh]
	 SCS Opposite-Spin Energy  =      -1.0604594492878143 [Eh]
	 SCS Correlation Energy    =      -1.1585430656006810 [Eh]
	 SCS Total Energy          =    -668.9774827170047047 [Eh]
	-----------------------------------------------------------

  Dipole Moment: [D]
     X:    -3.2247      Y:    -1.0210      Z:     0.0001     Total:     3.3824

*** Psi4 exiting successfully. Buy a developer a beer!
