                               Psi4 1.3.2 release

  ==> Input File <==

--------------------------------------------------------------------------
#psi4
#
memory 32 gb

molecule  {
0 1
 Cl        2.0131098     0.0252045    -0.0000048
  N       -1.8138400    -0.6574940    -0.0000180
  C       -0.5187430    -1.1124640     0.0000150
  C        0.2867350     0.0113290     0.0000050
  C       -0.5336970     1.1630840     0.0000160
  C       -1.8417450     0.7137110    -0.0000070
  H       -0.2711300    -2.1638270     0.0000120
  H       -2.6309220    -1.2532900     0.0000410
  H       -0.2027490     2.1923290     0.0000180
  H       -2.7761160     1.2570530    -0.0000260
units angstrom
no_reorient  #important for SAPT in psi4, default
symmetry c1  #important for SAPT in psi4, default
}

set PROPERTIES_ORIGIN ["COM"]
properties('MP2/aug-cc-pvtz', properties = ['dipole'])
--------------------------------------------------------------------------

    Molecular point group: c1
  Charge       = 0
  Multiplicity = 1
  Basis Set: AUG-CC-PVTZ
    Blend: AUG-CC-PVTZ
  Basis Set: (AUG-CC-PVTZ AUX)
    Blend: AUG-CC-PVTZ-JKFIT

    Orbital Energies [Eh]
    ---------------------

    Doubly Occupied:

       1A   -104.834029     2A    -15.624181     3A    -11.279220
       4A    -11.271426     5A    -11.270545     6A    -11.227777
       7A    -10.557573     8A     -8.024580     9A     -8.022649
      10A     -8.022588    11A     -1.308416    12A     -1.141876
      13A     -1.033070    14A     -0.982542    15A     -0.808000
      16A     -0.762651    17A     -0.743289    18A     -0.604343
      19A     -0.599870    20A     -0.590645    21A     -0.572552
      22A     -0.550789    23A     -0.486848    24A     -0.443235
      25A     -0.350862    26A     -0.308066

  @DF-RHF Final Energy:  -667.81899939769028

   => Energetics <=

    Nuclear Repulsion Energy =            261.8066663305546058
    One-Electron Energy =               -1436.4080880714971045
    Two-Electron Energy =                 506.7824223432521649
    Total Energy =                       -667.8189993976902770
  Basis Set: (AUG-CC-PVTZ AUX)
    Blend: AUG-CC-PVTZ-RI
    Molecular point group: c1

    Geometry (in Angstrom), charge = 0, multiplicity = 1:

       Center              X                  Y                   Z               Mass
    ------------   -----------------  -----------------  -----------------  -----------------
         CL           1.936077915406     0.015156575645    -0.000004537100    34.968852682000
         N           -1.890871884594    -0.667541924355    -0.000017737100    14.003074004430
         C           -0.595774884594    -1.122511924355     0.000015262900    12.000000000000
         C            0.209703115406     0.001281075645     0.000005262900    12.000000000000
         C           -0.610728884594     1.153036075645     0.000016262900    12.000000000000
         C           -1.918776884594     0.703663075645    -0.000006737100    12.000000000000
         H           -0.348161884594    -2.173874924355     0.000012262900     1.007825032230
         H           -2.707953884594    -1.263337924355     0.000041262900     1.007825032230
         H           -0.279780884594     2.182281075645     0.000018262900     1.007825032230
         H           -2.853147884594     1.247005075645    -0.000025737100     1.007825032230

  Basis Set: AUG-CC-PVTZ
    Blend: AUG-CC-PVTZ
  Basis Set: (AUG-CC-PVTZ AUX)
    Blend: AUG-CC-PVTZ-JKFIT
	 Reference Energy          =    -667.8189993976902770 [Eh]
	 Singles Energy            =      -0.0000000000000000 [Eh]
	 Same-Spin Energy          =      -0.2942181519658610 [Eh]
	 Opposite-Spin Energy      =      -0.8836763221954625 [Eh]
	 Correlation Energy        =      -1.1778944741613235 [Eh]
	 Total Energy              =    -668.9968938718516256 [Eh]

	 ================> DF-SCS-MP2 Energies <==================
	-----------------------------------------------------------
	 SCS Same-Spin Scale       =       0.3333333333333333 [-]
	 SCS Opposite-Spin Scale   =       1.2000000000000000 [-]
	 SCS Same-Spin Energy      =      -0.0980727173219537 [Eh]
	 SCS Opposite-Spin Energy  =      -1.0604115866345549 [Eh]
	 SCS Correlation Energy    =      -1.1584843039565085 [Eh]
	 SCS Total Energy          =    -668.9774837016467472 [Eh]
	-----------------------------------------------------------

  Dipole Moment: [D]
     X:    -3.2193      Y:    -1.0488      Z:     0.0001     Total:     3.3859

*** Psi4 exiting successfully. Buy a developer a beer!
