                               Psi4 1.4a3.dev225

  ==> Input File <==

--------------------------------------------------------------------------
#psi4
#
memory 32 gb

molecule  {
0 1
 Cl        2.0130890    -0.0049270    -0.0000050
  N       -1.8138400    -0.6574940    -0.0000180
  C       -0.5187430    -1.1124640     0.0000150
  C        0.2367372     0.0117998     0.0000053
  C       -0.5336970     1.1630840     0.0000160
  C       -1.8417450     0.7137110    -0.0000070
  H       -0.2711300    -2.1638270     0.0000120
  H       -2.6309220    -1.2532900     0.0000410
  H       -0.2027490     2.1923290     0.0000180
  H       -2.7761160     1.2570530    -0.0000260
units angstrom
no_reorient  #important for SAPT in psi4, default
symmetry c1  #important for SAPT in psi4, default
}

set PROPERTIES_ORIGIN ["COM"]
properties('MP2/aug-cc-pvtz', properties = ['dipole'])
--------------------------------------------------------------------------

    Molecular point group: c1
  Charge       = 0
  Multiplicity = 1
  Basis Set: AUG-CC-PVTZ
    Blend: AUG-CC-PVTZ
  Basis Set: (AUG-CC-PVTZ AUX)
    Blend: AUG-CC-PVTZ-JKFIT

    Orbital Energies [Eh]
    ---------------------

    Doubly Occupied:

       1A   -104.829346     2A    -15.624801     3A    -11.278055
       4A    -11.273493     5A    -11.267817     6A    -11.227199
       7A    -10.552263     8A     -8.019149     9A     -8.017375
      10A     -8.017315    11A     -1.313923    12A     -1.131032
      13A     -1.037982    14A     -0.987605    15A     -0.813249
      16A     -0.764659    17A     -0.743069    18A     -0.606576
      19A     -0.599972    20A     -0.594989    21A     -0.582454
      22A     -0.536505    23A     -0.479196    24A     -0.442072
      25A     -0.357048    26A     -0.312406

  @DF-RHF Final Energy:  -667.81732526955375

   => Energetics <=

    Nuclear Repulsion Energy =            261.9439111809554674
    One-Electron Energy =               -1436.7033751421117813
    Two-Electron Energy =                 506.9421386916026222
    Total Energy =                       -667.8173252695537485
  Basis Set: (AUG-CC-PVTZ AUX)
    Blend: AUG-CC-PVTZ-RI
    Molecular point group: c1

    Geometry (in Angstrom), charge = 0, multiplicity = 1:

       Center              X                  Y                   Z               Mass
    ------------   -----------------  -----------------  -----------------  -----------------
         CL           1.942004459576    -0.004598875810    -0.000004703500    34.968852682000
         N           -1.884924540424    -0.657165875810    -0.000017703500    14.003074004430
         C           -0.589827540424    -1.112135875810     0.000015296500    12.000000000000
         C            0.165652659576     0.012127924190     0.000005596500    12.000000000000
         C           -0.604781540424     1.163412124190     0.000016296500    12.000000000000
         C           -1.912829540424     0.714039124190    -0.000006703500    12.000000000000
         H           -0.342214540424    -2.163498875810     0.000012296500     1.007825032230
         H           -2.702006540424    -1.252961875810     0.000041296500     1.007825032230
         H           -0.273833540424     2.192657124190     0.000018296500     1.007825032230
         H           -2.847200540424     1.257381124190    -0.000025703500     1.007825032230

  Basis Set: AUG-CC-PVTZ
    Blend: AUG-CC-PVTZ
  Basis Set: (AUG-CC-PVTZ AUX)
    Blend: AUG-CC-PVTZ-JKFIT
	 Reference Energy          =    -667.8173252695537485 [Eh]
	 Singles Energy            =      -0.0000000000000000 [Eh]
	 Same-Spin Energy          =      -0.2938798115638359 [Eh]
	 Opposite-Spin Energy      =      -0.8830885237219515 [Eh]
	 Correlation Energy        =      -1.1769683352857874 [Eh]
	 Total Energy              =    -668.9942936048395268 [Eh]

	 ================> DF-SCS-MP2 Energies <==================
	-----------------------------------------------------------
	 SCS Same-Spin Scale       =       0.3333333333333333 [-]
	 SCS Opposite-Spin Scale   =       1.2000000000000000 [-]
	 SCS Same-Spin Energy      =      -0.0979599371879453 [Eh]
	 SCS Opposite-Spin Energy  =      -1.0597062284663417 [Eh]
	 SCS Correlation Energy    =      -1.1576661656542870 [Eh]
	 SCS Total Energy          =    -668.9749914352080395 [Eh]
	-----------------------------------------------------------

  Dipole Moment: [D]
     X:    -3.4240      Y:    -1.0266      Z:     0.0001     Total:     3.5746

*** Psi4 exiting successfully. Buy a developer a beer!
