                               Psi4 1.4a3.dev225

  ==> Input File <==

--------------------------------------------------------------------------
#psi4
#
memory 32 gb

molecule  {
0 1
 Cl        2.0130890    -0.0049270    -0.0000050
  N       -1.8138400    -0.6574940    -0.0000180
  C       -0.5187430    -1.1124640     0.0000150
  C        0.3367328     0.0108582     0.0000047
  C       -0.5336970     1.1630840     0.0000160
  C       -1.8417450     0.7137110    -0.0000070
  H       -0.2711300    -2.1638270     0.0000120
  H       -2.6309220    -1.2532900     0.0000410
  H       -0.2027490     2.1923290     0.0000180
  H       -2.7761160     1.2570530    -0.0000260
units angstrom
no_reorient  #important for SAPT in psi4, default
symmetry c1  #important for SAPT in psi4, default
}

set PROPERTIES_ORIGIN ["COM"]
properties('MP2/aug-cc-pvtz', properties = ['dipole'])
--------------------------------------------------------------------------

    Molecular point group: c1
  Charge       = 0
  Multiplicity = 1
  Basis Set: AUG-CC-PVTZ
    Blend: AUG-CC-PVTZ
  Basis Set: (AUG-CC-PVTZ AUX)
    Blend: AUG-CC-PVTZ-JKFIT

    Orbital Energies [Eh]
    ---------------------

    Doubly Occupied:

       1A   -104.837763     2A    -15.623729     3A    -11.280839
       4A    -11.272718     5A    -11.269982     6A    -11.229602
       7A    -10.562144     8A     -8.029293     9A     -8.027176
      10A     -8.027110    11A     -1.303802    12A     -1.154998
      13A     -1.028102    14A     -0.976948    15A     -0.803315
      16A     -0.761438    17A     -0.743090    18A     -0.605100
      19A     -0.598312    20A     -0.587130    21A     -0.565577
      22A     -0.561797    23A     -0.494634    24A     -0.442389
      25A     -0.345463    26A     -0.302987

  @DF-RHF Final Energy:  -667.81439109757230

   => Energetics <=

    Nuclear Repulsion Energy =            261.7432034804872387
    One-Electron Energy =               -1436.2443124634212381
    Two-Electron Energy =                 506.6867178853617020
    Total Energy =                       -667.8143910975722974
  Basis Set: (AUG-CC-PVTZ AUX)
    Blend: AUG-CC-PVTZ-RI
    Molecular point group: c1

    Geometry (in Angstrom), charge = 0, multiplicity = 1:

       Center              X                  Y                   Z               Mass
    ------------   -----------------  -----------------  -----------------  -----------------
         CL           1.930124173789    -0.004487006117    -0.000004632215    34.968852682000
         N           -1.896804826211    -0.657054006117    -0.000017632215    14.003074004430
         C           -0.601707826211    -1.112024006117     0.000015367785    12.000000000000
         C            0.253767973789     0.011298193883     0.000005067785    12.000000000000
         C           -0.616661826211     1.163523993883     0.000016367785    12.000000000000
         C           -1.924709826211     0.714150993883    -0.000006632215    12.000000000000
         H           -0.354094826211    -2.163387006117     0.000012367785     1.007825032230
         H           -2.713886826211    -1.252850006117     0.000041367785     1.007825032230
         H           -0.285713826211     2.192768993883     0.000018367785     1.007825032230
         H           -2.859080826211     1.257492993883    -0.000025632215     1.007825032230

  Basis Set: AUG-CC-PVTZ
    Blend: AUG-CC-PVTZ
  Basis Set: (AUG-CC-PVTZ AUX)
    Blend: AUG-CC-PVTZ-JKFIT
	 Reference Energy          =    -667.8143910975722974 [Eh]
	 Singles Energy            =      -0.0000000000000000 [Eh]
	 Same-Spin Energy          =      -0.2948340093041291 [Eh]
	 Opposite-Spin Energy      =      -0.8846513806167160 [Eh]
	 Correlation Energy        =      -1.1794853899208451 [Eh]
	 Total Energy              =    -668.9938764874931394 [Eh]

	 ================> DF-SCS-MP2 Energies <==================
	-----------------------------------------------------------
	 SCS Same-Spin Scale       =       0.3333333333333333 [-]
	 SCS Opposite-Spin Scale   =       1.2000000000000000 [-]
	 SCS Same-Spin Energy      =      -0.0982780031013764 [Eh]
	 SCS Opposite-Spin Energy  =      -1.0615816567400591 [Eh]
	 SCS Correlation Energy    =      -1.1598596598414355 [Eh]
	 SCS Total Energy          =    -668.9742507574137562 [Eh]
	-----------------------------------------------------------

  Dipole Moment: [D]
     X:    -3.0319      Y:    -1.0397      Z:     0.0001     Total:     3.2052

*** Psi4 exiting successfully. Buy a developer a beer!
