                               Psi4 1.3.2 release

  ==> Input File <==

--------------------------------------------------------------------------
#psi4
#
memory 32 gb

molecule  {
0 1
 Cl        2.0019326    -0.1852911    -0.0000059
  N       -1.8138400    -0.6574940    -0.0000180
  C       -0.5187430    -1.1124640     0.0000150
  C        0.2867350     0.0113290     0.0000050
  C       -0.5336970     1.1630840     0.0000160
  C       -1.8417450     0.7137110    -0.0000070
  H       -0.2711300    -2.1638270     0.0000120
  H       -2.6309220    -1.2532900     0.0000410
  H       -0.2027490     2.1923290     0.0000180
  H       -2.7761160     1.2570530    -0.0000260
units angstrom
no_reorient  #important for SAPT in psi4, default
symmetry c1  #important for SAPT in psi4, default
}

set PROPERTIES_ORIGIN ["COM"]
properties('MP2/aug-cc-pvtz', properties = ['dipole'])
--------------------------------------------------------------------------

    Molecular point group: c1
  Charge       = 0
  Multiplicity = 1
  Basis Set: AUG-CC-PVTZ
    Blend: AUG-CC-PVTZ
  Basis Set: (AUG-CC-PVTZ AUX)
    Blend: AUG-CC-PVTZ-JKFIT

    Orbital Energies [Eh]
    ---------------------

    Doubly Occupied:

       1A   -104.833388     2A    -15.623820     3A    -11.278657
       4A    -11.272178     5A    -11.267840     6A    -11.231010
       7A    -10.556967     8A     -8.023977     9A     -8.022045
      10A     -8.021969    11A     -1.308221    12A     -1.141797
      13A     -1.035052    14A     -0.980490    15A     -0.808301
      16A     -0.762801    17A     -0.743573    18A     -0.602697
      19A     -0.599986    20A     -0.590493    21A     -0.572810
      22A     -0.551484    23A     -0.486442    24A     -0.442926
      25A     -0.352357    26A     -0.306578

  @DF-RHF Final Energy:  -667.81696315660292

   => Energetics <=

    Nuclear Repulsion Energy =            261.9928269505769549
    One-Electron Energy =               -1436.7838668000601956
    Two-Electron Energy =                 506.9740766928803168
    Total Energy =                       -667.8169631566029238
  Basis Set: (AUG-CC-PVTZ AUX)
    Blend: AUG-CC-PVTZ-RI
    Molecular point group: c1

    Geometry (in Angstrom), charge = 0, multiplicity = 1:

       Center              X                  Y                   Z               Mass
    ------------   -----------------  -----------------  -----------------  -----------------
         CL           1.928770431974    -0.122462247457    -0.000005256264    34.968852682000
         N           -1.887002168026    -0.594665147457    -0.000017356264    14.003074004430
         C           -0.591905168026    -1.049635147457     0.000015643736    12.000000000000
         C            0.213572831974     0.074157852543     0.000005643736    12.000000000000
         C           -0.606859168026     1.225912852543     0.000016643736    12.000000000000
         C           -1.914907168026     0.776539852543    -0.000006356264    12.000000000000
         H           -0.344292168026    -2.100998147457     0.000012643736     1.007825032230
         H           -2.704084168026    -1.190461147457     0.000041643736     1.007825032230
         H           -0.275911168026     2.255157852543     0.000018643736     1.007825032230
         H           -2.849278168026     1.319881852543    -0.000025356264     1.007825032230

  Basis Set: AUG-CC-PVTZ
    Blend: AUG-CC-PVTZ
  Basis Set: (AUG-CC-PVTZ AUX)
    Blend: AUG-CC-PVTZ-JKFIT
	 Reference Energy          =    -667.8169631566029238 [Eh]
	 Singles Energy            =      -0.0000000000000000 [Eh]
	 Same-Spin Energy          =      -0.2944226836939076 [Eh]
	 Opposite-Spin Energy      =      -0.8839881788327197 [Eh]
	 Correlation Energy        =      -1.1784108625266274 [Eh]
	 Total Energy              =    -668.9953740191295992 [Eh]

	 ================> DF-SCS-MP2 Energies <==================
	-----------------------------------------------------------
	 SCS Same-Spin Scale       =       0.3333333333333333 [-]
	 SCS Opposite-Spin Scale   =       1.2000000000000000 [-]
	 SCS Same-Spin Energy      =      -0.0981408945646359 [Eh]
	 SCS Opposite-Spin Energy  =      -1.0607858145992637 [Eh]
	 SCS Correlation Energy    =      -1.1589267091638995 [Eh]
	 SCS Total Energy          =    -668.9758898657668169 [Eh]
	-----------------------------------------------------------

  Dipole Moment: [D]
     X:    -3.2379      Y:    -0.9505      Z:     0.0001     Total:     3.3745

*** Psi4 exiting successfully. Buy a developer a beer!
