                               Psi4 1.4a3.dev225

  ==> Input File <==

--------------------------------------------------------------------------
#psi4
#
memory 32 gb

molecule  {
0 1
 Cl        2.0130890    -0.0049270    -0.0000050
  N       -1.8138400    -0.6574940    -0.0000180
  C       -0.5187430    -1.1124640     0.0000150
  C        0.2667359     0.0115173     0.0000051
  C       -0.5336970     1.1630840     0.0000160
  C       -1.8417450     0.7137110    -0.0000070
  H       -0.2711300    -2.1638270     0.0000120
  H       -2.6309220    -1.2532900     0.0000410
  H       -0.2027490     2.1923290     0.0000180
  H       -2.7761160     1.2570530    -0.0000260
units angstrom
no_reorient  #important for SAPT in psi4, default
symmetry c1  #important for SAPT in psi4, default
}

set PROPERTIES_ORIGIN ["COM"]
properties('MP2/aug-cc-pvtz', properties = ['dipole'])
--------------------------------------------------------------------------

    Molecular point group: c1
  Charge       = 0
  Multiplicity = 1
  Basis Set: AUG-CC-PVTZ
    Blend: AUG-CC-PVTZ
  Basis Set: (AUG-CC-PVTZ AUX)
    Blend: AUG-CC-PVTZ-JKFIT

    Orbital Energies [Eh]
    ---------------------

    Doubly Occupied:

       1A   -104.832224     2A    -15.624370     3A    -11.278628
       4A    -11.272274     5A    -11.269182     6A    -11.227777
       7A    -10.555492     8A     -8.022449     9A     -8.020585
      10A     -8.020523    11A     -1.310481    12A     -1.137190
      13A     -1.035325    14A     -0.984402    15A     -0.810065
      16A     -0.763372    17A     -0.743280    18A     -0.604794
      19A     -0.599928    20A     -0.592258    21A     -0.576430
      22A     -0.545436    23A     -0.483723    24A     -0.443043
      25A     -0.353441    26A     -0.309708

  @DF-RHF Final Energy:  -667.81908533914748

   => Energetics <=

    Nuclear Repulsion Energy =            261.8552493342438652
    One-Electron Energy =               -1436.5159111754894639
    Two-Electron Energy =                 506.8415765020981780
    Total Energy =                       -667.8190853391474775
  Basis Set: (AUG-CC-PVTZ AUX)
    Blend: AUG-CC-PVTZ-RI
    Molecular point group: c1

    Geometry (in Angstrom), charge = 0, multiplicity = 1:

       Center              X                  Y                   Z               Mass
    ------------   -----------------  -----------------  -----------------  -----------------
         CL           1.938440371464    -0.004565312526    -0.000004679738    34.968852682000
         N           -1.888488628536    -0.657132312526    -0.000017679738    14.003074004430
         C           -0.593391628536    -1.112102312526     0.000015320262    12.000000000000
         C            0.192087271464     0.011878987474     0.000005420262    12.000000000000
         C           -0.608345628536     1.163445687474     0.000016320262    12.000000000000
         C           -1.916393628536     0.714072687474    -0.000006679738    12.000000000000
         H           -0.345778628536    -2.163465312526     0.000012320262     1.007825032230
         H           -2.705570628536    -1.252928312526     0.000041320262     1.007825032230
         H           -0.277397628536     2.192690687474     0.000018320262     1.007825032230
         H           -2.850764628536     1.257414687474    -0.000025679738     1.007825032230

  Basis Set: AUG-CC-PVTZ
    Blend: AUG-CC-PVTZ
  Basis Set: (AUG-CC-PVTZ AUX)
    Blend: AUG-CC-PVTZ-JKFIT
	 Reference Energy          =    -667.8190853391474775 [Eh]
	 Singles Energy            =      -0.0000000000000000 [Eh]
	 Same-Spin Energy          =      -0.2940620683481022 [Eh]
	 Opposite-Spin Energy      =      -0.8834104028106798 [Eh]
	 Correlation Energy        =      -1.1774724711587821 [Eh]
	 Total Energy              =    -668.9965578103062853 [Eh]

	 ================> DF-SCS-MP2 Energies <==================
	-----------------------------------------------------------
	 SCS Same-Spin Scale       =       0.3333333333333333 [-]
	 SCS Opposite-Spin Scale   =       1.2000000000000000 [-]
	 SCS Same-Spin Energy      =      -0.0980206894493674 [Eh]
	 SCS Opposite-Spin Energy  =      -1.0600924833728158 [Eh]
	 SCS Correlation Energy    =      -1.1581131728221832 [Eh]
	 SCS Total Energy          =    -668.9771985119696183 [Eh]
	-----------------------------------------------------------

  Dipole Moment: [D]
     X:    -3.3009      Y:    -1.0320      Z:     0.0001     Total:     3.4585

*** Psi4 exiting successfully. Buy a developer a beer!
