                               Psi4 1.3.2 release

  ==> Input File <==

--------------------------------------------------------------------------
#psi4
#
memory 32 gb

molecule  {
1 1
  N       -0.0000100    -0.0000140    -0.3433270
  C        1.3569133    -0.8908247     0.1639621
  C       -1.2794180    -0.6438800     0.1043020
  C        0.0820930     1.4299600     0.1043060
  H        0.0000000     0.0000070    -1.3718780
  H        1.2101320    -0.7924030     1.1940770
  H        1.1141900    -1.8025260    -0.2793360
  H        2.0966990    -0.3074600    -0.2821810
  H       -1.2913640    -0.6516640     1.1940790
  H       -2.1181090    -0.0636870    -0.2794440
  H       -1.3146120    -1.6621050    -0.2820540
  H        1.0038890     1.8661770    -0.2794750
  H       -0.7821500     1.9695010    -0.2820410
  H        0.0813420     1.4441500     1.1940790
units angstrom
no_reorient  #important for SAPT in psi4, default
symmetry c1  #important for SAPT in psi4, default
}

set PROPERTIES_ORIGIN ["COM"]
properties('MP2/aug-cc-pvtz', properties = ['dipole'])
--------------------------------------------------------------------------

    Molecular point group: c1
  Charge       = 1
  Multiplicity = 1
  Basis Set: AUG-CC-PVTZ
    Blend: AUG-CC-PVTZ
  Basis Set: (AUG-CC-PVTZ AUX)
    Blend: AUG-CC-PVTZ-JKFIT

    Orbital Energies [Eh]
    ---------------------

    Doubly Occupied:

       1A    -15.861806     2A    -11.478549     3A    -11.456319
       4A    -11.456304     5A     -1.472948     6A     -1.179928
       7A     -1.168149     8A     -1.079747     9A     -0.913630
      10A     -0.853837    11A     -0.837818    12A     -0.804074
      13A     -0.783802    14A     -0.754418    15A     -0.739748
      16A     -0.728978    17A     -0.692292

  @DF-RHF Final Energy:  -173.69378406890604

   => Energetics <=

    Nuclear Repulsion Energy =            143.5400706722835196
    One-Electron Energy =                -509.9430144009625110
    Two-Electron Energy =                 192.7091596597729790
    Total Energy =                       -173.6937840689060408
  Basis Set: (AUG-CC-PVTZ AUX)
    Blend: AUG-CC-PVTZ-RI
    Molecular point group: c1

    Geometry (in Angstrom), charge = 1, multiplicity = 1:

       Center              X                  Y                   Z               Mass
    ------------   -----------------  -----------------  -----------------  -----------------
         N           -0.031882411664     0.020910014831    -0.346541782944    14.003074004430
         C            1.325040888336    -0.869900685169     0.160747317056    12.000000000000
         C           -1.311290411664    -0.622955985169     0.101087217056    12.000000000000
         C            0.050220588336     1.450884014831     0.101091217056    12.000000000000
         H           -0.031872411664     0.020931014831    -1.375092782944     1.007825032230
         H            1.178259588336    -0.771478985169     1.190862217056     1.007825032230
         H            1.082317588336    -1.781601985169    -0.282550782944     1.007825032230
         H            2.064826588336    -0.286535985169    -0.285395782944     1.007825032230
         H           -1.323236411664    -0.630739985169     1.190864217056     1.007825032230
         H           -2.149981411664    -0.042762985169    -0.282658782944     1.007825032230
         H           -1.346484411664    -1.641180985169    -0.285268782944     1.007825032230
         H            0.972016588336     1.887101014831    -0.282689782944     1.007825032230
         H           -0.814022411664     1.990425014831    -0.285255782944     1.007825032230
         H            0.049469588336     1.465074014831     1.190864217056     1.007825032230

  Basis Set: AUG-CC-PVTZ
    Blend: AUG-CC-PVTZ
  Basis Set: (AUG-CC-PVTZ AUX)
    Blend: AUG-CC-PVTZ-JKFIT
	 Reference Energy          =    -173.6937840689060408 [Eh]
	 Singles Energy            =      -0.0000000000000000 [Eh]
	 Same-Spin Energy          =      -0.1721400747168072 [Eh]
	 Opposite-Spin Energy      =      -0.6584215409615009 [Eh]
	 Correlation Energy        =      -0.8305616156783080 [Eh]
	 Total Energy              =    -174.5243456845843468 [Eh]

	 ================> DF-SCS-MP2 Energies <==================
	-----------------------------------------------------------
	 SCS Same-Spin Scale       =       0.3333333333333333 [-]
	 SCS Opposite-Spin Scale   =       1.2000000000000000 [-]
	 SCS Same-Spin Energy      =      -0.0573800249056024 [Eh]
	 SCS Opposite-Spin Energy  =      -0.7901058491538010 [Eh]
	 SCS Correlation Energy    =      -0.8474858740594033 [Eh]
	 SCS Total Energy          =    -174.5412699429654424 [Eh]
	-----------------------------------------------------------

  Dipole Moment: [D]
     X:     0.2560      Y:    -0.1680      Z:    -0.7660     Total:     0.8250

*** Psi4 exiting successfully. Buy a developer a beer!
