                               Psi4 1.3.2 release

  ==> Input File <==

--------------------------------------------------------------------------
#psi4
#
memory 32 gb

molecule  {
1 1
  N       -0.0000100    -0.0000140    -0.3433270
  C        1.1683132    -0.7670130     0.2031253
  C       -1.2794180    -0.6438800     0.1043020
  C        0.0820930     1.4299600     0.1043060
  H        0.0000000     0.0000070    -1.3718780
  H        1.2101320    -0.7924030     1.1940770
  H        1.1141900    -1.8025260    -0.2793360
  H        2.0966990    -0.3074600    -0.2821810
  H       -1.2913640    -0.6516640     1.1940790
  H       -2.1181090    -0.0636870    -0.2794440
  H       -1.3146120    -1.6621050    -0.2820540
  H        1.0038890     1.8661770    -0.2794750
  H       -0.7821500     1.9695010    -0.2820410
  H        0.0813420     1.4441500     1.1940790
units angstrom
no_reorient  #important for SAPT in psi4, default
symmetry c1  #important for SAPT in psi4, default
}

set PROPERTIES_ORIGIN ["COM"]
properties('MP2/aug-cc-pvtz', properties = ['dipole'])
--------------------------------------------------------------------------

    Molecular point group: c1
  Charge       = 1
  Multiplicity = 1
  Basis Set: AUG-CC-PVTZ
    Blend: AUG-CC-PVTZ
  Basis Set: (AUG-CC-PVTZ AUX)
    Blend: AUG-CC-PVTZ-JKFIT

    Orbital Energies [Eh]
    ---------------------

    Doubly Occupied:

       1A    -15.880789     2A    -11.465298     3A    -11.463347
       4A    -11.463332     5A     -1.511145     6A     -1.179890
       7A     -1.178472     8A     -1.090174     9A     -0.931867
      10A     -0.867841    11A     -0.854369    12A     -0.792956
      13A     -0.769931    14A     -0.748623    15A     -0.737883
      16A     -0.728889    17A     -0.712853

  @DF-RHF Final Energy:  -173.70372422974916

   => Energetics <=

    Nuclear Repulsion Energy =            146.5221396288207814
    One-Electron Energy =                -515.6964126985794792
    Two-Electron Energy =                 195.4705488400095135
    Total Energy =                       -173.7037242297491559
  Basis Set: (AUG-CC-PVTZ AUX)
    Blend: AUG-CC-PVTZ-RI
    Molecular point group: c1

    Geometry (in Angstrom), charge = 1, multiplicity = 1:

       Center              X                  Y                   Z               Mass
    ------------   -----------------  -----------------  -----------------  -----------------
         N            0.005786551618    -0.003818807588    -0.354363820911    14.003074004430
         C            1.174109751618    -0.770817807588     0.192088479089    12.000000000000
         C           -1.273621448382    -0.647684807588     0.093265179089    12.000000000000
         C            0.087889551618     1.426155192412     0.093269179089    12.000000000000
         H            0.005796551618    -0.003797807588    -1.382914820911     1.007825032230
         H            1.215928551618    -0.796207807588     1.183040179089     1.007825032230
         H            1.119986551618    -1.806330807588    -0.290372820911     1.007825032230
         H            2.102495551618    -0.311264807588    -0.293217820911     1.007825032230
         H           -1.285567448382    -0.655468807588     1.183042179089     1.007825032230
         H           -2.112312448382    -0.067491807588    -0.290480820911     1.007825032230
         H           -1.308815448382    -1.665909807588    -0.293090820911     1.007825032230
         H            1.009685551618     1.862372192412    -0.290511820911     1.007825032230
         H           -0.776353448382     1.965696192412    -0.293077820911     1.007825032230
         H            0.087138551618     1.440345192412     1.183042179089     1.007825032230

  Basis Set: AUG-CC-PVTZ
    Blend: AUG-CC-PVTZ
  Basis Set: (AUG-CC-PVTZ AUX)
    Blend: AUG-CC-PVTZ-JKFIT
	 Reference Energy          =    -173.7037242297491559 [Eh]
	 Singles Energy            =      -0.0000000000000000 [Eh]
	 Same-Spin Energy          =      -0.1729606809466299 [Eh]
	 Opposite-Spin Energy      =      -0.6577631823027228 [Eh]
	 Correlation Energy        =      -0.8307238632493528 [Eh]
	 Total Energy              =    -174.5344480929985025 [Eh]

	 ================> DF-SCS-MP2 Energies <==================
	-----------------------------------------------------------
	 SCS Same-Spin Scale       =       0.3333333333333333 [-]
	 SCS Opposite-Spin Scale   =       1.2000000000000000 [-]
	 SCS Same-Spin Energy      =      -0.0576535603155433 [Eh]
	 SCS Opposite-Spin Energy  =      -0.7893158187632673 [Eh]
	 SCS Correlation Energy    =      -0.8469693790788106 [Eh]
	 SCS Total Energy          =    -174.5506936088279701 [Eh]
	-----------------------------------------------------------

  Dipole Moment: [D]
     X:     0.0165      Y:    -0.0108      Z:    -0.8742     Total:     0.8744

*** Psi4 exiting successfully. Buy a developer a beer!
