                               Psi4 1.3.2 release

  ==> Input File <==

--------------------------------------------------------------------------
#psi4
#
memory 32 gb

molecule  {
1 1
  N       -0.0000100    -0.0000140    -0.3433270
  C        1.2771237    -0.8384434     0.1341326
  C       -1.2794180    -0.6438800     0.1043020
  C        0.0820930     1.4299600     0.1043060
  H        0.0000000     0.0000070    -1.3718780
  H        1.2101320    -0.7924030     1.1940770
  H        1.1141900    -1.8025260    -0.2793360
  H        2.0966990    -0.3074600    -0.2821810
  H       -1.2913640    -0.6516640     1.1940790
  H       -2.1181090    -0.0636870    -0.2794440
  H       -1.3146120    -1.6621050    -0.2820540
  H        1.0038890     1.8661770    -0.2794750
  H       -0.7821500     1.9695010    -0.2820410
  H        0.0813420     1.4441500     1.1940790
units angstrom
no_reorient  #important for SAPT in psi4, default
symmetry c1  #important for SAPT in psi4, default
}

set PROPERTIES_ORIGIN ["COM"]
properties('MP2/aug-cc-pvtz', properties = ['dipole'])
--------------------------------------------------------------------------

    Molecular point group: c1
  Charge       = 1
  Multiplicity = 1
  Basis Set: AUG-CC-PVTZ
    Blend: AUG-CC-PVTZ
  Basis Set: (AUG-CC-PVTZ AUX)
    Blend: AUG-CC-PVTZ-JKFIT

    Orbital Energies [Eh]
    ---------------------

    Doubly Occupied:

       1A    -15.872121     2A    -11.469314     3A    -11.460355
       4A    -11.460340     5A     -1.490030     6A     -1.178190
       7A     -1.173989     8A     -1.083096     9A     -0.922940
      10A     -0.855182    11A     -0.847905    12A     -0.786144
      13A     -0.774838    14A     -0.752820    15A     -0.743144
      16A     -0.733489    17A     -0.715760

  @DF-RHF Final Energy:  -173.71119950891537

   => Energetics <=

    Nuclear Repulsion Energy =            144.8815895320327911
    One-Electron Energy =                -512.5462644592015522
    Two-Electron Energy =                 193.9534754182534186
    Total Energy =                       -173.7111995089153709
  Basis Set: (AUG-CC-PVTZ AUX)
    Blend: AUG-CC-PVTZ-RI
    Molecular point group: c1

    Geometry (in Angstrom), charge = 1, multiplicity = 1:

       Center              X                  Y                   Z               Mass
    ------------   -----------------  -----------------  -----------------  -----------------
         N           -0.015946091839     0.010447935191    -0.340583958212    14.003074004430
         C            1.261187608161    -0.827981464809     0.136875641788    12.000000000000
         C           -1.295354091839    -0.633418064809     0.107045041788    12.000000000000
         C            0.066156908161     1.440421935191     0.107049041788    12.000000000000
         H           -0.015936091839     0.010468935191    -1.369134958212     1.007825032230
         H            1.194195908161    -0.781941064809     1.196820041788     1.007825032230
         H            1.098253908161    -1.792064064809    -0.276592958212     1.007825032230
         H            2.080762908161    -0.296998064809    -0.279437958212     1.007825032230
         H           -1.307300091839    -0.641202064809     1.196822041788     1.007825032230
         H           -2.134045091839    -0.053225064809    -0.276700958212     1.007825032230
         H           -1.330548091839    -1.651643064809    -0.279310958212     1.007825032230
         H            0.987952908161     1.876638935191    -0.276731958212     1.007825032230
         H           -0.798086091839     1.979962935191    -0.279297958212     1.007825032230
         H            0.065405908161     1.454611935191     1.196822041788     1.007825032230

  Basis Set: AUG-CC-PVTZ
    Blend: AUG-CC-PVTZ
  Basis Set: (AUG-CC-PVTZ AUX)
    Blend: AUG-CC-PVTZ-JKFIT
	 Reference Energy          =    -173.7111995089153709 [Eh]
	 Singles Energy            =      -0.0000000000000000 [Eh]
	 Same-Spin Energy          =      -0.1722395724948523 [Eh]
	 Opposite-Spin Energy      =      -0.6573839458845593 [Eh]
	 Correlation Energy        =      -0.8296235183794116 [Eh]
	 Total Energy              =    -174.5408230272947776 [Eh]

	 ================> DF-SCS-MP2 Energies <==================
	-----------------------------------------------------------
	 SCS Same-Spin Scale       =       0.3333333333333333 [-]
	 SCS Opposite-Spin Scale   =       1.2000000000000000 [-]
	 SCS Same-Spin Energy      =      -0.0574131908316174 [Eh]
	 SCS Opposite-Spin Energy  =      -0.7888607350614711 [Eh]
	 SCS Correlation Energy    =      -0.8462739258930886 [Eh]
	 SCS Total Energy          =    -174.5574734348084576 [Eh]
	-----------------------------------------------------------

  Dipole Moment: [D]
     X:     0.1157      Y:    -0.0759      Z:    -0.7958     Total:     0.8078

*** Psi4 exiting successfully. Buy a developer a beer!
