                               Psi4 1.4a3.dev225

  ==> Input File <==

--------------------------------------------------------------------------
#psi4
#
memory 32 gb

molecule  {
1 1
  N        0.0000000     0.0000000    -0.3433230
  C        1.1316450    -0.8466731     0.0983454
  C       -1.3166090    -0.5642150     0.1043110
  C        0.1696800     1.4223250     0.1043110
  H        0.0000000     0.0000000    -1.3718720
  H        1.1582120    -0.8665450     1.1940820
  H        1.0023560    -1.8671060    -0.2807800
  H        2.0740990    -0.4346410    -0.2807890
  H       -1.3295560    -0.5697670     1.1940820
  H       -2.1181390     0.0654870    -0.2807820
  H       -1.4134600    -1.5789020    -0.2807870
  H        1.1157820     1.8016190    -0.2807830
  H       -0.6606400     2.0135430    -0.2807860
  H        0.1713470     1.4363130     1.1940820
units angstrom
no_reorient  #important for SAPT in psi4, default
symmetry c1  #important for SAPT in psi4, default
}

set PROPERTIES_ORIGIN ["COM"]
properties('MP2/aug-cc-pvtz', properties = ['dipole'])
--------------------------------------------------------------------------

    Molecular point group: c1
  Charge       = 1
  Multiplicity = 1
  Basis Set: AUG-CC-PVTZ
    Blend: AUG-CC-PVTZ
  Basis Set: (AUG-CC-PVTZ AUX)
    Blend: AUG-CC-PVTZ-JKFIT

    Orbital Energies [Eh]
    ---------------------

    Doubly Occupied:

       1A    -15.881010     2A    -11.464443     3A    -11.464430
       4A    -11.463171     5A     -1.514773     6A     -1.180688
       7A     -1.180347     8A     -1.084698     9A     -0.935500
      10A     -0.862497    11A     -0.861190    12A     -0.771091
      13A     -0.769627    14A     -0.741560    15A     -0.739957
      16A     -0.735695    17A     -0.732669

  @DF-RHF Final Energy:  -173.71791878970060

   => Energetics <=

    Nuclear Repulsion Energy =            146.5890812958681408
    One-Electron Energy =                -515.8473098696614443
    Two-Electron Energy =                 195.5403097840926989
    Total Energy =                       -173.7179187897006045
  Basis Set: (AUG-CC-PVTZ AUX)
    Blend: AUG-CC-PVTZ-RI
    Molecular point group: c1

    Geometry (in Angstrom), charge = 1, multiplicity = 1:

       Center              X                  Y                   Z               Mass
    ------------   -----------------  -----------------  -----------------  -----------------
         N            0.003052645630    -0.002284300644    -0.333433267677    14.003074004430
         C            1.134697645630    -0.848957400644     0.108235132323    12.000000000000
         C           -1.313556354370    -0.566499300644     0.114200732323    12.000000000000
         C            0.172732645630     1.420040699356     0.114200732323    12.000000000000
         H            0.003052645630    -0.002284300644    -1.361982267677     1.007825032230
         H            1.161264645630    -0.868829300644     1.203971732323     1.007825032230
         H            1.005408645630    -1.869390300644    -0.270890267677     1.007825032230
         H            2.077151645630    -0.436925300644    -0.270899267677     1.007825032230
         H           -1.326503354370    -0.572051300644     1.203971732323     1.007825032230
         H           -2.115086354370     0.063202699356    -0.270892267677     1.007825032230
         H           -1.410407354370    -1.581186300644    -0.270897267677     1.007825032230
         H            1.118834645630     1.799334699356    -0.270893267677     1.007825032230
         H           -0.657587354370     2.011258699356    -0.270896267677     1.007825032230
         H            0.174399645630     1.434028699356     1.203971732323     1.007825032230

  Basis Set: AUG-CC-PVTZ
    Blend: AUG-CC-PVTZ
  Basis Set: (AUG-CC-PVTZ AUX)
    Blend: AUG-CC-PVTZ-JKFIT
	 Reference Energy          =    -173.7179187897006045 [Eh]
	 Singles Energy            =      -0.0000000000000000 [Eh]
	 Same-Spin Energy          =      -0.1728545130836348 [Eh]
	 Opposite-Spin Energy      =      -0.6569698100183834 [Eh]
	 Correlation Energy        =      -0.8298243231020181 [Eh]
	 Total Energy              =    -174.5477431128026353 [Eh]

	 ================> DF-SCS-MP2 Energies <==================
	-----------------------------------------------------------
	 SCS Same-Spin Scale       =       0.3333333333333333 [-]
	 SCS Opposite-Spin Scale   =       1.2000000000000000 [-]
	 SCS Same-Spin Energy      =      -0.0576181710278783 [Eh]
	 SCS Opposite-Spin Energy  =      -0.7883637720220601 [Eh]
	 SCS Correlation Energy    =      -0.8459819430499383 [Eh]
	 SCS Total Energy          =    -174.5639007327505396 [Eh]
	-----------------------------------------------------------

  Dipole Moment: [D]
     X:    -0.0184      Y:     0.0137      Z:    -0.8187     Total:     0.8190

*** Psi4 exiting successfully. Buy a developer a beer!
