                               Psi4 1.3.2 release

  ==> Input File <==

--------------------------------------------------------------------------
#psi4
#
memory 32 gb

molecule  {
1 1
  N       -0.0000100    -0.0000140    -0.3433270
  C        1.2036826    -0.7902291     0.0792376
  C       -1.2794180    -0.6438800     0.1043020
  C        0.0820930     1.4299600     0.1043060
  H        0.0000000     0.0000070    -1.3718780
  H        1.2101320    -0.7924030     1.1940770
  H        1.1141900    -1.8025260    -0.2793360
  H        2.0966990    -0.3074600    -0.2821810
  H       -1.2913640    -0.6516640     1.1940790
  H       -2.1181090    -0.0636870    -0.2794440
  H       -1.3146120    -1.6621050    -0.2820540
  H        1.0038890     1.8661770    -0.2794750
  H       -0.7821500     1.9695010    -0.2820410
  H        0.0813420     1.4441500     1.1940790
units angstrom
no_reorient  #important for SAPT in psi4, default
symmetry c1  #important for SAPT in psi4, default
}

set PROPERTIES_ORIGIN ["COM"]
properties('MP2/aug-cc-pvtz', properties = ['dipole'])
--------------------------------------------------------------------------

    Molecular point group: c1
  Charge       = 1
  Multiplicity = 1
  Basis Set: AUG-CC-PVTZ
    Blend: AUG-CC-PVTZ
  Basis Set: (AUG-CC-PVTZ AUX)
    Blend: AUG-CC-PVTZ-JKFIT

    Orbital Energies [Eh]
    ---------------------

    Doubly Occupied:

       1A    -15.879832     2A    -11.464001     3A    -11.463988
       4A    -11.463914     5A     -1.510232     6A     -1.180260
       7A     -1.179620     8A     -1.083678     9A     -0.933601
      10A     -0.861805    11A     -0.859745    12A     -0.771884
      13A     -0.766327    14A     -0.744780    15A     -0.737125
      16A     -0.736819    17A     -0.735854

  @DF-RHF Final Energy:  -173.71750993455913

   => Energetics <=

    Nuclear Repulsion Energy =            146.2496739279368114
    One-Electron Energy =                -515.1874347302474462
    Two-Electron Energy =                 195.2202508677515311
    Total Energy =                       -173.7175099345591320
  Basis Set: (AUG-CC-PVTZ AUX)
    Blend: AUG-CC-PVTZ-RI
    Molecular point group: c1

    Geometry (in Angstrom), charge = 1, multiplicity = 1:

       Center              X                  Y                   Z               Mass
    ------------   -----------------  -----------------  -----------------  -----------------
         N           -0.001277753385     0.000818127485    -0.329619819066    14.003074004430
         C            1.202414846615    -0.789396972515     0.092944780934    12.000000000000
         C           -1.280685753385    -0.643047872515     0.118009180934    12.000000000000
         C            0.080825246615     1.430792127485     0.118013180934    12.000000000000
         H           -0.001267753385     0.000839127485    -1.358170819066     1.007825032230
         H            1.208864246615    -0.791570872515     1.207784180934     1.007825032230
         H            1.112922246615    -1.801693872515    -0.265628819066     1.007825032230
         H            2.095431246615    -0.306627872515    -0.268473819066     1.007825032230
         H           -1.292631753385    -0.650831872515     1.207786180934     1.007825032230
         H           -2.119376753385    -0.062854872515    -0.265736819066     1.007825032230
         H           -1.315879753385    -1.661272872515    -0.268346819066     1.007825032230
         H            1.002621246615     1.867009127485    -0.265767819066     1.007825032230
         H           -0.783417753385     1.970333127485    -0.268333819066     1.007825032230
         H            0.080074246615     1.444982127485     1.207786180934     1.007825032230

  Basis Set: AUG-CC-PVTZ
    Blend: AUG-CC-PVTZ
  Basis Set: (AUG-CC-PVTZ AUX)
    Blend: AUG-CC-PVTZ-JKFIT
	 Reference Energy          =    -173.7175099345591320 [Eh]
	 Singles Energy            =      -0.0000000000000000 [Eh]
	 Same-Spin Energy          =      -0.1727150298015025 [Eh]
	 Opposite-Spin Energy      =      -0.6569629310144008 [Eh]
	 Correlation Energy        =      -0.8296779608159033 [Eh]
	 Total Energy              =    -174.5471878953750320 [Eh]

	 ================> DF-SCS-MP2 Energies <==================
	-----------------------------------------------------------
	 SCS Same-Spin Scale       =       0.3333333333333333 [-]
	 SCS Opposite-Spin Scale   =       1.2000000000000000 [-]
	 SCS Same-Spin Energy      =      -0.0575716766005008 [Eh]
	 SCS Opposite-Spin Energy  =      -0.7883555172172810 [Eh]
	 SCS Correlation Energy    =      -0.8459271938177819 [Eh]
	 SCS Total Energy          =    -174.5634371283769042 [Eh]
	-----------------------------------------------------------

  Dipole Moment: [D]
     X:    -0.0074      Y:     0.0049      Z:    -0.8055     Total:     0.8056

*** Psi4 exiting successfully. Buy a developer a beer!
