                               Psi4 1.3.2 release

  ==> Input File <==

--------------------------------------------------------------------------
#psi4
#
memory 32 gb

molecule  {
1 1
  N       -0.0000100    -0.0000140    -0.3433270
  C        1.1973340    -0.7860620     0.1043030
  C       -1.2794180    -0.6438800     0.1043020
  C        0.0820930     1.4299600     0.1043060
  H        0.0000000     0.0000070    -1.3718780
  H        1.2101320    -0.7924030     1.1940770
  H        1.1141900    -1.8025260    -0.2793360
  H        2.0966990    -0.3074600    -0.2821810
  H       -1.2913640    -0.6516640     1.1940790
  H       -2.1181090    -0.0636870    -0.2794440
  H       -1.3146120    -1.6621050    -0.2820540
  H        1.0038890     1.8661770    -0.2794750
  H       -0.7821500     1.9695010    -0.2820410
  H        0.0813420     1.4441500     1.1940790
units angstrom
no_reorient  #important for SAPT in psi4, default
symmetry c1  #important for SAPT in psi4, default
}

set PROPERTIES_ORIGIN ["COM"]
properties('MP2/aug-cc-pvtz', properties = ['dipole'])
--------------------------------------------------------------------------

    Molecular point group: c1
  Charge       = 1
  Multiplicity = 1
  Basis Set: AUG-CC-PVTZ
    Blend: AUG-CC-PVTZ
  Basis Set: (AUG-CC-PVTZ AUX)
    Blend: AUG-CC-PVTZ-JKFIT

    Orbital Energies [Eh]
    ---------------------

    Doubly Occupied:

       1A    -15.879836     2A    -11.463815     3A    -11.463811
       4A    -11.463793     5A     -1.510276     6A     -1.179603
       7A     -1.179599     8A     -1.084623     9A     -0.933320
      10A     -0.859928    11A     -0.859923    12A     -0.771091
      13A     -0.771090    14A     -0.740867    15A     -0.740784
      16A     -0.735354    17A     -0.735346

  @DF-RHF Final Energy:  -173.71829583615158

   => Energetics <=

    Nuclear Repulsion Energy =            146.2989875797449884
    One-Electron Energy =                -515.2884498477392299
    Two-Electron Energy =                 195.2711664318426301
    Total Energy =                       -173.7182958361515830
  Basis Set: (AUG-CC-PVTZ AUX)
    Blend: AUG-CC-PVTZ-RI
    Molecular point group: c1

    Geometry (in Angstrom), charge = 1, multiplicity = 1:

       Center              X                  Y                   Z               Mass
    ------------   -----------------  -----------------  -----------------  -----------------
         N           -0.000009752041    -0.000014164422    -0.334626113507    14.003074004430
         C            1.197334247959    -0.786062164422     0.113003886493    12.000000000000
         C           -1.279417752041    -0.643880164422     0.113002886493    12.000000000000
         C            0.082093247959     1.429959835578     0.113006886493    12.000000000000
         H            0.000000247959     0.000006835578    -1.363177113507     1.007825032230
         H            1.210132247959    -0.792403164422     1.202777886493     1.007825032230
         H            1.114190247959    -1.802526164422    -0.270635113507     1.007825032230
         H            2.096699247959    -0.307460164422    -0.273480113507     1.007825032230
         H           -1.291363752041    -0.651664164422     1.202779886493     1.007825032230
         H           -2.118108752041    -0.063687164422    -0.270743113507     1.007825032230
         H           -1.314611752041    -1.662105164422    -0.273353113507     1.007825032230
         H            1.003889247959     1.866176835578    -0.270774113507     1.007825032230
         H           -0.782149752041     1.969500835578    -0.273340113507     1.007825032230
         H            0.081342247959     1.444149835578     1.202779886493     1.007825032230

  Basis Set: AUG-CC-PVTZ
    Blend: AUG-CC-PVTZ
  Basis Set: (AUG-CC-PVTZ AUX)
    Blend: AUG-CC-PVTZ-JKFIT
	 Reference Energy          =    -173.7182958361515830 [Eh]
	 Singles Energy            =      -0.0000000000000000 [Eh]
	 Same-Spin Energy          =      -0.1727052446007553 [Eh]
	 Opposite-Spin Energy      =      -0.6569517195271907 [Eh]
	 Correlation Energy        =      -0.8296569641279459 [Eh]
	 Total Energy              =    -174.5479528002795178 [Eh]

	 ================> DF-SCS-MP2 Energies <==================
	-----------------------------------------------------------
	 SCS Same-Spin Scale       =       0.3333333333333333 [-]
	 SCS Opposite-Spin Scale   =       1.2000000000000000 [-]
	 SCS Same-Spin Energy      =      -0.0575684148669184 [Eh]
	 SCS Opposite-Spin Energy  =      -0.7883420634326288 [Eh]
	 SCS Correlation Energy    =      -0.8459104782995472 [Eh]
	 SCS Total Energy          =    -174.5642063144511269 [Eh]
	-----------------------------------------------------------

  Dipole Moment: [D]
     X:     0.0000      Y:     0.0000      Z:    -0.8160     Total:     0.8160

*** Psi4 exiting successfully. Buy a developer a beer!
