                               Psi4 1.3.2 release

  ==> Input File <==

--------------------------------------------------------------------------
#psi4
#
memory 32 gb

molecule  {
1 1
  N       -0.0000100    -0.0000140    -0.3433270
  C        1.0377547    -0.6812993     0.0446439
  C       -1.2794180    -0.6438800     0.1043020
  C        0.0820930     1.4299600     0.1043060
  H        0.0000000     0.0000070    -1.3718780
  H        1.2101320    -0.7924030     1.1940770
  H        1.1141900    -1.8025260    -0.2793360
  H        2.0966990    -0.3074600    -0.2821810
  H       -1.2913640    -0.6516640     1.1940790
  H       -2.1181090    -0.0636870    -0.2794440
  H       -1.3146120    -1.6621050    -0.2820540
  H        1.0038890     1.8661770    -0.2794750
  H       -0.7821500     1.9695010    -0.2820410
  H        0.0813420     1.4441500     1.1940790
units angstrom
no_reorient  #important for SAPT in psi4, default
symmetry c1  #important for SAPT in psi4, default
}

set PROPERTIES_ORIGIN ["COM"]
properties('MP2/aug-cc-pvtz', properties = ['dipole'])
--------------------------------------------------------------------------

    Molecular point group: c1
  Charge       = 1
  Multiplicity = 1
  Basis Set: AUG-CC-PVTZ
    Blend: AUG-CC-PVTZ
  Basis Set: (AUG-CC-PVTZ AUX)
    Blend: AUG-CC-PVTZ-JKFIT

    Orbital Energies [Eh]
    ---------------------

    Doubly Occupied:

       1A    -15.886476     2A    -11.469500     3A    -11.469486
       4A    -11.463830     5A     -1.567435     6A     -1.195305
       7A     -1.191264     8A     -1.084064     9A     -0.956494
      10A     -0.886684    11A     -0.877811    12A     -0.776485
      13A     -0.774007    14A     -0.760682    15A     -0.745343
      16A     -0.693660    17A     -0.685627

  @DF-RHF Final Energy:  -173.67301975383546

   => Energetics <=

    Nuclear Repulsion Energy =            149.5278937843513063
    One-Electron Energy =                -521.4335195489161379
    Two-Electron Energy =                 198.2326060107293699
    Total Energy =                       -173.6730197538354616
  Basis Set: (AUG-CC-PVTZ AUX)
    Blend: AUG-CC-PVTZ-RI
    Molecular point group: c1

    Geometry (in Angstrom), charge = 1, multiplicity = 1:

       Center              X                  Y                   Z               Mass
    ------------   -----------------  -----------------  -----------------  -----------------
         N            0.031862907583    -0.020938343676    -0.322710444070    14.003074004430
         C            1.069627607583    -0.702223643676     0.065260455930    12.000000000000
         C           -1.247545092417    -0.664804343676     0.124918555930    12.000000000000
         C            0.113965907583     1.409035656324     0.124922555930    12.000000000000
         H            0.031872907583    -0.020917343676    -1.351261444070     1.007825032230
         H            1.242004907583    -0.813327343676     1.214693555930     1.007825032230
         H            1.146062907583    -1.823450343676    -0.258719444070     1.007825032230
         H            2.128571907583    -0.328384343676    -0.261564444070     1.007825032230
         H           -1.259491092417    -0.672588343676     1.214695555930     1.007825032230
         H           -2.086236092417    -0.084611343676    -0.258827444070     1.007825032230
         H           -1.282739092417    -1.683029343676    -0.261437444070     1.007825032230
         H            1.035761907583     1.845252656324    -0.258858444070     1.007825032230
         H           -0.750277092417     1.948576656324    -0.261424444070     1.007825032230
         H            0.113214907583     1.423225656324     1.214695555930     1.007825032230

  Basis Set: AUG-CC-PVTZ
    Blend: AUG-CC-PVTZ
  Basis Set: (AUG-CC-PVTZ AUX)
    Blend: AUG-CC-PVTZ-JKFIT
	 Reference Energy          =    -173.6730197538354616 [Eh]
	 Singles Energy            =      -0.0000000000000000 [Eh]
	 Same-Spin Energy          =      -0.1754130311675565 [Eh]
	 Opposite-Spin Energy      =      -0.6592841906290341 [Eh]
	 Correlation Energy        =      -0.8346972217965907 [Eh]
	 Total Energy              =    -174.5077169756320643 [Eh]

	 ================> DF-SCS-MP2 Energies <==================
	-----------------------------------------------------------
	 SCS Same-Spin Scale       =       0.3333333333333333 [-]
	 SCS Opposite-Spin Scale   =       1.2000000000000000 [-]
	 SCS Same-Spin Energy      =      -0.0584710103891855 [Eh]
	 SCS Opposite-Spin Energy  =      -0.7911410287548409 [Eh]
	 SCS Correlation Energy    =      -0.8496120391440265 [Eh]
	 SCS Total Energy          =    -174.5226317929794959 [Eh]
	-----------------------------------------------------------

  Dipole Moment: [D]
     X:    -0.1382      Y:     0.0908      Z:    -0.8244     Total:     0.8409

*** Psi4 exiting successfully. Buy a developer a beer!
