                               Psi4 1.4a3.dev225

  ==> Input File <==

--------------------------------------------------------------------------
#psi4
#
memory 32 gb

molecule  {
1 1
  N        0.0000000     0.0000000    -0.3433230
  C        1.1622150    -0.8695449     0.1102766
  C       -1.3166090    -0.5642150     0.1043110
  C        0.1696800     1.4223250     0.1043110
  H        0.0000000     0.0000000    -1.3718720
  H        1.1582120    -0.8665450     1.1940820
  H        1.0023560    -1.8671060    -0.2807800
  H        2.0740990    -0.4346410    -0.2807890
  H       -1.3295560    -0.5697670     1.1940820
  H       -2.1181390     0.0654870    -0.2807820
  H       -1.4134600    -1.5789020    -0.2807870
  H        1.1157820     1.8016190    -0.2807830
  H       -0.6606400     2.0135430    -0.2807860
  H        0.1713470     1.4363130     1.1940820
units angstrom
no_reorient  #important for SAPT in psi4, default
symmetry c1  #important for SAPT in psi4, default
}

set PROPERTIES_ORIGIN ["COM"]
properties('MP2/aug-cc-pvtz', properties = ['dipole'])
--------------------------------------------------------------------------

    Molecular point group: c1
  Charge       = 1
  Multiplicity = 1
  Basis Set: AUG-CC-PVTZ
    Blend: AUG-CC-PVTZ
  Basis Set: (AUG-CC-PVTZ AUX)
    Blend: AUG-CC-PVTZ-JKFIT

    Orbital Energies [Eh]
    ---------------------

    Doubly Occupied:

       1A    -15.878514     2A    -11.464604     3A    -11.463171
       4A    -11.463158     5A     -1.505837     6A     -1.178984
       7A     -1.178470     8A     -1.084459     9A     -0.931120
      10A     -0.858704    11A     -0.857345    12A     -0.773220
      13A     -0.771266    14A     -0.743296    15A     -0.741891
      16A     -0.735972    17A     -0.732313

  @DF-RHF Final Energy:  -173.71799411086883

   => Energetics <=

    Nuclear Repulsion Energy =            146.0018582880049678
    One-Electron Energy =                -514.7150585487271428
    Two-Electron Energy =                 194.9952061498533169
    Total Energy =                       -173.7179941108688297
  Basis Set: (AUG-CC-PVTZ AUX)
    Blend: AUG-CC-PVTZ-RI
    Molecular point group: c1

    Geometry (in Angstrom), charge = 1, multiplicity = 1:

       Center              X                  Y                   Z               Mass
    ------------   -----------------  -----------------  -----------------  -----------------
         N           -0.003053078638     0.002283867636    -0.335816277732    14.003074004430
         C            1.159161921362    -0.867261032364     0.117783322268    12.000000000000
         C           -1.319662078638    -0.561931132364     0.111817722268    12.000000000000
         C            0.166626921362     1.424608867636     0.111817722268    12.000000000000
         H           -0.003053078638     0.002283867636    -1.364365277732     1.007825032230
         H            1.155158921362    -0.864261132364     1.201588722268     1.007825032230
         H            0.999302921362    -1.864822132364    -0.273273277732     1.007825032230
         H            2.071045921362    -0.432357132364    -0.273282277732     1.007825032230
         H           -1.332609078638    -0.567483132364     1.201588722268     1.007825032230
         H           -2.121192078638     0.067770867636    -0.273275277732     1.007825032230
         H           -1.416513078638    -1.576618132364    -0.273280277732     1.007825032230
         H            1.112728921362     1.803902867636    -0.273276277732     1.007825032230
         H           -0.663693078638     2.015826867636    -0.273279277732     1.007825032230
         H            0.168293921362     1.438596867636     1.201588722268     1.007825032230

  Basis Set: AUG-CC-PVTZ
    Blend: AUG-CC-PVTZ
  Basis Set: (AUG-CC-PVTZ AUX)
    Blend: AUG-CC-PVTZ-JKFIT
	 Reference Energy          =    -173.7179941108688297 [Eh]
	 Singles Energy            =      -0.0000000000000000 [Eh]
	 Same-Spin Energy          =      -0.1725730450402874 [Eh]
	 Opposite-Spin Energy      =      -0.6569741368210784 [Eh]
	 Correlation Energy        =      -0.8295471818613658 [Eh]
	 Total Energy              =    -174.5475412927301875 [Eh]

	 ================> DF-SCS-MP2 Energies <==================
	-----------------------------------------------------------
	 SCS Same-Spin Scale       =       0.3333333333333333 [-]
	 SCS Opposite-Spin Scale   =       1.2000000000000000 [-]
	 SCS Same-Spin Energy      =      -0.0575243483467625 [Eh]
	 SCS Opposite-Spin Energy  =      -0.7883689641852941 [Eh]
	 SCS Correlation Energy    =      -0.8458933125320566 [Eh]
	 SCS Total Energy          =    -174.5638874234008995 [Eh]
	-----------------------------------------------------------

  Dipole Moment: [D]
     X:     0.0197      Y:    -0.0147      Z:    -0.8129     Total:     0.8133

*** Psi4 exiting successfully. Buy a developer a beer!
