                               Psi4 1.3.2 release

  ==> Input File <==

--------------------------------------------------------------------------
#psi4
#
memory 32 gb

molecule  {
1 1
  N       -0.0000100    -0.0000140    -0.3433270
  C        1.1175443    -0.7336806     0.0744734
  C       -1.2794180    -0.6438800     0.1043020
  C        0.0820930     1.4299600     0.1043060
  H        0.0000000     0.0000070    -1.3718780
  H        1.2101320    -0.7924030     1.1940770
  H        1.1141900    -1.8025260    -0.2793360
  H        2.0966990    -0.3074600    -0.2821810
  H       -1.2913640    -0.6516640     1.1940790
  H       -2.1181090    -0.0636870    -0.2794440
  H       -1.3146120    -1.6621050    -0.2820540
  H        1.0038890     1.8661770    -0.2794750
  H       -0.7821500     1.9695010    -0.2820410
  H        0.0813420     1.4441500     1.1940790
units angstrom
no_reorient  #important for SAPT in psi4, default
symmetry c1  #important for SAPT in psi4, default
}

set PROPERTIES_ORIGIN ["COM"]
properties('MP2/aug-cc-pvtz', properties = ['dipole'])
--------------------------------------------------------------------------

    Molecular point group: c1
  Charge       = 1
  Multiplicity = 1
  Basis Set: AUG-CC-PVTZ
    Blend: AUG-CC-PVTZ
  Basis Set: (AUG-CC-PVTZ AUX)
    Blend: AUG-CC-PVTZ-JKFIT

    Orbital Energies [Eh]
    ---------------------

    Doubly Occupied:

       1A    -15.884563     2A    -11.466769     3A    -11.466755
       4A    -11.462095     5A     -1.535354     6A     -1.185238
       7A     -1.185193     8A     -1.084508     9A     -0.944761
      10A     -0.873323    11A     -0.867481    12A     -0.772007
      13A     -0.769605    14A     -0.752020    15A     -0.741921
      16A     -0.720699    17A     -0.713879

  @DF-RHF Final Energy:  -173.70840677772429

   => Energetics <=

    Nuclear Repulsion Energy =            147.8319718984220685
    One-Electron Energy =                -518.2284166618966310
    Two-Electron Energy =                 196.6880379857502703
    Total Energy =                       -173.7084067777242922
  Basis Set: (AUG-CC-PVTZ AUX)
    Blend: AUG-CC-PVTZ-RI
    Molecular point group: c1

    Geometry (in Angstrom), charge = 1, multiplicity = 1:

       Center              X                  Y                   Z               Mass
    ------------   -----------------  -----------------  -----------------  -----------------
         N            0.015926587757    -0.010476264036    -0.328668268802    14.003074004430
         C            1.133480887757    -0.744142864036     0.089132131198    12.000000000000
         C           -1.263481412243    -0.654342264036     0.118960731198    12.000000000000
         C            0.098029587757     1.419497735964     0.118964731198    12.000000000000
         H            0.015936587757    -0.010455264036    -1.357219268802     1.007825032230
         H            1.226068587757    -0.802865264036     1.208735731198     1.007825032230
         H            1.130126587757    -1.812988264036    -0.264677268802     1.007825032230
         H            2.112635587757    -0.317922264036    -0.267522268802     1.007825032230
         H           -1.275427412243    -0.662126264036     1.208737731198     1.007825032230
         H           -2.102172412243    -0.074149264036    -0.264785268802     1.007825032230
         H           -1.298675412243    -1.672567264036    -0.267395268802     1.007825032230
         H            1.019825587757     1.855714735964    -0.264816268802     1.007825032230
         H           -0.766213412243     1.959038735964    -0.267382268802     1.007825032230
         H            0.097278587757     1.433687735964     1.208737731198     1.007825032230

  Basis Set: AUG-CC-PVTZ
    Blend: AUG-CC-PVTZ
  Basis Set: (AUG-CC-PVTZ AUX)
    Blend: AUG-CC-PVTZ-JKFIT
	 Reference Energy          =    -173.7084067777242922 [Eh]
	 Singles Energy            =      -0.0000000000000000 [Eh]
	 Same-Spin Energy          =      -0.1737041052560042 [Eh]
	 Opposite-Spin Energy      =      -0.6574784997971843 [Eh]
	 Correlation Energy        =      -0.8311826050531885 [Eh]
	 Total Energy              =    -174.5395893827774785 [Eh]

	 ================> DF-SCS-MP2 Energies <==================
	-----------------------------------------------------------
	 SCS Same-Spin Scale       =       0.3333333333333333 [-]
	 SCS Opposite-Spin Scale   =       1.2000000000000000 [-]
	 SCS Same-Spin Energy      =      -0.0579013684186681 [Eh]
	 SCS Opposite-Spin Energy  =      -0.7889741997566212 [Eh]
	 SCS Correlation Energy    =      -0.8468755681752893 [Eh]
	 SCS Total Energy          =    -174.5552823458995704 [Eh]
	-----------------------------------------------------------

  Dipole Moment: [D]
     X:    -0.0825      Y:     0.0542      Z:    -0.8249     Total:     0.8308

*** Psi4 exiting successfully. Buy a developer a beer!
