                               Psi4 1.3.2 release

  ==> Input File <==

--------------------------------------------------------------------------
#psi4
#
memory 32 gb

molecule  {
1 1
  N       -0.0000100    -0.0000140    -0.3433270
  C        1.1906206    -0.7816555     0.1292320
  C       -1.2794180    -0.6438800     0.1043020
  C        0.0820930     1.4299600     0.1043060
  H        0.0000000     0.0000070    -1.3718780
  H        1.2101320    -0.7924030     1.1940770
  H        1.1141900    -1.8025260    -0.2793360
  H        2.0966990    -0.3074600    -0.2821810
  H       -1.2913640    -0.6516640     1.1940790
  H       -2.1181090    -0.0636870    -0.2794440
  H       -1.3146120    -1.6621050    -0.2820540
  H        1.0038890     1.8661770    -0.2794750
  H       -0.7821500     1.9695010    -0.2820410
  H        0.0813420     1.4441500     1.1940790
units angstrom
no_reorient  #important for SAPT in psi4, default
symmetry c1  #important for SAPT in psi4, default
}

set PROPERTIES_ORIGIN ["COM"]
properties('MP2/aug-cc-pvtz', properties = ['dipole'])
--------------------------------------------------------------------------

    Molecular point group: c1
  Charge       = 1
  Multiplicity = 1
  Basis Set: AUG-CC-PVTZ
    Blend: AUG-CC-PVTZ
  Basis Set: (AUG-CC-PVTZ AUX)
    Blend: AUG-CC-PVTZ-JKFIT

    Orbital Energies [Eh]
    ---------------------

    Doubly Occupied:

       1A    -15.879931     2A    -11.463893     3A    -11.463653
       4A    -11.463638     5A     -1.510389     6A     -1.179617
       7A     -1.179068     8A     -1.085744     9A     -0.932990
      10A     -0.860667    11A     -0.858248    12A     -0.776765
      13A     -0.770553    14A     -0.743905    15A     -0.738830
      16A     -0.733970    17A     -0.731387

  @DF-RHF Final Energy:  -173.71743638008456

   => Energetics <=

    Nuclear Repulsion Energy =            146.3505120200554188
    One-Electron Energy =                -515.3893978555313424
    Two-Electron Energy =                 195.3214494553913596
    Total Energy =                       -173.7174363800845640
  Basis Set: (AUG-CC-PVTZ AUX)
    Blend: AUG-CC-PVTZ-RI
    Molecular point group: c1

    Geometry (in Angstrom), charge = 1, multiplicity = 1:

       Center              X                  Y                   Z               Mass
    ------------   -----------------  -----------------  -----------------  -----------------
         N            0.001331110547    -0.000894271520    -0.339605164874    14.003074004430
         C            1.191961710547    -0.782535771520     0.132953835126    12.000000000000
         C           -1.278076889453    -0.644760271520     0.108023835126    12.000000000000
         C            0.083434110547     1.429079728480     0.108027835126    12.000000000000
         H            0.001341110547    -0.000873271520    -1.368156164874     1.007825032230
         H            1.211473110547    -0.793283271520     1.197798835126     1.007825032230
         H            1.115531110547    -1.803406271520    -0.275614164874     1.007825032230
         H            2.098040110547    -0.308340271520    -0.278459164874     1.007825032230
         H           -1.290022889453    -0.652544271520     1.197800835126     1.007825032230
         H           -2.116767889453    -0.064567271520    -0.275722164874     1.007825032230
         H           -1.313270889453    -1.662985271520    -0.278332164874     1.007825032230
         H            1.005230110547     1.865296728480    -0.275753164874     1.007825032230
         H           -0.780808889453     1.968620728480    -0.278319164874     1.007825032230
         H            0.082683110547     1.443269728480     1.197800835126     1.007825032230

  Basis Set: AUG-CC-PVTZ
    Blend: AUG-CC-PVTZ
  Basis Set: (AUG-CC-PVTZ AUX)
    Blend: AUG-CC-PVTZ-JKFIT
	 Reference Energy          =    -173.7174363800845640 [Eh]
	 Singles Energy            =      -0.0000000000000000 [Eh]
	 Same-Spin Energy          =      -0.1727243435708532 [Eh]
	 Opposite-Spin Energy      =      -0.6570244445409972 [Eh]
	 Correlation Energy        =      -0.8297487881118504 [Eh]
	 Total Energy              =    -174.5471851681964210 [Eh]

	 ================> DF-SCS-MP2 Energies <==================
	-----------------------------------------------------------
	 SCS Same-Spin Scale       =       0.3333333333333333 [-]
	 SCS Opposite-Spin Scale   =       1.2000000000000000 [-]
	 SCS Same-Spin Energy      =      -0.0575747811902844 [Eh]
	 SCS Opposite-Spin Energy  =      -0.7884293334491966 [Eh]
	 SCS Correlation Energy    =      -0.8460041146394810 [Eh]
	 SCS Total Energy          =    -174.5634404947240341 [Eh]
	-----------------------------------------------------------

  Dipole Moment: [D]
     X:     0.0062      Y:    -0.0040      Z:    -0.8280     Total:     0.8281

*** Psi4 exiting successfully. Buy a developer a beer!
