                               Psi4 1.3.2 release

  ==> Input File <==

--------------------------------------------------------------------------
#psi4
#
memory 32 gb

molecule  {
1 1
  N       -0.0000100    -0.0000140    -0.3433270
  C        1.1973340    -0.7860620     0.1043030
  C       -1.2794180    -0.6438800     0.1043020
  C        0.0820930     1.4299600     0.1043060
  H        0.0000019     0.0000111    -1.5718780
  H        1.2101320    -0.7924030     1.1940770
  H        1.1141900    -1.8025260    -0.2793360
  H        2.0966990    -0.3074600    -0.2821810
  H       -1.2913640    -0.6516640     1.1940790
  H       -2.1181090    -0.0636870    -0.2794440
  H       -1.3146120    -1.6621050    -0.2820540
  H        1.0038890     1.8661770    -0.2794750
  H       -0.7821500     1.9695010    -0.2820410
  H        0.0813420     1.4441500     1.1940790
units angstrom
no_reorient  #important for SAPT in psi4, default
symmetry c1  #important for SAPT in psi4, default
}

set PROPERTIES_ORIGIN ["COM"]
properties('MP2/aug-cc-pvtz', properties = ['dipole'])
--------------------------------------------------------------------------

    Molecular point group: c1
  Charge       = 1
  Multiplicity = 1
  Basis Set: AUG-CC-PVTZ
    Blend: AUG-CC-PVTZ
  Basis Set: (AUG-CC-PVTZ AUX)
    Blend: AUG-CC-PVTZ-JKFIT

    Orbital Energies [Eh]
    ---------------------

    Doubly Occupied:

       1A    -15.891788     2A    -11.462084     3A    -11.462081
       4A    -11.462061     5A     -1.489633     6A     -1.176914
       7A     -1.176910     8A     -1.055298     9A     -0.911097
      10A     -0.856770    11A     -0.856765    12A     -0.768568
      13A     -0.768568    14A     -0.738715    15A     -0.733234
      16A     -0.733226    17A     -0.717610

  @DF-RHF Final Energy:  -173.69053258082477

   => Energetics <=

    Nuclear Repulsion Energy =            145.3190391800423242
    One-Electron Energy =                -513.4964970558273762
    Two-Electron Energy =                 194.4869252949603151
    Total Energy =                       -173.6905325808247653
  Basis Set: (AUG-CC-PVTZ AUX)
    Blend: AUG-CC-PVTZ-RI
    Molecular point group: c1

    Geometry (in Angstrom), charge = 1, multiplicity = 1:

       Center              X                  Y                   Z               Mass
    ------------   -----------------  -----------------  -----------------  -----------------
         N           -0.000009783912    -0.000014233197    -0.331271243941    14.003074004430
         C            1.197334216088    -0.786062233197     0.116358756059    12.000000000000
         C           -1.279417783912    -0.643880233197     0.116357756059    12.000000000000
         C            0.082093216088     1.429959766803     0.116361756059    12.000000000000
         H            0.000002116088     0.000010866803    -1.559822243941     1.007825032230
         H            1.210132216088    -0.792403233197     1.206132756059     1.007825032230
         H            1.114190216088    -1.802526233197    -0.267280243941     1.007825032230
         H            2.096699216088    -0.307460233197    -0.270125243941     1.007825032230
         H           -1.291363783912    -0.651664233197     1.206134756059     1.007825032230
         H           -2.118108783912    -0.063687233197    -0.267388243941     1.007825032230
         H           -1.314611783912    -1.662105233197    -0.269998243941     1.007825032230
         H            1.003889216088     1.866176766803    -0.267419243941     1.007825032230
         H           -0.782149783912     1.969500766803    -0.269985243941     1.007825032230
         H            0.081342216088     1.444149766803     1.206134756059     1.007825032230

  Basis Set: AUG-CC-PVTZ
    Blend: AUG-CC-PVTZ
  Basis Set: (AUG-CC-PVTZ AUX)
    Blend: AUG-CC-PVTZ-JKFIT
	 Reference Energy          =    -173.6905325808247653 [Eh]
	 Singles Energy            =      -0.0000000000000000 [Eh]
	 Same-Spin Energy          =      -0.1741036999236455 [Eh]
	 Opposite-Spin Energy      =      -0.6613080089858824 [Eh]
	 Correlation Energy        =      -0.8354117089095279 [Eh]
	 Total Energy              =    -174.5259442897342979 [Eh]

	 ================> DF-SCS-MP2 Energies <==================
	-----------------------------------------------------------
	 SCS Same-Spin Scale       =       0.3333333333333333 [-]
	 SCS Opposite-Spin Scale   =       1.2000000000000000 [-]
	 SCS Same-Spin Energy      =      -0.0580345666412152 [Eh]
	 SCS Opposite-Spin Energy  =      -0.7935696107830589 [Eh]
	 SCS Correlation Energy    =      -0.8516041774242741 [Eh]
	 SCS Total Energy          =    -174.5421367582490291 [Eh]
	-----------------------------------------------------------

  Dipole Moment: [D]
     X:     0.0000      Y:     0.0000      Z:    -1.0460     Total:     1.0460

*** Psi4 exiting successfully. Buy a developer a beer!
