                               Psi4 1.3.2 release

  ==> Input File <==

--------------------------------------------------------------------------
#psi4
#
memory 32 gb

molecule  {
1 1
  N       -0.0000100    -0.0000140    -0.3433270
  C        1.2574367    -0.7142709     0.0573496
  C       -1.2794180    -0.6438800     0.1043020
  C        0.0820930     1.4299600     0.1043060
  H        0.0000000     0.0000070    -1.3718780
  H        1.2101320    -0.7924030     1.1940770
  H        1.1141900    -1.8025260    -0.2793360
  H        2.0966990    -0.3074600    -0.2821810
  H       -1.2913640    -0.6516640     1.1940790
  H       -2.1181090    -0.0636870    -0.2794440
  H       -1.3146120    -1.6621050    -0.2820540
  H        1.0038890     1.8661770    -0.2794750
  H       -0.7821500     1.9695010    -0.2820410
  H        0.0813420     1.4441500     1.1940790
units angstrom
no_reorient  #important for SAPT in psi4, default
symmetry c1  #important for SAPT in psi4, default
}

set PROPERTIES_ORIGIN ["COM"]
properties('MP2/aug-cc-pvtz', properties = ['dipole'])
--------------------------------------------------------------------------

    Molecular point group: c1
  Charge       = 1
  Multiplicity = 1
  Basis Set: AUG-CC-PVTZ
    Blend: AUG-CC-PVTZ
  Basis Set: (AUG-CC-PVTZ AUX)
    Blend: AUG-CC-PVTZ-JKFIT

    Orbital Energies [Eh]
    ---------------------

    Doubly Occupied:

       1A    -15.880450     2A    -11.465927     3A    -11.465351
       4A    -11.463048     5A     -1.510688     6A     -1.185422
       7A     -1.176430     8A     -1.083910     9A     -0.936899
      10A     -0.867678    11A     -0.857685    12A     -0.776373
      13A     -0.765162    14A     -0.756783    15A     -0.738735
      16A     -0.733701    17A     -0.714736

  @DF-RHF Final Energy:  -173.70376842967423

   => Energetics <=

    Nuclear Repulsion Energy =            146.2348296105093937
    One-Electron Energy =                -515.1192363936979746
    Two-Electron Energy =                 195.1806383535143539
    Total Energy =                       -173.7037684296742270
  Basis Set: (AUG-CC-PVTZ AUX)
    Blend: AUG-CC-PVTZ-RI
    Molecular point group: c1

    Geometry (in Angstrom), charge = 1, multiplicity = 1:

       Center              X                  Y                   Z               Mass
    ------------   -----------------  -----------------  -----------------  -----------------
         N           -0.012014021389    -0.014352949555    -0.325248144457    14.003074004430
         C            1.245432678611    -0.728609849555     0.075428455543    12.000000000000
         C           -1.291422021389    -0.658218949555     0.122380855543    12.000000000000
         C            0.070088978611     1.415621050445     0.122384855543    12.000000000000
         H           -0.012004021389    -0.014331949555    -1.353799144457     1.007825032230
         H            1.198127978611    -0.806741949555     1.212155855543     1.007825032230
         H            1.102185978611    -1.816864949555    -0.261257144457     1.007825032230
         H            2.084694978611    -0.321798949555    -0.264102144457     1.007825032230
         H           -1.303368021389    -0.666002949555     1.212157855543     1.007825032230
         H           -2.130113021389    -0.078025949555    -0.261365144457     1.007825032230
         H           -1.326616021389    -1.676443949555    -0.263975144457     1.007825032230
         H            0.991884978611     1.851838050445    -0.261396144457     1.007825032230
         H           -0.794154021389     1.955162050445    -0.263962144457     1.007825032230
         H            0.069337978611     1.429811050445     1.212157855543     1.007825032230

  Basis Set: AUG-CC-PVTZ
    Blend: AUG-CC-PVTZ
  Basis Set: (AUG-CC-PVTZ AUX)
    Blend: AUG-CC-PVTZ-JKFIT
	 Reference Energy          =    -173.7037684296742270 [Eh]
	 Singles Energy            =      -0.0000000000000000 [Eh]
	 Same-Spin Energy          =      -0.1729436115284593 [Eh]
	 Opposite-Spin Energy      =      -0.6576150934680758 [Eh]
	 Correlation Energy        =      -0.8305587049965351 [Eh]
	 Total Energy              =    -174.5343271346707752 [Eh]

	 ================> DF-SCS-MP2 Energies <==================
	-----------------------------------------------------------
	 SCS Same-Spin Scale       =       0.3333333333333333 [-]
	 SCS Opposite-Spin Scale   =       1.2000000000000000 [-]
	 SCS Same-Spin Energy      =      -0.0576478705094864 [Eh]
	 SCS Opposite-Spin Energy  =      -0.7891381121616909 [Eh]
	 SCS Correlation Energy    =      -0.8467859826711773 [Eh]
	 SCS Total Energy          =    -174.5505544123454058 [Eh]
	-----------------------------------------------------------

  Dipole Moment: [D]
     X:    -0.0721      Y:    -0.0444      Z:    -0.7927     Total:     0.7972

*** Psi4 exiting successfully. Buy a developer a beer!
