                               Psi4 1.4a3.dev225

  ==> Input File <==

--------------------------------------------------------------------------
#psi4
#
memory 32 gb

molecule  {
1 1
  N        0.0000000     0.0000000    -0.3433230
  C        1.1087175    -0.8295192     0.0893971
  C       -1.3166090    -0.5642150     0.1043110
  C        0.1696800     1.4223250     0.1043110
  H        0.0000000     0.0000000    -1.3718720
  H        1.1582120    -0.8665450     1.1940820
  H        1.0023560    -1.8671060    -0.2807800
  H        2.0740990    -0.4346410    -0.2807890
  H       -1.3295560    -0.5697670     1.1940820
  H       -2.1181390     0.0654870    -0.2807820
  H       -1.4134600    -1.5789020    -0.2807870
  H        1.1157820     1.8016190    -0.2807830
  H       -0.6606400     2.0135430    -0.2807860
  H        0.1713470     1.4363130     1.1940820
units angstrom
no_reorient  #important for SAPT in psi4, default
symmetry c1  #important for SAPT in psi4, default
}

set PROPERTIES_ORIGIN ["COM"]
properties('MP2/aug-cc-pvtz', properties = ['dipole'])
--------------------------------------------------------------------------

    Molecular point group: c1
  Charge       = 1
  Multiplicity = 1
  Basis Set: AUG-CC-PVTZ
    Blend: AUG-CC-PVTZ
  Basis Set: (AUG-CC-PVTZ AUX)
    Blend: AUG-CC-PVTZ-JKFIT

    Orbital Energies [Eh]
    ---------------------

    Doubly Occupied:

       1A    -15.882563     2A    -11.465345     3A    -11.465332
       4A    -11.462494     5A     -1.522014     6A     -1.182353
       7A     -1.181831     8A     -1.084709     9A     -0.938897
      10A     -0.866493    11A     -0.863338    12A     -0.771308
      13A     -0.768649    14A     -0.745581    15A     -0.740400
      16A     -0.731478    17A     -0.726363

  @DF-RHF Final Energy:  -173.71596018716411

   => Energetics <=

    Nuclear Repulsion Energy =            147.0423461575418287
    One-Electron Energy =                -516.7183163045490346
    Two-Electron Energy =                 195.9600099598430916
    Total Energy =                       -173.7159601871641144
  Basis Set: (AUG-CC-PVTZ AUX)
    Blend: AUG-CC-PVTZ-RI
    Molecular point group: c1

    Geometry (in Angstrom), charge = 1, multiplicity = 1:

       Center              X                  Y                   Z               Mass
    ------------   -----------------  -----------------  -----------------  -----------------
         N            0.007631938831    -0.005710436840    -0.331646030108    14.003074004430
         C            1.116349438831    -0.835229636840     0.101074069892    12.000000000000
         C           -1.308977061169    -0.569925436840     0.115987969892    12.000000000000
         C            0.177311938831     1.416614563160     0.115987969892    12.000000000000
         H            0.007631938831    -0.005710436840    -1.360195030108     1.007825032230
         H            1.165843938831    -0.872255436840     1.205758969892     1.007825032230
         H            1.009987938831    -1.872816436840    -0.269103030108     1.007825032230
         H            2.081730938831    -0.440351436840    -0.269112030108     1.007825032230
         H           -1.321924061169    -0.575477436840     1.205758969892     1.007825032230
         H           -2.110507061169     0.059776563160    -0.269105030108     1.007825032230
         H           -1.405828061169    -1.584612436840    -0.269110030108     1.007825032230
         H            1.123413938831     1.795908563160    -0.269106030108     1.007825032230
         H           -0.653008061169     2.007832563160    -0.269109030108     1.007825032230
         H            0.178978938831     1.430602563160     1.205758969892     1.007825032230

  Basis Set: AUG-CC-PVTZ
    Blend: AUG-CC-PVTZ
  Basis Set: (AUG-CC-PVTZ AUX)
    Blend: AUG-CC-PVTZ-JKFIT
	 Reference Energy          =    -173.7159601871641144 [Eh]
	 Singles Energy            =      -0.0000000000000000 [Eh]
	 Same-Spin Energy          =      -0.1731246077600695 [Eh]
	 Opposite-Spin Energy      =      -0.6570738086852295 [Eh]
	 Correlation Energy        =      -0.8301984164452990 [Eh]
	 Total Energy              =    -174.5461586036094275 [Eh]

	 ================> DF-SCS-MP2 Energies <==================
	-----------------------------------------------------------
	 SCS Same-Spin Scale       =       0.3333333333333333 [-]
	 SCS Opposite-Spin Scale   =       1.2000000000000000 [-]
	 SCS Same-Spin Energy      =      -0.0577082025866898 [Eh]
	 SCS Opposite-Spin Energy  =      -0.7884885704222754 [Eh]
	 SCS Correlation Energy    =      -0.8461967730089652 [Eh]
	 SCS Total Energy          =    -174.5621569601730698 [Eh]
	-----------------------------------------------------------

  Dipole Moment: [D]
     X:    -0.0434      Y:     0.0325      Z:    -0.8218     Total:     0.8236

*** Psi4 exiting successfully. Buy a developer a beer!
