                               Psi4 1.3.2 release

  ==> Input File <==

--------------------------------------------------------------------------
#psi4
#
memory 32 gb

molecule  {
1 1
  N       -0.0000100    -0.0000140    -0.3433270
  C        1.1813848    -0.8034247     0.1157093
  C       -1.2794180    -0.6438800     0.1043020
  C        0.0820930     1.4299600     0.1043060
  H        0.0000000     0.0000070    -1.3718780
  H        1.2101320    -0.7924030     1.1940770
  H        1.1141900    -1.8025260    -0.2793360
  H        2.0966990    -0.3074600    -0.2821810
  H       -1.2913640    -0.6516640     1.1940790
  H       -2.1181090    -0.0636870    -0.2794440
  H       -1.3146120    -1.6621050    -0.2820540
  H        1.0038890     1.8661770    -0.2794750
  H       -0.7821500     1.9695010    -0.2820410
  H        0.0813420     1.4441500     1.1940790
units angstrom
no_reorient  #important for SAPT in psi4, default
symmetry c1  #important for SAPT in psi4, default
}

set PROPERTIES_ORIGIN ["COM"]
properties('MP2/aug-cc-pvtz', properties = ['dipole'])
--------------------------------------------------------------------------

    Molecular point group: c1
  Charge       = 1
  Multiplicity = 1
  Basis Set: AUG-CC-PVTZ
    Blend: AUG-CC-PVTZ
  Basis Set: (AUG-CC-PVTZ AUX)
    Blend: AUG-CC-PVTZ-JKFIT

    Orbital Energies [Eh]
    ---------------------

    Doubly Occupied:

       1A    -15.879901     2A    -11.464074     3A    -11.463899
       4A    -11.463423     5A     -1.510347     6A     -1.180579
       7A     -1.178432     8A     -1.085150     9A     -0.933341
      10A     -0.860538    11A     -0.858897    12A     -0.774233
      13A     -0.770525    14A     -0.743443    15A     -0.740096
      16A     -0.737175    17A     -0.729294

  @DF-RHF Final Energy:  -173.71747950364070

   => Energetics <=

    Nuclear Repulsion Energy =            146.3235774742186095
    One-Electron Energy =                -515.3354196281192117
    Two-Electron Energy =                 195.2943626502598988
    Total Energy =                       -173.7174795036407033
  Basis Set: (AUG-CC-PVTZ AUX)
    Blend: AUG-CC-PVTZ-RI
    Molecular point group: c1

    Geometry (in Angstrom), charge = 1, multiplicity = 1:

       Center              X                  Y                   Z               Mass
    ------------   -----------------  -----------------  -----------------  -----------------
         N            0.003175770285     0.003453675249    -0.336904285660    14.003074004430
         C            1.184570570285    -0.799957024751     0.122132014340    12.000000000000
         C           -1.276232229715    -0.640412324751     0.110724714340    12.000000000000
         C            0.085278770285     1.433427675249     0.110728714340    12.000000000000
         H            0.003185770285     0.003474675249    -1.365455285660     1.007825032230
         H            1.213317770285    -0.788935324751     1.200499714340     1.007825032230
         H            1.117375770285    -1.799058324751    -0.272913285660     1.007825032230
         H            2.099884770285    -0.303992324751    -0.275758285660     1.007825032230
         H           -1.288178229715    -0.648196324751     1.200501714340     1.007825032230
         H           -2.114923229715    -0.060219324751    -0.273021285660     1.007825032230
         H           -1.311426229715    -1.658637324751    -0.275631285660     1.007825032230
         H            1.007074770285     1.869644675249    -0.273052285660     1.007825032230
         H           -0.778964229715     1.972968675249    -0.275618285660     1.007825032230
         H            0.084527770285     1.447617675249     1.200501714340     1.007825032230

  Basis Set: AUG-CC-PVTZ
    Blend: AUG-CC-PVTZ
  Basis Set: (AUG-CC-PVTZ AUX)
    Blend: AUG-CC-PVTZ-JKFIT
	 Reference Energy          =    -173.7174795036407033 [Eh]
	 Singles Energy            =      -0.0000000000000000 [Eh]
	 Same-Spin Energy          =      -0.1727224122313323 [Eh]
	 Opposite-Spin Energy      =      -0.6570087071645492 [Eh]
	 Correlation Energy        =      -0.8297311193958814 [Eh]
	 Total Energy              =    -174.5472106230365910 [Eh]

	 ================> DF-SCS-MP2 Energies <==================
	-----------------------------------------------------------
	 SCS Same-Spin Scale       =       0.3333333333333333 [-]
	 SCS Opposite-Spin Scale   =       1.2000000000000000 [-]
	 SCS Same-Spin Energy      =      -0.0575741374104441 [Eh]
	 SCS Opposite-Spin Energy  =      -0.7884104485974590 [Eh]
	 SCS Correlation Energy    =      -0.8459845860079030 [Eh]
	 SCS Total Energy          =    -174.5634640896486189 [Eh]
	-----------------------------------------------------------

  Dipole Moment: [D]
     X:     0.0110      Y:     0.0122      Z:    -0.8210     Total:     0.8212

*** Psi4 exiting successfully. Buy a developer a beer!
