                               Psi4 1.3.2 release

  ==> Input File <==

--------------------------------------------------------------------------
#psi4
#
memory 32 gb

molecule  {
1 1
  N       -0.0000100    -0.0000140    -0.3433270
  C        1.1973340    -0.7860620     0.1043030
  C       -1.2794180    -0.6438800     0.1043020
  C        0.0820930     1.4299600     0.1043060
  H       -0.0000019     0.0000029    -1.1718780
  H        1.2101320    -0.7924030     1.1940770
  H        1.1141900    -1.8025260    -0.2793360
  H        2.0966990    -0.3074600    -0.2821810
  H       -1.2913640    -0.6516640     1.1940790
  H       -2.1181090    -0.0636870    -0.2794440
  H       -1.3146120    -1.6621050    -0.2820540
  H        1.0038890     1.8661770    -0.2794750
  H       -0.7821500     1.9695010    -0.2820410
  H        0.0813420     1.4441500     1.1940790
units angstrom
no_reorient  #important for SAPT in psi4, default
symmetry c1  #important for SAPT in psi4, default
}

set PROPERTIES_ORIGIN ["COM"]
properties('MP2/aug-cc-pvtz', properties = ['dipole'])
--------------------------------------------------------------------------

    Molecular point group: c1
  Charge       = 1
  Multiplicity = 1
  Basis Set: AUG-CC-PVTZ
    Blend: AUG-CC-PVTZ
  Basis Set: (AUG-CC-PVTZ AUX)
    Blend: AUG-CC-PVTZ-JKFIT

    Orbital Energies [Eh]
    ---------------------

    Doubly Occupied:

       1A    -15.861780     2A    -11.465699     3A    -11.465695
       4A    -11.465678     5A     -1.547969     6A     -1.182341
       7A     -1.182337     8A     -1.132019     9A     -0.950189
      10A     -0.863490    11A     -0.863486    12A     -0.773497
      13A     -0.773496    14A     -0.759102    15A     -0.742740
      16A     -0.737733    17A     -0.737725

  @DF-RHF Final Energy:  -173.67900957269771

   => Energetics <=

    Nuclear Repulsion Energy =            147.5851842601209398
    One-Electron Energy =                -517.5184339894765344
    Two-Electron Energy =                 196.2542401566578576
    Total Energy =                       -173.6790095726977086
  Basis Set: (AUG-CC-PVTZ AUX)
    Blend: AUG-CC-PVTZ-RI
    Molecular point group: c1

    Geometry (in Angstrom), charge = 1, multiplicity = 1:

       Center              X                  Y                   Z               Mass
    ------------   -----------------  -----------------  -----------------  -----------------
         N           -0.000009720170    -0.000014095648    -0.337980983073    14.003074004430
         C            1.197334279830    -0.786062095648     0.109649016927    12.000000000000
         C           -1.279417720170    -0.643880095648     0.109648016927    12.000000000000
         C            0.082093279830     1.429959904352     0.109652016927    12.000000000000
         H           -0.000001620170     0.000002804352    -1.166531983073     1.007825032230
         H            1.210132279830    -0.792403095648     1.199423016927     1.007825032230
         H            1.114190279830    -1.802526095648    -0.273989983073     1.007825032230
         H            2.096699279830    -0.307460095648    -0.276834983073     1.007825032230
         H           -1.291363720170    -0.651664095648     1.199425016927     1.007825032230
         H           -2.118108720170    -0.063687095648    -0.274097983073     1.007825032230
         H           -1.314611720170    -1.662105095648    -0.276707983073     1.007825032230
         H            1.003889279830     1.866176904352    -0.274128983073     1.007825032230
         H           -0.782149720170     1.969500904352    -0.276694983073     1.007825032230
         H            0.081342279830     1.444149904352     1.199425016927     1.007825032230

  Basis Set: AUG-CC-PVTZ
    Blend: AUG-CC-PVTZ
  Basis Set: (AUG-CC-PVTZ AUX)
    Blend: AUG-CC-PVTZ-JKFIT
	 Reference Energy          =    -173.6790095726977086 [Eh]
	 Singles Energy            =      -0.0000000000000000 [Eh]
	 Same-Spin Energy          =      -0.1715388924263580 [Eh]
	 Opposite-Spin Energy      =      -0.6539669995530870 [Eh]
	 Correlation Energy        =      -0.8255058919794450 [Eh]
	 Total Energy              =    -174.5045154646771550 [Eh]

	 ================> DF-SCS-MP2 Energies <==================
	-----------------------------------------------------------
	 SCS Same-Spin Scale       =       0.3333333333333333 [-]
	 SCS Opposite-Spin Scale   =       1.2000000000000000 [-]
	 SCS Same-Spin Energy      =      -0.0571796308087860 [Eh]
	 SCS Opposite-Spin Energy  =      -0.7847603994637044 [Eh]
	 SCS Correlation Energy    =      -0.8419400302724903 [Eh]
	 SCS Total Energy          =    -174.5209496029702052 [Eh]
	-----------------------------------------------------------

  Dipole Moment: [D]
     X:     0.0000      Y:     0.0000      Z:    -0.5819     Total:     0.5819

*** Psi4 exiting successfully. Buy a developer a beer!
