                               Psi4 1.3.2 release

  ==> Input File <==

--------------------------------------------------------------------------
#psi4
#
memory 32 gb

molecule  {
1 1
  N       -0.0000100    -0.0000140    -0.3433270
  C        1.1973340    -0.7860620     0.1043030
  C       -1.2794180    -0.6438800     0.1043020
  C        0.0820930     1.4299600     0.1043060
  H       -0.0000010     0.0000050    -1.2718780
  H        1.2101320    -0.7924030     1.1940770
  H        1.1141900    -1.8025260    -0.2793360
  H        2.0966990    -0.3074600    -0.2821810
  H       -1.2913640    -0.6516640     1.1940790
  H       -2.1181090    -0.0636870    -0.2794440
  H       -1.3146120    -1.6621050    -0.2820540
  H        1.0038890     1.8661770    -0.2794750
  H       -0.7821500     1.9695010    -0.2820410
  H        0.0813420     1.4441500     1.1940790
units angstrom
no_reorient  #important for SAPT in psi4, default
symmetry c1  #important for SAPT in psi4, default
}

set PROPERTIES_ORIGIN ["COM"]
properties('MP2/aug-cc-pvtz', properties = ['dipole'])
--------------------------------------------------------------------------

    Molecular point group: c1
  Charge       = 1
  Multiplicity = 1
  Basis Set: AUG-CC-PVTZ
    Blend: AUG-CC-PVTZ
  Basis Set: (AUG-CC-PVTZ AUX)
    Blend: AUG-CC-PVTZ-JKFIT

    Orbital Energies [Eh]
    ---------------------

    Doubly Occupied:

       1A    -15.871450     2A    -11.464733     3A    -11.464730
       4A    -11.464712     5A     -1.526319     6A     -1.180977
       7A     -1.180973     8A     -1.106265     9A     -0.942714
      10A     -0.861656    11A     -0.861652    12A     -0.772320
      13A     -0.772319    14A     -0.750589    15A     -0.741787
      16A     -0.736502    17A     -0.736495

  @DF-RHF Final Energy:  -173.71290541310682

   => Energetics <=

    Nuclear Repulsion Energy =            146.8927677384609751
    One-Electron Energy =                -516.3389604402949544
    Two-Electron Energy =                 195.7332872887271549
    Total Energy =                       -173.7129054131068244
  Basis Set: (AUG-CC-PVTZ AUX)
    Blend: AUG-CC-PVTZ-RI
    Molecular point group: c1

    Geometry (in Angstrom), charge = 1, multiplicity = 1:

       Center              X                  Y                   Z               Mass
    ------------   -----------------  -----------------  -----------------  -----------------
         N           -0.000009735266    -0.000014130874    -0.336303548290    14.003074004430
         C            1.197334264734    -0.786062130874     0.111326451710    12.000000000000
         C           -1.279417735266    -0.643880130874     0.111325451710    12.000000000000
         C            0.082093264734     1.429959869126     0.111329451710    12.000000000000
         H           -0.000000735266     0.000004869126    -1.264854548290     1.007825032230
         H            1.210132264734    -0.792403130874     1.201100451710     1.007825032230
         H            1.114190264734    -1.802526130874    -0.272312548290     1.007825032230
         H            2.096699264734    -0.307460130874    -0.275157548290     1.007825032230
         H           -1.291363735266    -0.651664130874     1.201102451710     1.007825032230
         H           -2.118108735266    -0.063687130874    -0.272420548290     1.007825032230
         H           -1.314611735266    -1.662105130874    -0.275030548290     1.007825032230
         H            1.003889264734     1.866176869126    -0.272451548290     1.007825032230
         H           -0.782149735266     1.969500869126    -0.275017548290     1.007825032230
         H            0.081342264734     1.444149869126     1.201102451710     1.007825032230

  Basis Set: AUG-CC-PVTZ
    Blend: AUG-CC-PVTZ
  Basis Set: (AUG-CC-PVTZ AUX)
    Blend: AUG-CC-PVTZ-JKFIT
	 Reference Energy          =    -173.7129054131068244 [Eh]
	 Singles Energy            =      -0.0000000000000000 [Eh]
	 Same-Spin Energy          =      -0.1720673069614205 [Eh]
	 Opposite-Spin Energy      =      -0.6552200667830090 [Eh]
	 Correlation Energy        =      -0.8272873737444295 [Eh]
	 Total Energy              =    -174.5401927868512644 [Eh]

	 ================> DF-SCS-MP2 Energies <==================
	-----------------------------------------------------------
	 SCS Same-Spin Scale       =       0.3333333333333333 [-]
	 SCS Opposite-Spin Scale   =       1.2000000000000000 [-]
	 SCS Same-Spin Energy      =      -0.0573557689871402 [Eh]
	 SCS Opposite-Spin Energy  =      -0.7862640801396108 [Eh]
	 SCS Correlation Energy    =      -0.8436198491267509 [Eh]
	 SCS Total Energy          =    -174.5565252622335777 [Eh]
	-----------------------------------------------------------

  Dipole Moment: [D]
     X:     0.0000      Y:     0.0000      Z:    -0.6986     Total:     0.6986

*** Psi4 exiting successfully. Buy a developer a beer!
