                               Psi4 1.3.2 release

  ==> Input File <==

--------------------------------------------------------------------------
#psi4
#
memory 32 gb

molecule  {
1 1
  N       -0.0000100    -0.0000140    -0.3433270
  C        1.1973340    -0.7860620     0.1043030
  C       -1.2794180    -0.6438800     0.1043020
  C        0.0820930     1.4299600     0.1043060
  H        0.0000010     0.0000090    -1.4718780
  H        1.2101320    -0.7924030     1.1940770
  H        1.1141900    -1.8025260    -0.2793360
  H        2.0966990    -0.3074600    -0.2821810
  H       -1.2913640    -0.6516640     1.1940790
  H       -2.1181090    -0.0636870    -0.2794440
  H       -1.3146120    -1.6621050    -0.2820540
  H        1.0038890     1.8661770    -0.2794750
  H       -0.7821500     1.9695010    -0.2820410
  H        0.0813420     1.4441500     1.1940790
units angstrom
no_reorient  #important for SAPT in psi4, default
symmetry c1  #important for SAPT in psi4, default
}

set PROPERTIES_ORIGIN ["COM"]
properties('MP2/aug-cc-pvtz', properties = ['dipole'])
--------------------------------------------------------------------------

    Molecular point group: c1
  Charge       = 1
  Multiplicity = 1
  Basis Set: AUG-CC-PVTZ
    Blend: AUG-CC-PVTZ
  Basis Set: (AUG-CC-PVTZ AUX)
    Blend: AUG-CC-PVTZ-JKFIT

    Orbital Energies [Eh]
    ---------------------

    Doubly Occupied:

       1A    -15.886622     2A    -11.462935     3A    -11.462931
       4A    -11.462912     5A     -1.498441     6A     -1.178244
       7A     -1.178240     8A     -1.067761     9A     -0.922475
      10A     -0.858303    11A     -0.858298    12A     -0.769834
      13A     -0.769833    14A     -0.739758    15A     -0.734271
      16A     -0.734263    17A     -0.729856

  @DF-RHF Final Energy:  -173.70837103637064

   => Energetics <=

    Nuclear Repulsion Energy =            145.7798106685173138
    One-Electron Energy =                -514.3464087006854015
    Two-Electron Energy =                 194.8582269957974518
    Total Energy =                       -173.7083710363706359
  Basis Set: (AUG-CC-PVTZ AUX)
    Blend: AUG-CC-PVTZ-RI
    Molecular point group: c1

    Geometry (in Angstrom), charge = 1, multiplicity = 1:

       Center              X                  Y                   Z               Mass
    ------------   -----------------  -----------------  -----------------  -----------------
         N           -0.000009768815    -0.000014197971    -0.332948678724    14.003074004430
         C            1.197334231185    -0.786062197971     0.114681321276    12.000000000000
         C           -1.279417768815    -0.643880197971     0.114680321276    12.000000000000
         C            0.082093231185     1.429959802029     0.114684321276    12.000000000000
         H            0.000001231185     0.000008802029    -1.461499678724     1.007825032230
         H            1.210132231185    -0.792403197971     1.204455321276     1.007825032230
         H            1.114190231185    -1.802526197971    -0.268957678724     1.007825032230
         H            2.096699231185    -0.307460197971    -0.271802678724     1.007825032230
         H           -1.291363768815    -0.651664197971     1.204457321276     1.007825032230
         H           -2.118108768815    -0.063687197971    -0.269065678724     1.007825032230
         H           -1.314611768815    -1.662105197971    -0.271675678724     1.007825032230
         H            1.003889231185     1.866176802029    -0.269096678724     1.007825032230
         H           -0.782149768815     1.969500802029    -0.271662678724     1.007825032230
         H            0.081342231185     1.444149802029     1.204457321276     1.007825032230

  Basis Set: AUG-CC-PVTZ
    Blend: AUG-CC-PVTZ
  Basis Set: (AUG-CC-PVTZ AUX)
    Blend: AUG-CC-PVTZ-JKFIT
	 Reference Energy          =    -173.7083710363706359 [Eh]
	 Singles Energy            =      -0.0000000000000000 [Eh]
	 Same-Spin Energy          =      -0.1733930226375535 [Eh]
	 Opposite-Spin Energy      =      -0.6590145794240898 [Eh]
	 Correlation Energy        =      -0.8324076020616433 [Eh]
	 Total Energy              =    -174.5407786384322719 [Eh]

	 ================> DF-SCS-MP2 Energies <==================
	-----------------------------------------------------------
	 SCS Same-Spin Scale       =       0.3333333333333333 [-]
	 SCS Opposite-Spin Scale   =       1.2000000000000000 [-]
	 SCS Same-Spin Energy      =      -0.0577976742125178 [Eh]
	 SCS Opposite-Spin Energy  =      -0.7908174953089078 [Eh]
	 SCS Correlation Energy    =      -0.8486151695214256 [Eh]
	 SCS Total Energy          =    -174.5569862058920592 [Eh]
	-----------------------------------------------------------

  Dipole Moment: [D]
     X:     0.0000      Y:     0.0000      Z:    -0.9324     Total:     0.9324

*** Psi4 exiting successfully. Buy a developer a beer!
