                               Psi4 1.3.2 release

  ==> Input File <==

--------------------------------------------------------------------------
#psi4
#
memory 32 gb

molecule  {
1 1
  N       -0.0000100    -0.0000140    -0.3433270
  C        1.2298912    -0.8074312    -0.0478660
  C       -1.2794180    -0.6438800     0.1043020
  C        0.0820930     1.4299600     0.1043060
  H        0.0000000     0.0000070    -1.3718780
  H        1.2101320    -0.7924030     1.1940770
  H        1.1141900    -1.8025260    -0.2793360
  H        2.0966990    -0.3074600    -0.2821810
  H       -1.2913640    -0.6516640     1.1940790
  H       -2.1181090    -0.0636870    -0.2794440
  H       -1.3146120    -1.6621050    -0.2820540
  H        1.0038890     1.8661770    -0.2794750
  H       -0.7821500     1.9695010    -0.2820410
  H        0.0813420     1.4441500     1.1940790
units angstrom
no_reorient  #important for SAPT in psi4, default
symmetry c1  #important for SAPT in psi4, default
}

set PROPERTIES_ORIGIN ["COM"]
properties('MP2/aug-cc-pvtz', properties = ['dipole'])
--------------------------------------------------------------------------

    Molecular point group: c1
  Charge       = 1
  Multiplicity = 1
  Basis Set: AUG-CC-PVTZ
    Blend: AUG-CC-PVTZ
  Basis Set: (AUG-CC-PVTZ AUX)
    Blend: AUG-CC-PVTZ-JKFIT

    Orbital Energies [Eh]
    ---------------------

    Doubly Occupied:

       1A    -15.881052     2A    -11.467480     3A    -11.465293
       4A    -11.465279     5A     -1.511031     6A     -1.184810
       7A     -1.180193     8A     -1.081301     9A     -0.934137
      10A     -0.874049    11A     -0.863183    12A     -0.781753
      13A     -0.760100    14A     -0.758692    15A     -0.740603
      16A     -0.738501    17A     -0.695609

  @DF-RHF Final Energy:  -173.69344128882747

   => Energetics <=

    Nuclear Repulsion Energy =            146.0216072739380593
    One-Electron Energy =                -514.6639679295753922
    Two-Electron Energy =                 194.9489193668098608
    Total Energy =                       -173.6934412888274721
  Basis Set: (AUG-CC-PVTZ AUX)
    Blend: AUG-CC-PVTZ-RI
    Molecular point group: c1

    Geometry (in Angstrom), charge = 1, multiplicity = 1:

       Center              X                  Y                   Z               Mass
    ------------   -----------------  -----------------  -----------------  -----------------
         N           -0.006512378346     0.004253890633    -0.304233507810    14.003074004430
         C            1.223388821654    -0.803163309367    -0.008772507810    12.000000000000
         C           -1.285920378346    -0.639612109367     0.143395492190    12.000000000000
         C            0.075590621654     1.434227890633     0.143399492190    12.000000000000
         H           -0.006502378346     0.004274890633    -1.332784507810     1.007825032230
         H            1.203629621654    -0.788135109367     1.233170492190     1.007825032230
         H            1.107687621654    -1.798258109367    -0.240242507810     1.007825032230
         H            2.090196621654    -0.303192109367    -0.243087507810     1.007825032230
         H           -1.297866378346    -0.647396109367     1.233172492190     1.007825032230
         H           -2.124611378346    -0.059419109367    -0.240350507810     1.007825032230
         H           -1.321114378346    -1.657837109367    -0.242960507810     1.007825032230
         H            0.997386621654     1.870444890633    -0.240381507810     1.007825032230
         H           -0.788652378346     1.973768890633    -0.242947507810     1.007825032230
         H            0.074839621654     1.448417890633     1.233172492190     1.007825032230

  Basis Set: AUG-CC-PVTZ
    Blend: AUG-CC-PVTZ
  Basis Set: (AUG-CC-PVTZ AUX)
    Blend: AUG-CC-PVTZ-JKFIT
	 Reference Energy          =    -173.6934412888274721 [Eh]
	 Singles Energy            =      -0.0000000000000000 [Eh]
	 Same-Spin Energy          =      -0.1731777778615943 [Eh]
	 Opposite-Spin Energy      =      -0.6582155500060575 [Eh]
	 Correlation Energy        =      -0.8313933278676517 [Eh]
	 Total Energy              =    -174.5248346166951308 [Eh]

	 ================> DF-SCS-MP2 Energies <==================
	-----------------------------------------------------------
	 SCS Same-Spin Scale       =       0.3333333333333333 [-]
	 SCS Opposite-Spin Scale   =       1.2000000000000000 [-]
	 SCS Same-Spin Energy      =      -0.0577259259538648 [Eh]
	 SCS Opposite-Spin Energy  =      -0.7898586600072689 [Eh]
	 SCS Correlation Energy    =      -0.8475845859611336 [Eh]
	 SCS Total Energy          =    -174.5410258747886019 [Eh]
	-----------------------------------------------------------

  Dipole Moment: [D]
     X:    -0.0598      Y:     0.0392      Z:    -0.7682     Total:     0.7715

*** Psi4 exiting successfully. Buy a developer a beer!
