                               Psi4 1.3.2 release

  ==> Input File <==

--------------------------------------------------------------------------
#psi4
#
memory 32 gb

molecule  {
1 1
  N       -0.0000100    -0.0000140    -0.3433270
  C        1.2205214    -0.8012815     0.0032999
  C       -1.2794180    -0.6438800     0.1043020
  C        0.0820930     1.4299600     0.1043060
  H        0.0000000     0.0000070    -1.3718780
  H        1.2101320    -0.7924030     1.1940770
  H        1.1141900    -1.8025260    -0.2793360
  H        2.0966990    -0.3074600    -0.2821810
  H       -1.2913640    -0.6516640     1.1940790
  H       -2.1181090    -0.0636870    -0.2794440
  H       -1.3146120    -1.6621050    -0.2820540
  H        1.0038890     1.8661770    -0.2794750
  H       -0.7821500     1.9695010    -0.2820410
  H        0.0813420     1.4441500     1.1940790
units angstrom
no_reorient  #important for SAPT in psi4, default
symmetry c1  #important for SAPT in psi4, default
}

set PROPERTIES_ORIGIN ["COM"]
properties('MP2/aug-cc-pvtz', properties = ['dipole'])
--------------------------------------------------------------------------

    Molecular point group: c1
  Charge       = 1
  Multiplicity = 1
  Basis Set: AUG-CC-PVTZ
    Blend: AUG-CC-PVTZ
  Basis Set: (AUG-CC-PVTZ AUX)
    Blend: AUG-CC-PVTZ-JKFIT

    Orbital Energies [Eh]
    ---------------------

    Doubly Occupied:

       1A    -15.880334     2A    -11.465447     3A    -11.464712
       4A    -11.464699     5A     -1.510512     6A     -1.182807
       7A     -1.179876     8A     -1.081831     9A     -0.934097
      10A     -0.868650    11A     -0.861271    12A     -0.776615
      13A     -0.759437    14A     -0.756031    15A     -0.739531
      16A     -0.737973    17A     -0.714090

  @DF-RHF Final Energy:  -173.70657138851706

   => Energetics <=

    Nuclear Repulsion Energy =            146.1108458069622884
    One-Electron Energy =                -514.8790068050321906
    Two-Electron Energy =                 195.0615896095528399
    Total Energy =                       -173.7065713885170624
  Basis Set: (AUG-CC-PVTZ AUX)
    Blend: AUG-CC-PVTZ-RI
    Molecular point group: c1

    Geometry (in Angstrom), charge = 1, multiplicity = 1:

       Center              X                  Y                   Z               Mass
    ------------   -----------------  -----------------  -----------------  -----------------
         N           -0.004640954883     0.003025615443    -0.314452836476    14.003074004430
         C            1.215890445117    -0.798241884557     0.032174063524    12.000000000000
         C           -1.284048954883    -0.640840384557     0.133176163524    12.000000000000
         C            0.077462045117     1.432999615443     0.133180163524    12.000000000000
         H           -0.004630954883     0.003046615443    -1.343003836476     1.007825032230
         H            1.205501045117    -0.789363384557     1.222951163524     1.007825032230
         H            1.109559045117    -1.799486384557    -0.250461836476     1.007825032230
         H            2.092068045117    -0.304420384557    -0.253306836476     1.007825032230
         H           -1.295994954883    -0.648624384557     1.222953163524     1.007825032230
         H           -2.122739954883    -0.060647384557    -0.250569836476     1.007825032230
         H           -1.319242954883    -1.659065384557    -0.253179836476     1.007825032230
         H            0.999258045117     1.869216615443    -0.250600836476     1.007825032230
         H           -0.786780954883     1.972540615443    -0.253166836476     1.007825032230
         H            0.076711045117     1.447189615443     1.222953163524     1.007825032230

  Basis Set: AUG-CC-PVTZ
    Blend: AUG-CC-PVTZ
  Basis Set: (AUG-CC-PVTZ AUX)
    Blend: AUG-CC-PVTZ-JKFIT
	 Reference Energy          =    -173.7065713885170624 [Eh]
	 Singles Energy            =      -0.0000000000000000 [Eh]
	 Same-Spin Energy          =      -0.1729118419123372 [Eh]
	 Opposite-Spin Energy      =      -0.6574823027708007 [Eh]
	 Correlation Energy        =      -0.8303941446831379 [Eh]
	 Total Energy              =    -174.5369655332002026 [Eh]

	 ================> DF-SCS-MP2 Energies <==================
	-----------------------------------------------------------
	 SCS Same-Spin Scale       =       0.3333333333333333 [-]
	 SCS Opposite-Spin Scale   =       1.2000000000000000 [-]
	 SCS Same-Spin Energy      =      -0.0576372806374457 [Eh]
	 SCS Opposite-Spin Energy  =      -0.7889787633249608 [Eh]
	 SCS Correlation Energy    =      -0.8466160439624065 [Eh]
	 SCS Total Energy          =    -174.5531874324794614 [Eh]
	-----------------------------------------------------------

  Dipole Moment: [D]
     X:    -0.0362      Y:     0.0238      Z:    -0.7812     Total:     0.7824

*** Psi4 exiting successfully. Buy a developer a beer!
