                               Psi4 1.4a3.dev225

  ==> Input File <==

--------------------------------------------------------------------------
#psi4
#
memory 32 gb

molecule  {
1 1
  N        0.0000000     0.0000000    -0.3433230
  C        1.1469300    -0.8581090     0.1043110
  C       -1.3166090    -0.5642150     0.1043110
  C        0.1696800     1.4223250     0.1043110
  H        0.0000000     0.0000000    -1.3518720
  H        1.1582120    -0.8665450     1.1940820
  H        1.0023560    -1.8671060    -0.2807800
  H        2.0740990    -0.4346410    -0.2807890
  H       -1.3295560    -0.5697670     1.1940820
  H       -2.1181390     0.0654870    -0.2807820
  H       -1.4134600    -1.5789020    -0.2807870
  H        1.1157820     1.8016190    -0.2807830
  H       -0.6606400     2.0135430    -0.2807860
  H        0.1713470     1.4363130     1.1940820
units angstrom
no_reorient  #important for SAPT in psi4, default
symmetry c1  #important for SAPT in psi4, default
}

set PROPERTIES_ORIGIN ["COM"]
properties('MP2/aug-cc-pvtz', properties = ['dipole'])
--------------------------------------------------------------------------

    Molecular point group: c1
  Charge       = 1
  Multiplicity = 1
  Basis Set: AUG-CC-PVTZ
    Blend: AUG-CC-PVTZ
  Basis Set: (AUG-CC-PVTZ AUX)
    Blend: AUG-CC-PVTZ-JKFIT

    Orbital Energies [Eh]
    ---------------------

    Doubly Occupied:

       1A    -15.878269     2A    -11.463998     3A    -11.463998
       4A    -11.463978     5A     -1.513039     6A     -1.179854
       7A     -1.179854     8A     -1.088563     9A     -0.935306
      10A     -0.860229    11A     -0.860229    12A     -0.771342
      13A     -0.771342    14A     -0.742911    15A     -0.741001
      16A     -0.735568    17A     -0.735567

  @DF-RHF Final Energy:  -173.71875692915435

   => Energetics <=

    Nuclear Repulsion Energy =            146.4053239335738397
    One-Electron Energy =                -515.4780717017035840
    Two-Electron Energy =                 195.3539908389753634
    Total Energy =                       -173.7187569291543525
  Basis Set: (AUG-CC-PVTZ AUX)
    Blend: AUG-CC-PVTZ-RI
    Molecular point group: c1

    Geometry (in Angstrom), charge = 1, multiplicity = 1:

       Center              X                  Y                   Z               Mass
    ------------   -----------------  -----------------  -----------------  -----------------
         N           -0.000000216504    -0.000000216504    -0.334960259661    14.003074004430
         C            1.146929783496    -0.858109216504     0.112673740339    12.000000000000
         C           -1.316609216504    -0.564215216504     0.112673740339    12.000000000000
         C            0.169679783496     1.422324783496     0.112673740339    12.000000000000
         H           -0.000000216504    -0.000000216504    -1.343509259661     1.007825032230
         H            1.158211783496    -0.866545216504     1.202444740339     1.007825032230
         H            1.002355783496    -1.867106216504    -0.272417259661     1.007825032230
         H            2.074098783496    -0.434641216504    -0.272426259661     1.007825032230
         H           -1.329556216504    -0.569767216504     1.202444740339     1.007825032230
         H           -2.118139216504     0.065486783496    -0.272419259661     1.007825032230
         H           -1.413460216504    -1.578902216504    -0.272424259661     1.007825032230
         H            1.115781783496     1.801618783496    -0.272420259661     1.007825032230
         H           -0.660640216504     2.013542783496    -0.272423259661     1.007825032230
         H            0.171346783496     1.436312783496     1.202444740339     1.007825032230

  Basis Set: AUG-CC-PVTZ
    Blend: AUG-CC-PVTZ
  Basis Set: (AUG-CC-PVTZ AUX)
    Blend: AUG-CC-PVTZ-JKFIT
	 Reference Energy          =    -173.7187569291543525 [Eh]
	 Singles Energy            =      -0.0000000000000000 [Eh]
	 Same-Spin Energy          =      -0.1725698941797058 [Eh]
	 Opposite-Spin Energy      =      -0.6565753758392846 [Eh]
	 Correlation Energy        =      -0.8291452700189903 [Eh]
	 Total Energy              =    -174.5479021991733362 [Eh]

	 ================> DF-SCS-MP2 Energies <==================
	-----------------------------------------------------------
	 SCS Same-Spin Scale       =       0.3333333333333333 [-]
	 SCS Opposite-Spin Scale   =       1.2000000000000000 [-]
	 SCS Same-Spin Energy      =      -0.0575232980599019 [Eh]
	 SCS Opposite-Spin Energy  =      -0.7878904510071415 [Eh]
	 SCS Correlation Energy    =      -0.8454137490670434 [Eh]
	 SCS Total Energy          =    -174.5641706782213873 [Eh]
	-----------------------------------------------------------

  Dipole Moment: [D]
     X:     0.0000      Y:    -0.0000      Z:    -0.7926     Total:     0.7926

*** Psi4 exiting successfully. Buy a developer a beer!
