                               Psi4 1.4a3.dev225

  ==> Input File <==

--------------------------------------------------------------------------
#psi4
#
memory 32 gb

molecule  {
1 1
  N        0.0000000     0.0000000    -0.3433230
  C        1.1851425    -0.8866988     0.1192249
  C       -1.3166090    -0.5642150     0.1043110
  C        0.1696800     1.4223250     0.1043110
  H        0.0000000     0.0000000    -1.3718720
  H        1.1582120    -0.8665450     1.1940820
  H        1.0023560    -1.8671060    -0.2807800
  H        2.0740990    -0.4346410    -0.2807890
  H       -1.3295560    -0.5697670     1.1940820
  H       -2.1181390     0.0654870    -0.2807820
  H       -1.4134600    -1.5789020    -0.2807870
  H        1.1157820     1.8016190    -0.2807830
  H       -0.6606400     2.0135430    -0.2807860
  H        0.1713470     1.4363130     1.1940820
units angstrom
no_reorient  #important for SAPT in psi4, default
symmetry c1  #important for SAPT in psi4, default
}

set PROPERTIES_ORIGIN ["COM"]
properties('MP2/aug-cc-pvtz', properties = ['dipole'])
--------------------------------------------------------------------------

    Molecular point group: c1
  Charge       = 1
  Multiplicity = 1
  Basis Set: AUG-CC-PVTZ
    Blend: AUG-CC-PVTZ
  Basis Set: (AUG-CC-PVTZ AUX)
    Blend: AUG-CC-PVTZ-JKFIT

    Orbital Energies [Eh]
    ---------------------

    Doubly Occupied:

       1A    -15.876326     2A    -11.466083     3A    -11.462160
       4A    -11.462147     5A     -1.499604     6A     -1.178399
       7A     -1.176796     8A     -1.084088     9A     -0.927955
      10A     -0.857139    11A     -0.853651    12A     -0.777455
      13A     -0.771985    14A     -0.747696    15A     -0.743070
      16A     -0.735349    17A     -0.726536

  @DF-RHF Final Energy:  -173.71640880120736

   => Energetics <=

    Nuclear Repulsion Energy =            145.5727651732867969
    One-Electron Energy =                -513.8854679698422387
    Two-Electron Energy =                 194.5962939953480486
    Total Energy =                       -173.7164088012073648
  Basis Set: (AUG-CC-PVTZ AUX)
    Blend: AUG-CC-PVTZ-RI
    Molecular point group: c1

    Geometry (in Angstrom), charge = 1, multiplicity = 1:

       Center              X                  Y                   Z               Mass
    ------------   -----------------  -----------------  -----------------  -----------------
         N           -0.007632371839     0.005710003833    -0.337603515301    14.003074004430
         C            1.177510128161    -0.880988796167     0.124944384699    12.000000000000
         C           -1.324241371839    -0.558504996167     0.110030484699    12.000000000000
         C            0.162047628161     1.428035003833     0.110030484699    12.000000000000
         H           -0.007632371839     0.005710003833    -1.366152515301     1.007825032230
         H            1.150579628161    -0.860834996167     1.199801484699     1.007825032230
         H            0.994723628161    -1.861395996167    -0.275060515301     1.007825032230
         H            2.066466628161    -0.428930996167    -0.275069515301     1.007825032230
         H           -1.337188371839    -0.564056996167     1.199801484699     1.007825032230
         H           -2.125771371839     0.071197003833    -0.275062515301     1.007825032230
         H           -1.421092371839    -1.573191996167    -0.275067515301     1.007825032230
         H            1.108149628161     1.807329003833    -0.275063515301     1.007825032230
         H           -0.668272371839     2.019253003833    -0.275066515301     1.007825032230
         H            0.163714628161     1.442023003833     1.199801484699     1.007825032230

  Basis Set: AUG-CC-PVTZ
    Blend: AUG-CC-PVTZ
  Basis Set: (AUG-CC-PVTZ AUX)
    Blend: AUG-CC-PVTZ-JKFIT
	 Reference Energy          =    -173.7164088012073648 [Eh]
	 Singles Energy            =      -0.0000000000000000 [Eh]
	 Same-Spin Energy          =      -0.1724147770119358 [Eh]
	 Opposite-Spin Energy      =      -0.6570719739670690 [Eh]
	 Correlation Energy        =      -0.8294867509790047 [Eh]
	 Total Energy              =    -174.5458955521863800 [Eh]

	 ================> DF-SCS-MP2 Energies <==================
	-----------------------------------------------------------
	 SCS Same-Spin Scale       =       0.3333333333333333 [-]
	 SCS Opposite-Spin Scale   =       1.2000000000000000 [-]
	 SCS Same-Spin Energy      =      -0.0574715923373119 [Eh]
	 SCS Opposite-Spin Energy  =      -0.7884863687604827 [Eh]
	 SCS Correlation Energy    =      -0.8459579610977946 [Eh]
	 SCS Total Energy          =    -174.5623667623051460 [Eh]
	-----------------------------------------------------------

  Dipole Moment: [D]
     X:     0.0516      Y:    -0.0386      Z:    -0.8073     Total:     0.8099

*** Psi4 exiting successfully. Buy a developer a beer!
