                               Psi4 1.3.2 release

  ==> Input File <==

--------------------------------------------------------------------------
#psi4
#
memory 32 gb

molecule  {
1 1
  N       -0.0000100    -0.0000140    -0.3433270
  C        1.1650757    -0.8205426     0.1269758
  C       -1.2794180    -0.6438800     0.1043020
  C        0.0820930     1.4299600     0.1043060
  H        0.0000000     0.0000070    -1.3718780
  H        1.2101320    -0.7924030     1.1940770
  H        1.1141900    -1.8025260    -0.2793360
  H        2.0966990    -0.3074600    -0.2821810
  H       -1.2913640    -0.6516640     1.1940790
  H       -2.1181090    -0.0636870    -0.2794440
  H       -1.3146120    -1.6621050    -0.2820540
  H        1.0038890     1.8661770    -0.2794750
  H       -0.7821500     1.9695010    -0.2820410
  H        0.0813420     1.4441500     1.1940790
units angstrom
no_reorient  #important for SAPT in psi4, default
symmetry c1  #important for SAPT in psi4, default
}

set PROPERTIES_ORIGIN ["COM"]
properties('MP2/aug-cc-pvtz', properties = ['dipole'])
--------------------------------------------------------------------------

    Molecular point group: c1
  Charge       = 1
  Multiplicity = 1
  Basis Set: AUG-CC-PVTZ
    Blend: AUG-CC-PVTZ
  Basis Set: (AUG-CC-PVTZ AUX)
    Blend: AUG-CC-PVTZ-JKFIT

    Orbital Energies [Eh]
    ---------------------

    Doubly Occupied:

       1A    -15.880047     2A    -11.464365     3A    -11.464191
       4A    -11.463104     5A     -1.510488     6A     -1.181623
       7A     -1.177361     8A     -1.085769     9A     -0.933669
      10A     -0.861171    11A     -0.858218    12A     -0.777997
      13A     -0.770137    14A     -0.745936    15A     -0.740735
      16A     -0.737783    17A     -0.721701

  @DF-RHF Final Energy:  -173.71512657050505

   => Energetics <=

    Nuclear Repulsion Energy =            146.3508925022805727
    One-Electron Energy =                -515.3834484766408650
    Two-Electron Energy =                 195.3174294038552716
    Total Energy =                       -173.7151265705050491
  Basis Set: (AUG-CC-PVTZ AUX)
    Blend: AUG-CC-PVTZ-RI
    Molecular point group: c1

    Geometry (in Angstrom), charge = 1, multiplicity = 1:

       Center              X                  Y                   Z               Mass
    ------------   -----------------  -----------------  -----------------  -----------------
         N            0.006433175181     0.006872621191    -0.339154535659    14.003074004430
         C            1.171518875181    -0.813655978809     0.131148264341    12.000000000000
         C           -1.272974824819    -0.636993378809     0.108474464341    12.000000000000
         C            0.088536175181     1.436846621191     0.108478464341    12.000000000000
         H            0.006443175181     0.006893621191    -1.367705535659     1.007825032230
         H            1.216575175181    -0.785516378809     1.198249464341     1.007825032230
         H            1.120633175181    -1.795639378809    -0.275163535659     1.007825032230
         H            2.103142175181    -0.300573378809    -0.278008535659     1.007825032230
         H           -1.284920824819    -0.644777378809     1.198251464341     1.007825032230
         H           -2.111665824819    -0.056800378809    -0.275271535659     1.007825032230
         H           -1.308168824819    -1.655218378809    -0.277881535659     1.007825032230
         H            1.010332175181     1.873063621191    -0.275302535659     1.007825032230
         H           -0.775706824819     1.976387621191    -0.277868535659     1.007825032230
         H            0.087785175181     1.451036621191     1.198251464341     1.007825032230

  Basis Set: AUG-CC-PVTZ
    Blend: AUG-CC-PVTZ
  Basis Set: (AUG-CC-PVTZ AUX)
    Blend: AUG-CC-PVTZ-JKFIT
	 Reference Energy          =    -173.7151265705050491 [Eh]
	 Singles Energy            =      -0.0000000000000000 [Eh]
	 Same-Spin Energy          =      -0.1727694753960781 [Eh]
	 Opposite-Spin Energy      =      -0.6571502783199368 [Eh]
	 Correlation Energy        =      -0.8299197537160149 [Eh]
	 Total Energy              =    -174.5450463242210617 [Eh]

	 ================> DF-SCS-MP2 Energies <==================
	-----------------------------------------------------------
	 SCS Same-Spin Scale       =       0.3333333333333333 [-]
	 SCS Opposite-Spin Scale   =       1.2000000000000000 [-]
	 SCS Same-Spin Energy      =      -0.0575898251320260 [Eh]
	 SCS Opposite-Spin Energy  =      -0.7885803339839241 [Eh]
	 SCS Correlation Energy    =      -0.8461701591159502 [Eh]
	 SCS Total Energy          =    -174.5612967296210059 [Eh]
	-----------------------------------------------------------

  Dipole Moment: [D]
     X:     0.0195      Y:     0.0246      Z:    -0.8257     Total:     0.8263

*** Psi4 exiting successfully. Buy a developer a beer!
