                               Psi4 1.3.2 release

  ==> Input File <==

--------------------------------------------------------------------------
#psi4
#
memory 32 gb

molecule  {
1 1
  N       -0.0000100    -0.0000140    -0.3433270
  C        1.1516584    -0.7560807     0.2515677
  C       -1.2794180    -0.6438800     0.1043020
  C        0.0820930     1.4299600     0.1043060
  H        0.0000000     0.0000070    -1.3718780
  H        1.2101320    -0.7924030     1.1940770
  H        1.1141900    -1.8025260    -0.2793360
  H        2.0966990    -0.3074600    -0.2821810
  H       -1.2913640    -0.6516640     1.1940790
  H       -2.1181090    -0.0636870    -0.2794440
  H       -1.3146120    -1.6621050    -0.2820540
  H        1.0038890     1.8661770    -0.2794750
  H       -0.7821500     1.9695010    -0.2820410
  H        0.0813420     1.4441500     1.1940790
units angstrom
no_reorient  #important for SAPT in psi4, default
symmetry c1  #important for SAPT in psi4, default
}

set PROPERTIES_ORIGIN ["COM"]
properties('MP2/aug-cc-pvtz', properties = ['dipole'])
--------------------------------------------------------------------------

    Molecular point group: c1
  Charge       = 1
  Multiplicity = 1
  Basis Set: AUG-CC-PVTZ
    Blend: AUG-CC-PVTZ
  Basis Set: (AUG-CC-PVTZ AUX)
    Blend: AUG-CC-PVTZ-JKFIT

    Orbital Energies [Eh]
    ---------------------

    Doubly Occupied:

       1A    -15.881853     2A    -11.467180     3A    -11.463302
       4A    -11.463287     5A     -1.511990     6A     -1.180271
       7A     -1.179182     8A     -1.093919     9A     -0.931342
      10A     -0.877509    11A     -0.852636    12A     -0.799213
      13A     -0.770044    14A     -0.750404    15A     -0.737881
      16A     -0.724753    17A     -0.699170

  @DF-RHF Final Energy:  -173.68407624202223

   => Energetics <=

    Nuclear Repulsion Energy =            146.6540961253319040
    One-Electron Energy =                -515.9084718736585273
    Two-Electron Energy =                 195.5702995063044227
    Total Energy =                       -173.6840762420222291
  Basis Set: (AUG-CC-PVTZ AUX)
    Blend: AUG-CC-PVTZ-RI
    Molecular point group: c1

    Geometry (in Angstrom), charge = 1, multiplicity = 1:

       Center              X                  Y                   Z               Mass
    ------------   -----------------  -----------------  -----------------  -----------------
         N            0.009113002927    -0.006002308060    -0.364039186867    14.003074004430
         C            1.160781402927    -0.762069008060     0.230855513133    12.000000000000
         C           -1.270294997073    -0.649868308060     0.083589813133    12.000000000000
         C            0.091216002927     1.423971691940     0.083593813133    12.000000000000
         H            0.009123002927    -0.005981308060    -1.392590186867     1.007825032230
         H            1.219255002927    -0.798391308060     1.173364813133     1.007825032230
         H            1.123313002927    -1.808514308060    -0.300048186867     1.007825032230
         H            2.105822002927    -0.313448308060    -0.302893186867     1.007825032230
         H           -1.282240997073    -0.657652308060     1.173366813133     1.007825032230
         H           -2.108985997073    -0.069675308060    -0.300156186867     1.007825032230
         H           -1.305488997073    -1.668093308060    -0.302766186867     1.007825032230
         H            1.013012002927     1.860188691940    -0.300187186867     1.007825032230
         H           -0.773026997073     1.963512691940    -0.302753186867     1.007825032230
         H            0.090465002927     1.438161691940     1.173366813133     1.007825032230

  Basis Set: AUG-CC-PVTZ
    Blend: AUG-CC-PVTZ
  Basis Set: (AUG-CC-PVTZ AUX)
    Blend: AUG-CC-PVTZ-JKFIT
	 Reference Energy          =    -173.6840762420222291 [Eh]
	 Singles Energy            =      -0.0000000000000000 [Eh]
	 Same-Spin Energy          =      -0.1732726304533063 [Eh]
	 Opposite-Spin Energy      =      -0.6587085837522724 [Eh]
	 Correlation Energy        =      -0.8319812142055787 [Eh]
	 Total Energy              =    -174.5160574562277986 [Eh]

	 ================> DF-SCS-MP2 Energies <==================
	-----------------------------------------------------------
	 SCS Same-Spin Scale       =       0.3333333333333333 [-]
	 SCS Opposite-Spin Scale   =       1.2000000000000000 [-]
	 SCS Same-Spin Energy      =      -0.0577575434844354 [Eh]
	 SCS Opposite-Spin Energy  =      -0.7904503005027268 [Eh]
	 SCS Correlation Energy    =      -0.8482078439871622 [Eh]
	 SCS Total Energy          =    -174.5322840860093834 [Eh]
	-----------------------------------------------------------

  Dipole Moment: [D]
     X:     0.0158      Y:    -0.0104      Z:    -0.9139     Total:     0.9141

*** Psi4 exiting successfully. Buy a developer a beer!
