                               Psi4 1.3.2 release

  ==> Input File <==

--------------------------------------------------------------------------
#psi4
#
memory 32 gb

molecule  {
1 1
  N       -0.0000100    -0.0000140    -0.3433270
  C        1.2852078    -0.6770479     0.0331262
  C       -1.2794180    -0.6438800     0.1043020
  C        0.0820930     1.4299600     0.1043060
  H        0.0000000     0.0000070    -1.3718780
  H        1.2101320    -0.7924030     1.1940770
  H        1.1141900    -1.8025260    -0.2793360
  H        2.0966990    -0.3074600    -0.2821810
  H       -1.2913640    -0.6516640     1.1940790
  H       -2.1181090    -0.0636870    -0.2794440
  H       -1.3146120    -1.6621050    -0.2820540
  H        1.0038890     1.8661770    -0.2794750
  H       -0.7821500     1.9695010    -0.2820410
  H        0.0813420     1.4441500     1.1940790
units angstrom
no_reorient  #important for SAPT in psi4, default
symmetry c1  #important for SAPT in psi4, default
}

set PROPERTIES_ORIGIN ["COM"]
properties('MP2/aug-cc-pvtz', properties = ['dipole'])
--------------------------------------------------------------------------

    Molecular point group: c1
  Charge       = 1
  Multiplicity = 1
  Basis Set: AUG-CC-PVTZ
    Blend: AUG-CC-PVTZ
  Basis Set: (AUG-CC-PVTZ AUX)
    Blend: AUG-CC-PVTZ-JKFIT

    Orbital Energies [Eh]
    ---------------------

    Doubly Occupied:

       1A    -15.881308     2A    -11.467343     3A    -11.467249
       4A    -11.462867     5A     -1.511306     6A     -1.189106
       7A     -1.175380     8A     -1.084769     9A     -0.941146
      10A     -0.873272    11A     -0.856751    12A     -0.780628
      13A     -0.765667    14A     -0.759150    15A     -0.739303
      16A     -0.729963    17A     -0.701143

  @DF-RHF Final Energy:  -173.68419714247196

   => Energetics <=

    Nuclear Repulsion Energy =            146.2274582447626585
    One-Electron Energy =                -515.0506075873163354
    Two-Electron Energy =                 195.1389522000817180
    Total Energy =                       -173.6841971424719588
  Basis Set: (AUG-CC-PVTZ AUX)
    Blend: AUG-CC-PVTZ-RI
    Molecular point group: c1

    Geometry (in Angstrom), charge = 1, multiplicity = 1:

       Center              X                  Y                   Z               Mass
    ------------   -----------------  -----------------  -----------------  -----------------
         N           -0.017560723359    -0.021787472762    -0.320410022075    14.003074004430
         C            1.267657076641    -0.698821372762     0.056043177925    12.000000000000
         C           -1.296968723359    -0.665653472762     0.127218977925    12.000000000000
         C            0.064542276641     1.408186527238     0.127222977925    12.000000000000
         H           -0.017550723359    -0.021766472762    -1.348961022075     1.007825032230
         H            1.192581276641    -0.814176472762     1.216993977925     1.007825032230
         H            1.096639276641    -1.824299472762    -0.256419022075     1.007825032230
         H            2.079148276641    -0.329233472762    -0.259264022075     1.007825032230
         H           -1.308914723359    -0.673437472762     1.216995977925     1.007825032230
         H           -2.135659723359    -0.085460472762    -0.256527022075     1.007825032230
         H           -1.332162723359    -1.683878472762    -0.259137022075     1.007825032230
         H            0.986338276641     1.844403527238    -0.256558022075     1.007825032230
         H           -0.799700723359     1.947727527238    -0.259124022075     1.007825032230
         H            0.063791276641     1.422376527238     1.216995977925     1.007825032230

  Basis Set: AUG-CC-PVTZ
    Blend: AUG-CC-PVTZ
  Basis Set: (AUG-CC-PVTZ AUX)
    Blend: AUG-CC-PVTZ-JKFIT
	 Reference Energy          =    -173.6841971424719588 [Eh]
	 Singles Energy            =      -0.0000000000000000 [Eh]
	 Same-Spin Energy          =      -0.1732525610251471 [Eh]
	 Opposite-Spin Energy      =      -0.6585125371038991 [Eh]
	 Correlation Energy        =      -0.8317650981290462 [Eh]
	 Total Energy              =    -174.5159622406009987 [Eh]

	 ================> DF-SCS-MP2 Energies <==================
	-----------------------------------------------------------
	 SCS Same-Spin Scale       =       0.3333333333333333 [-]
	 SCS Opposite-Spin Scale   =       1.2000000000000000 [-]
	 SCS Same-Spin Energy      =      -0.0577508536750490 [Eh]
	 SCS Opposite-Spin Energy  =      -0.7902150445246789 [Eh]
	 SCS Correlation Energy    =      -0.8479658981997280 [Eh]
	 SCS Total Energy          =    -174.5321630406716906 [Eh]
	-----------------------------------------------------------

  Dipole Moment: [D]
     X:    -0.1262      Y:    -0.0636      Z:    -0.7792     Total:     0.7919

*** Psi4 exiting successfully. Buy a developer a beer!
