                               Psi4 1.3.2 release

  ==> Input File <==

--------------------------------------------------------------------------
#psi4
#
memory 32 gb

molecule  {
1 1
  N       -0.0000100    -0.0000140    -0.3433270
  C        1.0963418    -0.8864640     0.1705755
  C       -1.2794180    -0.6438800     0.1043020
  C        0.0820930     1.4299600     0.1043060
  H        0.0000000     0.0000070    -1.3718780
  H        1.2101320    -0.7924030     1.1940770
  H        1.1141900    -1.8025260    -0.2793360
  H        2.0966990    -0.3074600    -0.2821810
  H       -1.2913640    -0.6516640     1.1940790
  H       -2.1181090    -0.0636870    -0.2794440
  H       -1.3146120    -1.6621050    -0.2820540
  H        1.0038890     1.8661770    -0.2794750
  H       -0.7821500     1.9695010    -0.2820410
  H        0.0813420     1.4441500     1.1940790
units angstrom
no_reorient  #important for SAPT in psi4, default
symmetry c1  #important for SAPT in psi4, default
}

set PROPERTIES_ORIGIN ["COM"]
properties('MP2/aug-cc-pvtz', properties = ['dipole'])
--------------------------------------------------------------------------

    Molecular point group: c1
  Charge       = 1
  Multiplicity = 1
  Basis Set: AUG-CC-PVTZ
    Blend: AUG-CC-PVTZ
  Basis Set: (AUG-CC-PVTZ AUX)
    Blend: AUG-CC-PVTZ-JKFIT

    Orbital Energies [Eh]
    ---------------------

    Doubly Occupied:

       1A    -15.881376     2A    -11.467393     3A    -11.465759
       4A    -11.462424     5A     -1.511735     6A     -1.186294
       7A     -1.173932     8A     -1.088816     9A     -0.937419
      10A     -0.864235    11A     -0.858165    12A     -0.795519
      13A     -0.769726    14A     -0.751818    15A     -0.744207
      16A     -0.738254    17A     -0.686750

  @DF-RHF Final Energy:  -173.69286903324630

   => Energetics <=

    Nuclear Repulsion Energy =            146.4797701255846789
    One-Electron Energy =                -515.5776342147523792
    Two-Electron Energy =                 195.4049950559214324
    Total Energy =                       -173.6928690332462963
  Basis Set: (AUG-CC-PVTZ AUX)
    Blend: AUG-CC-PVTZ-RI
    Molecular point group: c1

    Geometry (in Angstrom), charge = 1, multiplicity = 1:

       Center              X                  Y                   Z               Mass
    ------------   -----------------  -----------------  -----------------  -----------------
         N            0.020161347940     0.020039055334    -0.347862672603    14.003074004430
         C            1.116513147940    -0.866410944666     0.166039827397    12.000000000000
         C           -1.259246652060    -0.623826944666     0.099766327397    12.000000000000
         C            0.102264347940     1.450013055334     0.099770327397    12.000000000000
         H            0.020171347940     0.020060055334    -1.376413672603     1.007825032230
         H            1.230303347940    -0.772349944666     1.189541327397     1.007825032230
         H            1.134361347940    -1.782472944666    -0.283871672603     1.007825032230
         H            2.116870347940    -0.287406944666    -0.286716672603     1.007825032230
         H           -1.271192652060    -0.631610944666     1.189543327397     1.007825032230
         H           -2.097937652060    -0.043633944666    -0.283979672603     1.007825032230
         H           -1.294440652060    -1.642051944666    -0.286589672603     1.007825032230
         H            1.024060347940     1.886230055334    -0.284010672603     1.007825032230
         H           -0.761978652060     1.989554055334    -0.286576672603     1.007825032230
         H            0.101513347940     1.464203055334     1.189543327397     1.007825032230

  Basis Set: AUG-CC-PVTZ
    Blend: AUG-CC-PVTZ
  Basis Set: (AUG-CC-PVTZ AUX)
    Blend: AUG-CC-PVTZ-JKFIT
	 Reference Energy          =    -173.6928690332462963 [Eh]
	 Singles Energy            =      -0.0000000000000000 [Eh]
	 Same-Spin Energy          =      -0.1732503987847057 [Eh]
	 Opposite-Spin Energy      =      -0.6585121332463374 [Eh]
	 Correlation Energy        =      -0.8317625320310431 [Eh]
	 Total Energy              =    -174.5246315652773319 [Eh]

	 ================> DF-SCS-MP2 Energies <==================
	-----------------------------------------------------------
	 SCS Same-Spin Scale       =       0.3333333333333333 [-]
	 SCS Opposite-Spin Scale   =       1.2000000000000000 [-]
	 SCS Same-Spin Energy      =      -0.0577501329282352 [Eh]
	 SCS Opposite-Spin Energy  =      -0.7902145598956049 [Eh]
	 SCS Correlation Energy    =      -0.8479646928238401 [Eh]
	 SCS Total Energy          =    -174.5408337260701330 [Eh]
	-----------------------------------------------------------

  Dipole Moment: [D]
     X:     0.0326      Y:     0.0780      Z:    -0.8422     Total:     0.8464

*** Psi4 exiting successfully. Buy a developer a beer!
