                               Psi4 1.3.2 release

  ==> Input File <==

--------------------------------------------------------------------------
#psi4
#
memory 32 gb

molecule  {
1 1
  N       -0.0000100    -0.0000140    -0.3433270
  C        1.1313980    -0.8540236     0.1490756
  C       -1.2794180    -0.6438800     0.1043020
  C        0.0820930     1.4299600     0.1043060
  H        0.0000000     0.0000070    -1.3718780
  H        1.2101320    -0.7924030     1.1940770
  H        1.1141900    -1.8025260    -0.2793360
  H        2.0966990    -0.3074600    -0.2821810
  H       -1.2913640    -0.6516640     1.1940790
  H       -2.1181090    -0.0636870    -0.2794440
  H       -1.3146120    -1.6621050    -0.2820540
  H        1.0038890     1.8661770    -0.2794750
  H       -0.7821500     1.9695010    -0.2820410
  H        0.0813420     1.4441500     1.1940790
units angstrom
no_reorient  #important for SAPT in psi4, default
symmetry c1  #important for SAPT in psi4, default
}

set PROPERTIES_ORIGIN ["COM"]
properties('MP2/aug-cc-pvtz', properties = ['dipole'])
--------------------------------------------------------------------------

    Molecular point group: c1
  Charge       = 1
  Multiplicity = 1
  Basis Set: AUG-CC-PVTZ
    Blend: AUG-CC-PVTZ
  Basis Set: (AUG-CC-PVTZ AUX)
    Blend: AUG-CC-PVTZ-JKFIT

    Orbital Energies [Eh]
    ---------------------

    Doubly Occupied:

       1A    -15.880573     2A    -11.465383     3A    -11.465020
       4A    -11.462645     5A     -1.510977     6A     -1.183873
       7A     -1.175490     8A     -1.087211     9A     -0.935119
      10A     -0.862555    11A     -0.857758    12A     -0.786666
      13A     -0.769744    14A     -0.749601    15A     -0.742546
      16A     -0.738068    17A     -0.704783

  @DF-RHF Final Energy:  -173.70631176489857

   => Energetics <=

    Nuclear Repulsion Energy =            146.4121789843250667
    One-Electron Energy =                -515.4809566218111740
    Two-Electron Energy =                 195.3624658725875349
    Total Energy =                       -173.7063117648985724
  Basis Set: (AUG-CC-PVTZ AUX)
    Blend: AUG-CC-PVTZ-RI
    Molecular point group: c1

    Geometry (in Angstrom), charge = 1, multiplicity = 1:

       Center              X                  Y                   Z               Mass
    ------------   -----------------  -----------------  -----------------  -----------------
         N            0.013159598150     0.013559757410    -0.343568512930    14.003074004430
         C            1.144567598150    -0.840449842590     0.148834087070    12.000000000000
         C           -1.266248401850    -0.630306242590     0.104060487070    12.000000000000
         C            0.095262598150     1.443533757410     0.104064487070    12.000000000000
         H            0.013169598150     0.013580757410    -1.372119512930     1.007825032230
         H            1.223301598150    -0.778829242590     1.193835487070     1.007825032230
         H            1.127359598150    -1.788952242590    -0.279577512930     1.007825032230
         H            2.109868598150    -0.293886242590    -0.282422512930     1.007825032230
         H           -1.278194401850    -0.638090242590     1.193837487070     1.007825032230
         H           -2.104939401850    -0.050113242590    -0.279685512930     1.007825032230
         H           -1.301442401850    -1.648531242590    -0.282295512930     1.007825032230
         H            1.017058598150     1.879750757410    -0.279716512930     1.007825032230
         H           -0.768980401850     1.983074757410    -0.282282512930     1.007825032230
         H            0.094511598150     1.457723757410     1.193837487070     1.007825032230

  Basis Set: AUG-CC-PVTZ
    Blend: AUG-CC-PVTZ
  Basis Set: (AUG-CC-PVTZ AUX)
    Blend: AUG-CC-PVTZ-JKFIT
	 Reference Energy          =    -173.7063117648985724 [Eh]
	 Singles Energy            =      -0.0000000000000000 [Eh]
	 Same-Spin Energy          =      -0.1729518648277671 [Eh]
	 Opposite-Spin Energy      =      -0.6576770027406728 [Eh]
	 Correlation Energy        =      -0.8306288675684399 [Eh]
	 Total Energy              =    -174.5369406324670081 [Eh]

	 ================> DF-SCS-MP2 Energies <==================
	-----------------------------------------------------------
	 SCS Same-Spin Scale       =       0.3333333333333333 [-]
	 SCS Opposite-Spin Scale   =       1.2000000000000000 [-]
	 SCS Same-Spin Energy      =      -0.0576506216092557 [Eh]
	 SCS Opposite-Spin Energy  =      -0.7892124032888073 [Eh]
	 SCS Correlation Energy    =      -0.8468630248980630 [Eh]
	 SCS Total Energy          =    -174.5531747897966284 [Eh]
	-----------------------------------------------------------

  Dipole Moment: [D]
     X:     0.0296      Y:     0.0506      Z:    -0.8343     Total:     0.8363

*** Psi4 exiting successfully. Buy a developer a beer!
