                               Psi4 1.3.2 release

  ==> Input File <==

--------------------------------------------------------------------------
#psi4
#
memory 32 gb

molecule  {
1 1
  N       -0.0000100    -0.0000140    -0.3433270
  C        1.2129185    -0.7684599     0.0927603
  C       -1.2794180    -0.6438800     0.1043020
  C        0.0820930     1.4299600     0.1043060
  H        0.0000000     0.0000070    -1.3718780
  H        1.2101320    -0.7924030     1.1940770
  H        1.1141900    -1.8025260    -0.2793360
  H        2.0966990    -0.3074600    -0.2821810
  H       -1.2913640    -0.6516640     1.1940790
  H       -2.1181090    -0.0636870    -0.2794440
  H       -1.3146120    -1.6621050    -0.2820540
  H        1.0038890     1.8661770    -0.2794750
  H       -0.7821500     1.9695010    -0.2820410
  H        0.0813420     1.4441500     1.1940790
units angstrom
no_reorient  #important for SAPT in psi4, default
symmetry c1  #important for SAPT in psi4, default
}

set PROPERTIES_ORIGIN ["COM"]
properties('MP2/aug-cc-pvtz', properties = ['dipole'])
--------------------------------------------------------------------------

    Molecular point group: c1
  Charge       = 1
  Multiplicity = 1
  Basis Set: AUG-CC-PVTZ
    Blend: AUG-CC-PVTZ
  Basis Set: (AUG-CC-PVTZ AUX)
    Blend: AUG-CC-PVTZ-JKFIT

    Orbital Energies [Eh]
    ---------------------

    Doubly Occupied:

       1A    -15.879856     2A    -11.464245     3A    -11.463908
       4A    -11.463573     5A     -1.510275     6A     -1.180880
       7A     -1.178687     8A     -1.084210     9A     -0.933637
      10A     -0.861320    11A     -0.859336    12A     -0.771890
      13A     -0.768643    14A     -0.744796    15A     -0.738748
      16A     -0.737659    17A     -0.731794

  @DF-RHF Final Energy:  -173.71745268781132

   => Energetics <=

    Nuclear Repulsion Energy =            146.2774843699363316
    One-Electron Energy =                -515.2429578858394734
    Two-Electron Energy =                 195.2480208280917964
    Total Energy =                       -173.7174526878113170
  Basis Set: (AUG-CC-PVTZ AUX)
    Blend: AUG-CC-PVTZ-RI
    Molecular point group: c1

    Geometry (in Angstrom), charge = 1, multiplicity = 1:

       Center              X                  Y                   Z               Mass
    ------------   -----------------  -----------------  -----------------  -----------------
         N           -0.003122433096    -0.003529819285    -0.332320698279    14.003074004430
         C            1.209806066904    -0.771975719285     0.103766601721    12.000000000000
         C           -1.282530433096    -0.647395819285     0.115308301721    12.000000000000
         C            0.078980566904     1.426444180715     0.115312301721    12.000000000000
         H           -0.003112433096    -0.003508819285    -1.360871698279     1.007825032230
         H            1.207019566904    -0.795918819285     1.205083301721     1.007825032230
         H            1.111077566904    -1.806041819285    -0.268329698279     1.007825032230
         H            2.093586566904    -0.310975819285    -0.271174698279     1.007825032230
         H           -1.294476433096    -0.655179819285     1.205085301721     1.007825032230
         H           -2.121221433096    -0.067202819285    -0.268437698279     1.007825032230
         H           -1.317724433096    -1.665620819285    -0.271047698279     1.007825032230
         H            1.000776566904     1.862661180715    -0.268468698279     1.007825032230
         H           -0.785262433096     1.965985180715    -0.271034698279     1.007825032230
         H            0.078229566904     1.440634180715     1.205085301721     1.007825032230

  Basis Set: AUG-CC-PVTZ
    Blend: AUG-CC-PVTZ
  Basis Set: (AUG-CC-PVTZ AUX)
    Blend: AUG-CC-PVTZ-JKFIT
	 Reference Energy          =    -173.7174526878113170 [Eh]
	 Singles Energy            =      -0.0000000000000000 [Eh]
	 Same-Spin Energy          =      -0.1727183745444986 [Eh]
	 Opposite-Spin Energy      =      -0.6569816481162012 [Eh]
	 Correlation Energy        =      -0.8297000226606999 [Eh]
	 Total Energy              =    -174.5471527104720053 [Eh]

	 ================> DF-SCS-MP2 Energies <==================
	-----------------------------------------------------------
	 SCS Same-Spin Scale       =       0.3333333333333333 [-]
	 SCS Opposite-Spin Scale   =       1.2000000000000000 [-]
	 SCS Same-Spin Energy      =      -0.0575727915148329 [Eh]
	 SCS Opposite-Spin Energy  =      -0.7883779777394414 [Eh]
	 SCS Correlation Energy    =      -0.8459507692542743 [Eh]
	 SCS Total Energy          =    -174.5634034570655899 [Eh]
	-----------------------------------------------------------

  Dipole Moment: [D]
     X:    -0.0137      Y:    -0.0117      Z:    -0.8107     Total:     0.8109

*** Psi4 exiting successfully. Buy a developer a beer!
