                               Psi4 1.3.2 release

  ==> Input File <==

--------------------------------------------------------------------------
#psi4
#
memory 32 gb

molecule  {
1 1
  N       -0.0000100    -0.0000140    -0.3433270
  C        1.2096646    -0.7941555     0.0540435
  C       -1.2794180    -0.6438800     0.1043020
  C        0.0820930     1.4299600     0.1043060
  H        0.0000000     0.0000070    -1.3718780
  H        1.2101320    -0.7924030     1.1940770
  H        1.1141900    -1.8025260    -0.2793360
  H        2.0966990    -0.3074600    -0.2821810
  H       -1.2913640    -0.6516640     1.1940790
  H       -2.1181090    -0.0636870    -0.2794440
  H       -1.3146120    -1.6621050    -0.2820540
  H        1.0038890     1.8661770    -0.2794750
  H       -0.7821500     1.9695010    -0.2820410
  H        0.0813420     1.4441500     1.1940790
units angstrom
no_reorient  #important for SAPT in psi4, default
symmetry c1  #important for SAPT in psi4, default
}

set PROPERTIES_ORIGIN ["COM"]
properties('MP2/aug-cc-pvtz', properties = ['dipole'])
--------------------------------------------------------------------------

    Molecular point group: c1
  Charge       = 1
  Multiplicity = 1
  Basis Set: AUG-CC-PVTZ
    Blend: AUG-CC-PVTZ
  Basis Set: (AUG-CC-PVTZ AUX)
    Blend: AUG-CC-PVTZ-JKFIT

    Orbital Energies [Eh]
    ---------------------

    Doubly Occupied:

       1A    -15.879916     2A    -11.464227     3A    -11.464214
       4A    -11.464197     5A     -1.510257     6A     -1.181027
       7A     -1.179674     8A     -1.082905     9A     -0.933826
      10A     -0.863892    11A     -0.859979    12A     -0.773020
      13A     -0.762879    14A     -0.749112    15A     -0.737835
      16A     -0.737361    17A     -0.730119

  @DF-RHF Final Energy:  -173.71520710339104

   => Energetics <=

    Nuclear Repulsion Energy =            146.2021609113729710
    One-Electron Energy =                -515.0858562090669466
    Two-Electron Energy =                 195.1684881943029382
    Total Energy =                       -173.7152071033910374
  Basis Set: (AUG-CC-PVTZ AUX)
    Blend: AUG-CC-PVTZ-RI
    Molecular point group: c1

    Geometry (in Angstrom), charge = 1, multiplicity = 1:

       Center              X                  Y                   Z               Mass
    ------------   -----------------  -----------------  -----------------  -----------------
         N           -0.002472533973     0.001602344553    -0.324587819465    14.003074004430
         C            1.207202066027    -0.792539155447     0.072782680535    12.000000000000
         C           -1.281880533973    -0.642263655447     0.123041180535    12.000000000000
         C            0.079630466027     1.431576344553     0.123045180535    12.000000000000
         H           -0.002462533973     0.001623344553    -1.353138819465     1.007825032230
         H            1.207669466027    -0.790786655447     1.212816180535     1.007825032230
         H            1.111727466027    -1.800909655447    -0.260596819465     1.007825032230
         H            2.094236466027    -0.305843655447    -0.263441819465     1.007825032230
         H           -1.293826533973    -0.650047655447     1.212818180535     1.007825032230
         H           -2.120571533973    -0.062070655447    -0.260704819465     1.007825032230
         H           -1.317074533973    -1.660488655447    -0.263314819465     1.007825032230
         H            1.001426466027     1.867793344553    -0.260735819465     1.007825032230
         H           -0.784612533973     1.971117344553    -0.263301819465     1.007825032230
         H            0.078879466027     1.445766344553     1.212818180535     1.007825032230

  Basis Set: AUG-CC-PVTZ
    Blend: AUG-CC-PVTZ
  Basis Set: (AUG-CC-PVTZ AUX)
    Blend: AUG-CC-PVTZ-JKFIT
	 Reference Energy          =    -173.7152071033910374 [Eh]
	 Singles Energy            =      -0.0000000000000000 [Eh]
	 Same-Spin Energy          =      -0.1727530981554465 [Eh]
	 Opposite-Spin Energy      =      -0.6570563452629311 [Eh]
	 Correlation Energy        =      -0.8298094434183776 [Eh]
	 Total Energy              =    -174.5450165468094212 [Eh]

	 ================> DF-SCS-MP2 Energies <==================
	-----------------------------------------------------------
	 SCS Same-Spin Scale       =       0.3333333333333333 [-]
	 SCS Opposite-Spin Scale   =       1.2000000000000000 [-]
	 SCS Same-Spin Energy      =      -0.0575843660518155 [Eh]
	 SCS Opposite-Spin Energy  =      -0.7884676143155173 [Eh]
	 SCS Correlation Energy    =      -0.8460519803673328 [Eh]
	 SCS Total Energy          =    -174.5612590837583582 [Eh]
	-----------------------------------------------------------

  Dipole Moment: [D]
     X:    -0.0160      Y:     0.0105      Z:    -0.7964     Total:     0.7966

*** Psi4 exiting successfully. Buy a developer a beer!
