                               Psi4 1.3.2 release

  ==> Input File <==

--------------------------------------------------------------------------
#psi4
#
memory 32 gb

molecule  {
1 1
  N       -0.0000100    -0.0000140    -0.3433270
  C        1.2281335    -0.7506237     0.0810848
  C       -1.2794180    -0.6438800     0.1043020
  C        0.0820930     1.4299600     0.1043060
  H        0.0000000     0.0000070    -1.3718780
  H        1.2101320    -0.7924030     1.1940770
  H        1.1141900    -1.8025260    -0.2793360
  H        2.0966990    -0.3074600    -0.2821810
  H       -1.2913640    -0.6516640     1.1940790
  H       -2.1181090    -0.0636870    -0.2794440
  H       -1.3146120    -1.6621050    -0.2820540
  H        1.0038890     1.8661770    -0.2794750
  H       -0.7821500     1.9695010    -0.2820410
  H        0.0813420     1.4441500     1.1940790
units angstrom
no_reorient  #important for SAPT in psi4, default
symmetry c1  #important for SAPT in psi4, default
}

set PROPERTIES_ORIGIN ["COM"]
properties('MP2/aug-cc-pvtz', properties = ['dipole'])
--------------------------------------------------------------------------

    Molecular point group: c1
  Charge       = 1
  Multiplicity = 1
  Basis Set: AUG-CC-PVTZ
    Blend: AUG-CC-PVTZ
  Basis Set: (AUG-CC-PVTZ AUX)
    Blend: AUG-CC-PVTZ-JKFIT

    Orbital Energies [Eh]
    ---------------------

    Doubly Occupied:

       1A    -15.879964     2A    -11.464746     3A    -11.464201
       4A    -11.463366     5A     -1.510343     6A     -1.182272
       7A     -1.177852     8A     -1.083936     9A     -0.934323
      10A     -0.863093    11A     -0.858763    12A     -0.773004
      13A     -0.766868    14A     -0.749771    15A     -0.738212
      16A     -0.736992    17A     -0.726864

  @DF-RHF Final Energy:  -173.71482916676143

   => Energetics <=

    Nuclear Repulsion Energy =            146.2594137031790922
    One-Electron Energy =                -515.1993487261754581
    Two-Electron Energy =                 195.2251058562349044
    Total Energy =                       -173.7148291667614330
  Basis Set: (AUG-CC-PVTZ AUX)
    Blend: AUG-CC-PVTZ-RI
    Molecular point group: c1

    Geometry (in Angstrom), charge = 1, multiplicity = 1:

       Center              X                  Y                   Z               Mass
    ------------   -----------------  -----------------  -----------------  -----------------
         N           -0.006161314180    -0.007092230773    -0.329988759002    14.003074004430
         C            1.221982185820    -0.757701930773     0.094423040998    12.000000000000
         C           -1.285569314180    -0.650958230773     0.117640240998    12.000000000000
         C            0.075941685820     1.422881769227     0.117644240998    12.000000000000
         H           -0.006151314180    -0.007071230773    -1.358539759002     1.007825032230
         H            1.203980685820    -0.799481230773     1.207415240998     1.007825032230
         H            1.108038685820    -1.809604230773    -0.265997759002     1.007825032230
         H            2.090547685820    -0.314538230773    -0.268842759002     1.007825032230
         H           -1.297515314180    -0.658742230773     1.207417240998     1.007825032230
         H           -2.124260314180    -0.070765230773    -0.266105759002     1.007825032230
         H           -1.320763314180    -1.669183230773    -0.268715759002     1.007825032230
         H            0.997737685820     1.859098769227    -0.266136759002     1.007825032230
         H           -0.788301314180     1.962422769227    -0.268702759002     1.007825032230
         H            0.075190685820     1.437071769227     1.207417240998     1.007825032230

  Basis Set: AUG-CC-PVTZ
    Blend: AUG-CC-PVTZ
  Basis Set: (AUG-CC-PVTZ AUX)
    Blend: AUG-CC-PVTZ-JKFIT
	 Reference Energy          =    -173.7148291667614330 [Eh]
	 Singles Energy            =      -0.0000000000000000 [Eh]
	 Same-Spin Energy          =      -0.1727622122072940 [Eh]
	 Opposite-Spin Energy      =      -0.6571007074402639 [Eh]
	 Correlation Energy        =      -0.8298629196475580 [Eh]
	 Total Energy              =    -174.5446920864089861 [Eh]

	 ================> DF-SCS-MP2 Energies <==================
	-----------------------------------------------------------
	 SCS Same-Spin Scale       =       0.3333333333333333 [-]
	 SCS Opposite-Spin Scale   =       1.2000000000000000 [-]
	 SCS Same-Spin Energy      =      -0.0575874040690980 [Eh]
	 SCS Opposite-Spin Energy  =      -0.7885208489283168 [Eh]
	 SCS Correlation Energy    =      -0.8461082529974148 [Eh]
	 SCS Total Energy          =    -174.5609374197588579 [Eh]
	-----------------------------------------------------------

  Dipole Moment: [D]
     X:    -0.0302      Y:    -0.0231      Z:    -0.8051     Total:     0.8060

*** Psi4 exiting successfully. Buy a developer a beer!
