                               Psi4 1.3.2 release

  ==> Input File <==

--------------------------------------------------------------------------
#psi4
#
memory 32 gb

molecule  {
1 1
  N       -0.0000100    -0.0000140    -0.3433270
  C        1.1835446    -0.7770108     0.1540171
  C       -1.2794180    -0.6438800     0.1043020
  C        0.0820930     1.4299600     0.1043060
  H        0.0000000     0.0000070    -1.3718780
  H        1.2101320    -0.7924030     1.1940770
  H        1.1141900    -1.8025260    -0.2793360
  H        2.0966990    -0.3074600    -0.2821810
  H       -1.2913640    -0.6516640     1.1940790
  H       -2.1181090    -0.0636870    -0.2794440
  H       -1.3146120    -1.6621050    -0.2820540
  H        1.0038890     1.8661770    -0.2794750
  H       -0.7821500     1.9695010    -0.2820410
  H        0.0813420     1.4441500     1.1940790
units angstrom
no_reorient  #important for SAPT in psi4, default
symmetry c1  #important for SAPT in psi4, default
}

set PROPERTIES_ORIGIN ["COM"]
properties('MP2/aug-cc-pvtz', properties = ['dipole'])
--------------------------------------------------------------------------

    Molecular point group: c1
  Charge       = 1
  Multiplicity = 1
  Basis Set: AUG-CC-PVTZ
    Blend: AUG-CC-PVTZ
  Basis Set: (AUG-CC-PVTZ AUX)
    Blend: AUG-CC-PVTZ-JKFIT

    Orbital Energies [Eh]
    ---------------------

    Doubly Occupied:

       1A    -15.880121     2A    -11.464172     3A    -11.463521
       4A    -11.463506     5A     -1.510572     6A     -1.179670
       7A     -1.178686     8A     -1.087046     9A     -0.932624
      10A     -0.862130    11A     -0.856769    12A     -0.782683
      13A     -0.770209    14A     -0.745983    15A     -0.738225
      16A     -0.732424    17A     -0.725726

  @DF-RHF Final Energy:  -173.71480460032029

   => Energetics <=

    Nuclear Repulsion Energy =            146.4046372838946866
    One-Electron Energy =                -515.4907508448726503
    Two-Electron Energy =                 195.3713089606577000
    Total Energy =                       -173.7148046003202921
  Basis Set: (AUG-CC-PVTZ AUX)
    Blend: AUG-CC-PVTZ-RI
    Molecular point group: c1

    Geometry (in Angstrom), charge = 1, multiplicity = 1:

       Center              X                  Y                   Z               Mass
    ------------   -----------------  -----------------  -----------------  -----------------
         N            0.002744394973    -0.001821954134    -0.344555475196    14.003074004430
         C            1.186298994973    -0.778818754134     0.152788624804    12.000000000000
         C           -1.276663605027    -0.645687954134     0.103073524804    12.000000000000
         C            0.084847394973     1.428152045866     0.103077524804    12.000000000000
         H            0.002754394973    -0.001800954134    -1.373106475196     1.007825032230
         H            1.212886394973    -0.794210954134     1.192848524804     1.007825032230
         H            1.116944394973    -1.804333954134    -0.280564475196     1.007825032230
         H            2.099453394973    -0.309267954134    -0.283409475196     1.007825032230
         H           -1.288609605027    -0.653471954134     1.192850524804     1.007825032230
         H           -2.115354605027    -0.065494954134    -0.280672475196     1.007825032230
         H           -1.311857605027    -1.663912954134    -0.283282475196     1.007825032230
         H            1.006643394973     1.864369045866    -0.280703475196     1.007825032230
         H           -0.779395605027     1.967693045866    -0.283269475196     1.007825032230
         H            0.084096394973     1.442342045866     1.192850524804     1.007825032230

  Basis Set: AUG-CC-PVTZ
    Blend: AUG-CC-PVTZ
  Basis Set: (AUG-CC-PVTZ AUX)
    Blend: AUG-CC-PVTZ-JKFIT
	 Reference Energy          =    -173.7148046003202921 [Eh]
	 Singles Energy            =      -0.0000000000000000 [Eh]
	 Same-Spin Energy          =      -0.1727729165278166 [Eh]
	 Opposite-Spin Energy      =      -0.6571827622039039 [Eh]
	 Correlation Energy        =      -0.8299556787317206 [Eh]
	 Total Energy              =    -174.5447602790520136 [Eh]

	 ================> DF-SCS-MP2 Energies <==================
	-----------------------------------------------------------
	 SCS Same-Spin Scale       =       0.3333333333333333 [-]
	 SCS Opposite-Spin Scale   =       1.2000000000000000 [-]
	 SCS Same-Spin Energy      =      -0.0575909721759389 [Eh]
	 SCS Opposite-Spin Energy  =      -0.7886193146446847 [Eh]
	 SCS Correlation Energy    =      -0.8462102868206236 [Eh]
	 SCS Total Energy          =    -174.5610148871409137 [Eh]
	-----------------------------------------------------------

  Dipole Moment: [D]
     X:     0.0111      Y:    -0.0072      Z:    -0.8417     Total:     0.8418

*** Psi4 exiting successfully. Buy a developer a beer!
