                               Psi4 1.3.2 release

  ==> Input File <==

--------------------------------------------------------------------------
#psi4
#
memory 32 gb

molecule  {
0 1
  O        2.8443680    -0.4002740    -0.0000640
  C        0.5303490     0.2197810    -0.0000320
  C       -0.3650130     1.2954270     0.0000030
  C        0.0536120    -1.0979650    -0.0000100
  C       -1.7392770     1.0552920     0.0000660
  C       -1.3183870    -1.3327110     0.0000480
  C       -2.2153620    -0.2579650     0.0000850
  C        1.9872980     0.4782480    -0.0000900
  H        0.0154570     2.3161290    -0.0000170
  H        0.7719840    -1.9138740    -0.0000340
  H       -2.4382530     1.8879220     0.0000950
  H       -1.6949380    -2.3526680     0.0000610
  H       -3.2864430    -0.4457910     0.0001330
  H        2.2779260     1.5498300    -0.0001490
units angstrom
no_reorient  #important for SAPT in psi4, default
symmetry c1  #important for SAPT in psi4, default
}

set PROPERTIES_ORIGIN ["COM"]
properties('MP2/aug-cc-pvtz', properties = ['dipole'])
--------------------------------------------------------------------------

    Molecular point group: c1
  Charge       = 0
  Multiplicity = 1
  Basis Set: AUG-CC-PVTZ
    Blend: AUG-CC-PVTZ
  Basis Set: (AUG-CC-PVTZ AUX)
    Blend: AUG-CC-PVTZ-JKFIT

    Orbital Energies [Eh]
    ---------------------

    Doubly Occupied:

       1A    -20.556205     2A    -11.338930     3A    -11.264311
       4A    -11.261516     5A    -11.256984     6A    -11.255240
       7A    -11.254274     8A    -11.252466     9A     -1.381173
      10A     -1.172532    11A     -1.051305    12A     -1.034371
      13A     -0.895344    14A     -0.847409    15A     -0.793174
      16A     -0.720040    17A     -0.678003    18A     -0.653074
      19A     -0.620190    20A     -0.613766    21A     -0.605215
      22A     -0.551943    23A     -0.530737    24A     -0.511370
      25A     -0.500353    26A     -0.430936    27A     -0.356731
      28A     -0.352963

  @DF-RHF Final Energy:  -343.54800770160477

   => Energetics <=

    Nuclear Repulsion Energy =            320.4766836258841067
    One-Electron Energy =               -1100.5682670091441651
    Two-Electron Energy =                 436.5435756816552839
    Total Energy =                       -343.5480077016047744
  Basis Set: (AUG-CC-PVTZ AUX)
    Blend: AUG-CC-PVTZ-RI
    Molecular point group: c1

    Geometry (in Angstrom), charge = 0, multiplicity = 1:

       Center              X                  Y                   Z               Mass
    ------------   -----------------  -----------------  -----------------  -----------------
         O            2.803763998603    -0.390547970478    -0.000063113764    15.994914619570
         C            0.489744998603     0.229507029522    -0.000031113764    12.000000000000
         C           -0.405617001397     1.305153029522     0.000003886236    12.000000000000
         C            0.013007998603    -1.088238970478    -0.000009113764    12.000000000000
         C           -1.779881001397     1.065018029522     0.000066886236    12.000000000000
         C           -1.358991001397    -1.322984970478     0.000048886236    12.000000000000
         C           -2.255966001397    -0.248238970478     0.000085886236    12.000000000000
         C            1.946693998603     0.487974029522    -0.000089113764    12.000000000000
         H           -0.025147001397     2.325855029522    -0.000016113764     1.007825032230
         H            0.731379998603    -1.904147970478    -0.000033113764     1.007825032230
         H           -2.478857001397     1.897648029522     0.000095886236     1.007825032230
         H           -1.735542001397    -2.342941970478     0.000061886236     1.007825032230
         H           -3.327047001397    -0.436064970478     0.000133886236     1.007825032230
         H            2.237321998603     1.559556029522    -0.000148113764     1.007825032230

  Basis Set: AUG-CC-PVTZ
    Blend: AUG-CC-PVTZ
  Basis Set: (AUG-CC-PVTZ AUX)
    Blend: AUG-CC-PVTZ-JKFIT
	 Reference Energy          =    -343.5480077016047744 [Eh]
	 Singles Energy            =      -0.0000000000000000 [Eh]
	 Same-Spin Energy          =      -0.3639038212127993 [Eh]
	 Opposite-Spin Energy      =      -1.1296435441994694 [Eh]
	 Correlation Energy        =      -1.4935473654122688 [Eh]
	 Total Energy              =    -345.0415550670170433 [Eh]

	 ================> DF-SCS-MP2 Energies <==================
	-----------------------------------------------------------
	 SCS Same-Spin Scale       =       0.3333333333333333 [-]
	 SCS Opposite-Spin Scale   =       1.2000000000000000 [-]
	 SCS Same-Spin Energy      =      -0.1213012737375998 [Eh]
	 SCS Opposite-Spin Energy  =      -1.3555722530393632 [Eh]
	 SCS Correlation Energy    =      -1.4768735267769630 [Eh]
	 SCS Total Energy          =    -345.0248812283817301 [Eh]
	-----------------------------------------------------------

  Dipole Moment: [D]
     X:    -3.0106      Y:     1.2468      Z:     0.0000     Total:     3.2586

*** Psi4 exiting successfully. Buy a developer a beer!
