                               Psi4 1.4a3.dev225

  ==> Input File <==

--------------------------------------------------------------------------
#psi4
#
memory 32 gb

molecule  {
0 1
  O        2.8443490    -0.4002910    -0.0000960
  C        0.5303130     0.2198450    -0.0000250
  C       -0.3650130     1.2954800     0.0000070
  C        0.0536480    -1.0979670    -0.0000020
  C       -1.7393110     1.0553020     0.0000660
  C       -1.3183250    -1.3328010     0.0000550
  C       -2.2153260    -0.2579870     0.0000890
  C        1.9872740     0.4782630    -0.0000850
  H        0.0153590     2.3162280    -0.0000130
  H        0.7720410    -1.9138490    -0.0000260
  H       -2.4383560     1.8878700     0.0000920
  H       -1.6950010    -2.3527060     0.0000730
  H       -3.2864200    -0.4458710     0.0001340
  H        2.2832633     1.5691431    -0.0001227
units angstrom
no_reorient  #important for SAPT in psi4, default
symmetry c1  #important for SAPT in psi4, default
}

set PROPERTIES_ORIGIN ["COM"]
properties('MP2/aug-cc-pvtz', properties = ['dipole'])
--------------------------------------------------------------------------

    Molecular point group: c1
  Charge       = 0
  Multiplicity = 1
  Basis Set: AUG-CC-PVTZ
    Blend: AUG-CC-PVTZ
  Basis Set: (AUG-CC-PVTZ AUX)
    Blend: AUG-CC-PVTZ-JKFIT

    Orbital Energies [Eh]
    ---------------------

    Doubly Occupied:

       1A    -20.556700     2A    -11.341234     3A    -11.264401
       4A    -11.261653     5A    -11.257234     6A    -11.255597
       7A    -11.254347     8A    -11.252590     9A     -1.381457
      10A     -1.172648    11A     -1.051291    12A     -1.034488
      13A     -0.894172    14A     -0.847428    15A     -0.791405
      16A     -0.719014    17A     -0.677127    18A     -0.653261
      19A     -0.620178    20A     -0.613200    21A     -0.605144
      22A     -0.552198    23A     -0.530816    24A     -0.511492
      25A     -0.500577    26A     -0.430193    27A     -0.356836
      28A     -0.353130

  @DF-RHF Final Energy:  -343.54729636816984

   => Energetics <=

    Nuclear Repulsion Energy =            320.3807537691778862
    One-Electron Energy =               -1100.3764790791037740
    Two-Electron Energy =                 436.4484289417560490
    Total Energy =                       -343.5472963681698388
  Basis Set: (AUG-CC-PVTZ AUX)
    Blend: AUG-CC-PVTZ-RI
    Molecular point group: c1

    Geometry (in Angstrom), charge = 0, multiplicity = 1:

       Center              X                  Y                   Z               Mass
    ------------   -----------------  -----------------  -----------------  -----------------
         O            2.803694360854    -0.390748689919    -0.000094706761    15.994914619570
         C            0.489658360854     0.229387310081    -0.000023706761    12.000000000000
         C           -0.405667639146     1.305022310081     0.000008293239    12.000000000000
         C            0.012993360854    -1.088424689919    -0.000000706761    12.000000000000
         C           -1.779965639146     1.064844310081     0.000067293239    12.000000000000
         C           -1.358979639146    -1.323258689919     0.000056293239    12.000000000000
         C           -2.255980639146    -0.248444689919     0.000090293239    12.000000000000
         C            1.946619360854     0.487805310081    -0.000083706761    12.000000000000
         H           -0.025295639146     2.325770310081    -0.000011706761     1.007825032230
         H            0.731386360854    -1.904306689919    -0.000024706761     1.007825032230
         H           -2.479010639146     1.897412310081     0.000093293239     1.007825032230
         H           -1.735655639146    -2.343163689919     0.000074293239     1.007825032230
         H           -3.327074639146    -0.436328689919     0.000135293239     1.007825032230
         H            2.242608660854     1.578685410081    -0.000121406761     1.007825032230

  Basis Set: AUG-CC-PVTZ
    Blend: AUG-CC-PVTZ
  Basis Set: (AUG-CC-PVTZ AUX)
    Blend: AUG-CC-PVTZ-JKFIT
	 Reference Energy          =    -343.5472963681698388 [Eh]
	 Singles Energy            =      -0.0000000000000000 [Eh]
	 Same-Spin Energy          =      -0.3639968440850226 [Eh]
	 Opposite-Spin Energy      =      -1.1298526054001938 [Eh]
	 Correlation Energy        =      -1.4938494494852164 [Eh]
	 Total Energy              =    -345.0411458176550354 [Eh]

	 ================> DF-SCS-MP2 Energies <==================
	-----------------------------------------------------------
	 SCS Same-Spin Scale       =       0.3333333333333333 [-]
	 SCS Opposite-Spin Scale   =       1.2000000000000000 [-]
	 SCS Same-Spin Energy      =      -0.1213322813616742 [Eh]
	 SCS Opposite-Spin Energy  =      -1.3558231264802325 [Eh]
	 SCS Correlation Energy    =      -1.4771554078419067 [Eh]
	 SCS Total Energy          =    -345.0244517760117446 [Eh]
	-----------------------------------------------------------

  Dipole Moment: [D]
     X:    -3.0198      Y:     1.2243      Z:     0.0001     Total:     3.2586

*** Psi4 exiting successfully. Buy a developer a beer!
