                               Psi4 1.3.2 release

  ==> Input File <==

--------------------------------------------------------------------------
#psi4
#
memory 32 gb

molecule  {
0 1
  O        2.8443680    -0.4002740    -0.0000640
  C        0.5303490     0.2197810    -0.0000320
  C       -0.3650130     1.2954270     0.0000030
  C        0.0536120    -1.0979650    -0.0000100
  C       -1.7392770     1.0552920     0.0000660
  C       -1.3183870    -1.3327110     0.0000480
  C       -2.2153620    -0.2579650     0.0000850
  C        2.1842232     0.5131831    -0.0000978
  H        0.0154570     2.3161290    -0.0000170
  H        0.7719840    -1.9138740    -0.0000340
  H       -2.4382530     1.8879220     0.0000950
  H       -1.6949380    -2.3526680     0.0000610
  H       -3.2864430    -0.4457910     0.0001330
  H        2.2779260     1.5498300    -0.0001490
units angstrom
no_reorient  #important for SAPT in psi4, default
symmetry c1  #important for SAPT in psi4, default
}

set PROPERTIES_ORIGIN ["COM"]
properties('MP2/aug-cc-pvtz', properties = ['dipole'])
--------------------------------------------------------------------------

    Molecular point group: c1
  Charge       = 0
  Multiplicity = 1
  Basis Set: AUG-CC-PVTZ
    Blend: AUG-CC-PVTZ
  Basis Set: (AUG-CC-PVTZ AUX)
    Blend: AUG-CC-PVTZ-JKFIT

    Orbital Energies [Eh]
    ---------------------

    Doubly Occupied:

       1A    -20.578022     2A    -11.345110     3A    -11.248538
       4A    -11.247175     5A    -11.246154     6A    -11.244163
       7A    -11.243336     8A    -11.241820     9A     -1.467396
      10A     -1.155867    11A     -1.024461    12A     -1.020722
      13A     -0.879777    14A     -0.832044    15A     -0.801207
      16A     -0.715972    17A     -0.700968    18A     -0.655152
      19A     -0.624127    20A     -0.617487    21A     -0.594252
      22A     -0.588875    23A     -0.529400    24A     -0.505126
      25A     -0.499899    26A     -0.405059    27A     -0.344975
      28A     -0.341154

  @DF-RHF Final Energy:  -343.51895465786794

   => Energetics <=

    Nuclear Repulsion Energy =            319.1049187003173984
    One-Electron Energy =               -1097.8512698823467417
    Two-Electron Energy =                 435.2273965241614064
    Total Energy =                       -343.5189546578679369
  Basis Set: (AUG-CC-PVTZ AUX)
    Blend: AUG-CC-PVTZ-RI
    Molecular point group: c1

    Geometry (in Angstrom), charge = 0, multiplicity = 1:

       Center              X                  Y                   Z               Mass
    ------------   -----------------  -----------------  -----------------  -----------------
         O            2.781479381068    -0.394501326077    -0.000062231094    15.994914619570
         C            0.467460381068     0.225553673923    -0.000030231094    12.000000000000
         C           -0.427901618932     1.301199673923     0.000004768906    12.000000000000
         C           -0.009276618932    -1.092192326077    -0.000008231094    12.000000000000
         C           -1.802165618932     1.061064673923     0.000067768906    12.000000000000
         C           -1.381275618932    -1.326938326077     0.000049768906    12.000000000000
         C           -2.278250618932    -0.252192326077     0.000086768906    12.000000000000
         C            2.121334581068     0.518955773923    -0.000096031094    12.000000000000
         H           -0.047431618932     2.321901673923    -0.000015231094     1.007825032230
         H            0.709095381068    -1.908101326077    -0.000032231094     1.007825032230
         H           -2.501141618932     1.893694673923     0.000096768906     1.007825032230
         H           -1.757826618932    -2.346895326077     0.000062768906     1.007825032230
         H           -3.349331618932    -0.440018326077     0.000134768906     1.007825032230
         H            2.215037381068     1.555602673923    -0.000147231094     1.007825032230

  Basis Set: AUG-CC-PVTZ
    Blend: AUG-CC-PVTZ
  Basis Set: (AUG-CC-PVTZ AUX)
    Blend: AUG-CC-PVTZ-JKFIT
	 Reference Energy          =    -343.5189546578679369 [Eh]
	 Singles Energy            =      -0.0000000000000000 [Eh]
	 Same-Spin Energy          =      -0.3614828819346072 [Eh]
	 Opposite-Spin Energy      =      -1.1248468928269590 [Eh]
	 Correlation Energy        =      -1.4863297747615662 [Eh]
	 Total Energy              =    -345.0052844326294803 [Eh]

	 ================> DF-SCS-MP2 Energies <==================
	-----------------------------------------------------------
	 SCS Same-Spin Scale       =       0.3333333333333333 [-]
	 SCS Opposite-Spin Scale   =       1.2000000000000000 [-]
	 SCS Same-Spin Energy      =      -0.1204942939782024 [Eh]
	 SCS Opposite-Spin Energy  =      -1.3498162713923507 [Eh]
	 SCS Correlation Energy    =      -1.4703105653705530 [Eh]
	 SCS Total Energy          =    -344.9892652232384762 [Eh]
	-----------------------------------------------------------

  Dipole Moment: [D]
     X:    -1.3551      Y:     1.3705      Z:    -0.0000     Total:     1.9273

*** Psi4 exiting successfully. Buy a developer a beer!
