                               Psi4 1.3.2 release

  ==> Input File <==

--------------------------------------------------------------------------
#psi4
#
memory 32 gb

molecule  {
0 1
  O        2.9315034    -0.3058732    -0.0000721
  C        0.5303490     0.2197810    -0.0000320
  C       -0.3650130     1.2954270     0.0000030
  C        0.0536120    -1.0979650    -0.0000100
  C       -1.7392770     1.0552920     0.0000660
  C       -1.3183870    -1.3327110     0.0000480
  C       -2.2153620    -0.2579650     0.0000850
  C        1.9872980     0.4782480    -0.0000900
  H        0.0154570     2.3161290    -0.0000170
  H        0.7719840    -1.9138740    -0.0000340
  H       -2.4382530     1.8879220     0.0000950
  H       -1.6949380    -2.3526680     0.0000610
  H       -3.2864430    -0.4457910     0.0001330
  H        2.2779260     1.5498300    -0.0001490
units angstrom
no_reorient  #important for SAPT in psi4, default
symmetry c1  #important for SAPT in psi4, default
}

set PROPERTIES_ORIGIN ["COM"]
properties('MP2/aug-cc-pvtz', properties = ['dipole'])
--------------------------------------------------------------------------

    Molecular point group: c1
  Charge       = 0
  Multiplicity = 1
  Basis Set: AUG-CC-PVTZ
    Blend: AUG-CC-PVTZ
  Basis Set: (AUG-CC-PVTZ AUX)
    Blend: AUG-CC-PVTZ-JKFIT

    Orbital Energies [Eh]
    ---------------------

    Doubly Occupied:

       1A    -20.555487     2A    -11.337436     3A    -11.267102
       4A    -11.264020     5A    -11.260424     6A    -11.259181
       7A    -11.256451     8A    -11.254638     9A     -1.379450
      10A     -1.175365    11A     -1.054168    12A     -1.036908
      13A     -0.895965    14A     -0.849752    15A     -0.793190
      16A     -0.720516    17A     -0.678288    18A     -0.655391
      19A     -0.621945    20A     -0.613231    21A     -0.606939
      22A     -0.551732    23A     -0.533323    24A     -0.514025
      25A     -0.501557    26A     -0.426936    27A     -0.359047
      28A     -0.355940

  @DF-RHF Final Energy:  -343.54581964314332

   => Energetics <=

    Nuclear Repulsion Energy =            319.4864673794712644
    One-Electron Energy =               -1098.5077597075558060
    Two-Electron Energy =                 435.4754726849412236
    Total Energy =                       -343.5458196431433180
  Basis Set: (AUG-CC-PVTZ AUX)
    Blend: AUG-CC-PVTZ-RI
    Molecular point group: c1

    Geometry (in Angstrom), charge = 0, multiplicity = 1:

       Center              X                  Y                   Z               Mass
    ------------   -----------------  -----------------  -----------------  -----------------
         O            2.877756256639    -0.310386195213    -0.000069991994    15.994914619570
         C            0.476601856639     0.215268004787    -0.000029891994    12.000000000000
         C           -0.418760143361     1.290914004787     0.000005108006    12.000000000000
         C           -0.000135143361    -1.102477995213    -0.000007891994    12.000000000000
         C           -1.793024143361     1.050779004787     0.000068108006    12.000000000000
         C           -1.372134143361    -1.337223995213     0.000050108006    12.000000000000
         C           -2.269109143361    -0.262477995213     0.000087108006    12.000000000000
         C            1.933550856639     0.473735004787    -0.000087891994    12.000000000000
         H           -0.038290143361     2.311616004787    -0.000014891994     1.007825032230
         H            0.718236856639    -1.918386995213    -0.000031891994     1.007825032230
         H           -2.492000143361     1.883409004787     0.000097108006     1.007825032230
         H           -1.748685143361    -2.357180995213     0.000063108006     1.007825032230
         H           -3.340190143361    -0.450303995213     0.000135108006     1.007825032230
         H            2.224178856639     1.545317004787    -0.000146891994     1.007825032230

  Basis Set: AUG-CC-PVTZ
    Blend: AUG-CC-PVTZ
  Basis Set: (AUG-CC-PVTZ AUX)
    Blend: AUG-CC-PVTZ-JKFIT
	 Reference Energy          =    -343.5458196431433180 [Eh]
	 Singles Energy            =      -0.0000000000000000 [Eh]
	 Same-Spin Energy          =      -0.3637892708833785 [Eh]
	 Opposite-Spin Energy      =      -1.1297397411486103 [Eh]
	 Correlation Energy        =      -1.4935290120319888 [Eh]
	 Total Energy              =    -345.0393486551753313 [Eh]

	 ================> DF-SCS-MP2 Energies <==================
	-----------------------------------------------------------
	 SCS Same-Spin Scale       =       0.3333333333333333 [-]
	 SCS Opposite-Spin Scale   =       1.2000000000000000 [-]
	 SCS Same-Spin Energy      =      -0.1212630902944595 [Eh]
	 SCS Opposite-Spin Energy  =      -1.3556876893783323 [Eh]
	 SCS Correlation Energy    =      -1.4769507796727919 [Eh]
	 SCS Total Energy          =    -345.0227704228161087 [Eh]
	-----------------------------------------------------------

  Dipole Moment: [D]
     X:    -3.3078      Y:     1.0606      Z:     0.0000     Total:     3.4737

*** Psi4 exiting successfully. Buy a developer a beer!
