                               Psi4 1.4a3.dev225

  ==> Input File <==

--------------------------------------------------------------------------
#psi4
#
memory 32 gb

molecule  {
0 1
  O        2.8443490    -0.4002910    -0.0000960
  C        0.5303130     0.2198450    -0.0000250
  C       -0.3650130     1.2954800     0.0000070
  C        0.0536480    -1.0979670    -0.0000020
  C       -1.7393110     1.0553020     0.0000660
  C       -1.3183250    -1.3328010     0.0000550
  C       -2.2153260    -0.2579870     0.0000890
  C        1.9380424     0.4695309    -0.0000830
  H        0.0153590     2.3162280    -0.0000130
  H        0.7720410    -1.9138490    -0.0000260
  H       -2.4383560     1.8878700     0.0000920
  H       -1.6950010    -2.3527060     0.0000730
  H       -3.2864200    -0.4458710     0.0001340
  H        2.2780260     1.5498410    -0.0001220
units angstrom
no_reorient  #important for SAPT in psi4, default
symmetry c1  #important for SAPT in psi4, default
}

set PROPERTIES_ORIGIN ["COM"]
properties('MP2/aug-cc-pvtz', properties = ['dipole'])
--------------------------------------------------------------------------

    Molecular point group: c1
  Charge       = 0
  Multiplicity = 1
  Basis Set: AUG-CC-PVTZ
    Blend: AUG-CC-PVTZ
  Basis Set: (AUG-CC-PVTZ AUX)
    Blend: AUG-CC-PVTZ-JKFIT

    Orbital Energies [Eh]
    ---------------------

    Doubly Occupied:

       1A    -20.550693     2A    -11.338165     3A    -11.268499
       4A    -11.265931     5A    -11.260729     6A    -11.256667
       7A    -11.254831     8A    -11.254524     9A     -1.359552
      10A     -1.177146    11A     -1.059918    12A     -1.037632
      13A     -0.902604    14A     -0.851234    15A     -0.791281
      16A     -0.720082    17A     -0.679217    18A     -0.653780
      19A     -0.621558    20A     -0.609150    21A     -0.601406
      22A     -0.550620    23A     -0.532499    24A     -0.513836
      25A     -0.493589    26A     -0.430154    27A     -0.359304
      28A     -0.355261

  @DF-RHF Final Energy:  -343.54111069946561

   => Energetics <=

    Nuclear Repulsion Energy =            320.8916782356399153
    One-Electron Energy =               -1101.3658559903853984
    Two-Electron Energy =                 436.9330670552798779
    Total Energy =                       -343.5411106994656052
  Basis Set: (AUG-CC-PVTZ AUX)
    Blend: AUG-CC-PVTZ-RI
    Molecular point group: c1

    Geometry (in Angstrom), charge = 0, multiplicity = 1:

       Center              X                  Y                   Z               Mass
    ------------   -----------------  -----------------  -----------------  -----------------
         O            2.809315324641    -0.389577092835    -0.000094939740    15.994914619570
         C            0.495279324641     0.230558907165    -0.000023939740    12.000000000000
         C           -0.400046675359     1.306193907165     0.000008060260    12.000000000000
         C            0.018614324641    -1.087253092835    -0.000000939740    12.000000000000
         C           -1.774344675359     1.066015907165     0.000067060260    12.000000000000
         C           -1.353358675359    -1.322087092835     0.000056060260    12.000000000000
         C           -2.250359675359    -0.247273092835     0.000090060260    12.000000000000
         C            1.903008724641     0.480244807165    -0.000081939740    12.000000000000
         H           -0.019674675359     2.326941907165    -0.000011939740     1.007825032230
         H            0.737007324641    -1.903135092835    -0.000024939740     1.007825032230
         H           -2.473389675359     1.898583907165     0.000093060260     1.007825032230
         H           -1.730034675359    -2.341992092835     0.000074060260     1.007825032230
         H           -3.321453675359    -0.435157092835     0.000135060260     1.007825032230
         H            2.242992324641     1.560554907165    -0.000120939740     1.007825032230

  Basis Set: AUG-CC-PVTZ
    Blend: AUG-CC-PVTZ
  Basis Set: (AUG-CC-PVTZ AUX)
    Blend: AUG-CC-PVTZ-JKFIT
	 Reference Energy          =    -343.5411106994656052 [Eh]
	 Singles Energy            =      -0.0000000000000000 [Eh]
	 Same-Spin Energy          =      -0.3651350140596130 [Eh]
	 Opposite-Spin Energy      =      -1.1319816827950810 [Eh]
	 Correlation Energy        =      -1.4971166968546941 [Eh]
	 Total Energy              =    -345.0382273963202806 [Eh]

	 ================> DF-SCS-MP2 Energies <==================
	-----------------------------------------------------------
	 SCS Same-Spin Scale       =       0.3333333333333333 [-]
	 SCS Opposite-Spin Scale   =       1.2000000000000000 [-]
	 SCS Same-Spin Energy      =      -0.1217116713532043 [Eh]
	 SCS Opposite-Spin Energy  =      -1.3583780193540973 [Eh]
	 SCS Correlation Energy    =      -1.4800896907073016 [Eh]
	 SCS Total Energy          =    -345.0212003901729076 [Eh]
	-----------------------------------------------------------

  Dipole Moment: [D]
     X:    -3.3804      Y:     1.2096      Z:     0.0001     Total:     3.5903

*** Psi4 exiting successfully. Buy a developer a beer!
