                               Psi4 1.3.2 release

  ==> Input File <==

--------------------------------------------------------------------------
#psi4
#
memory 32 gb

molecule  {
0 1
  O        2.8443680    -0.4002740    -0.0000640
  C        0.5303490     0.2197810    -0.0000320
  C       -0.3650130     1.2954270     0.0000030
  C        0.0536120    -1.0979650    -0.0000100
  C       -1.7392770     1.0552920     0.0000660
  C       -1.3183870    -1.3327110     0.0000480
  C       -2.2153620    -0.2579650     0.0000850
  C        2.1269607     0.3350896    -0.0000858
  H        0.0154570     2.3161290    -0.0000170
  H        0.7719840    -1.9138740    -0.0000340
  H       -2.4382530     1.8879220     0.0000950
  H       -1.6949380    -2.3526680     0.0000610
  H       -3.2864430    -0.4457910     0.0001330
  H        2.2779260     1.5498300    -0.0001490
units angstrom
no_reorient  #important for SAPT in psi4, default
symmetry c1  #important for SAPT in psi4, default
}

set PROPERTIES_ORIGIN ["COM"]
properties('MP2/aug-cc-pvtz', properties = ['dipole'])
--------------------------------------------------------------------------

    Molecular point group: c1
  Charge       = 0
  Multiplicity = 1
  Basis Set: AUG-CC-PVTZ
    Blend: AUG-CC-PVTZ
  Basis Set: (AUG-CC-PVTZ AUX)
    Blend: AUG-CC-PVTZ-JKFIT

    Orbital Energies [Eh]
    ---------------------

    Doubly Occupied:

       1A    -20.578901     2A    -11.334194     3A    -11.254676
       4A    -11.251041     5A    -11.248647     6A    -11.248331
       7A    -11.246386     8A    -11.245162     9A     -1.548800
      10A     -1.161442    11A     -1.031671    12A     -1.026221
      13A     -0.862609    14A     -0.839258    15A     -0.780253
      16A     -0.730468    17A     -0.713476    18A     -0.673551
      19A     -0.646912    20A     -0.625467    21A     -0.623603
      22A     -0.597989    23A     -0.530943    24A     -0.511019
      25A     -0.504567    26A     -0.386257    27A     -0.348940
      28A     -0.347367

  @DF-RHF Final Energy:  -343.47701570389586

   => Energetics <=

    Nuclear Repulsion Energy =            322.1711156210792524
    One-Electron Energy =               -1103.4999672716780879
    Two-Electron Energy =                 437.8518359467029768
    Total Energy =                       -343.4770157038958587
  Basis Set: (AUG-CC-PVTZ AUX)
    Blend: AUG-CC-PVTZ-RI
    Molecular point group: c1

    Geometry (in Angstrom), charge = 0, multiplicity = 1:

       Center              X                  Y                   Z               Mass
    ------------   -----------------  -----------------  -----------------  -----------------
         O            2.787959368960    -0.374347757448    -0.000063589048    15.994914619570
         C            0.473940368960     0.245707242552    -0.000031589048    12.000000000000
         C           -0.421421631040     1.321353242552     0.000003410952    12.000000000000
         C           -0.002796631040    -1.072038757448    -0.000009589048    12.000000000000
         C           -1.795685631040     1.081218242552     0.000066410952    12.000000000000
         C           -1.374795631040    -1.306784757448     0.000048410952    12.000000000000
         C           -2.271770631040    -0.232038757448     0.000085410952    12.000000000000
         C            2.070552068960     0.361015842552    -0.000085389048    12.000000000000
         H           -0.040951631040     2.342055242552    -0.000016589048     1.007825032230
         H            0.715575368960    -1.887947757448    -0.000033589048     1.007825032230
         H           -2.494661631040     1.913848242552     0.000095410952     1.007825032230
         H           -1.751346631040    -2.326741757448     0.000061410952     1.007825032230
         H           -3.342851631040    -0.419864757448     0.000133410952     1.007825032230
         H            2.221517368960     1.575756242552    -0.000148589048     1.007825032230

  Basis Set: AUG-CC-PVTZ
    Blend: AUG-CC-PVTZ
  Basis Set: (AUG-CC-PVTZ AUX)
    Blend: AUG-CC-PVTZ-JKFIT
	 Reference Energy          =    -343.4770157038958587 [Eh]
	 Singles Energy            =      -0.0000000000000000 [Eh]
	 Same-Spin Energy          =      -0.3598298329800272 [Eh]
	 Opposite-Spin Energy      =      -1.1196831888899523 [Eh]
	 Correlation Energy        =      -1.4795130218699795 [Eh]
	 Total Energy              =    -344.9565287257658497 [Eh]

	 ================> DF-SCS-MP2 Energies <==================
	-----------------------------------------------------------
	 SCS Same-Spin Scale       =       0.3333333333333333 [-]
	 SCS Opposite-Spin Scale   =       1.2000000000000000 [-]
	 SCS Same-Spin Energy      =      -0.1199432776600091 [Eh]
	 SCS Opposite-Spin Energy  =      -1.3436198266679427 [Eh]
	 SCS Correlation Energy    =      -1.4635631043279518 [Eh]
	 SCS Total Energy          =    -344.9405788082237905 [Eh]
	-----------------------------------------------------------

  Dipole Moment: [D]
     X:    -1.7973      Y:     0.4569      Z:     0.0000     Total:     1.8545

*** Psi4 exiting successfully. Buy a developer a beer!
