                               Psi4 1.3.2 release

  ==> Input File <==

--------------------------------------------------------------------------
#psi4
#
memory 32 gb

molecule  {
0 1
  O        2.8443680    -0.4002740    -0.0000640
  C        0.5303490     0.2197810    -0.0000320
  C       -0.3650130     1.2954270     0.0000030
  C        0.0536120    -1.0979650    -0.0000100
  C       -1.7392770     1.0552920     0.0000660
  C       -1.3183870    -1.3327110     0.0000480
  C       -2.2153620    -0.2579650     0.0000850
  C        2.0571294     0.4066688    -0.0000879
  H        0.0154570     2.3161290    -0.0000170
  H        0.7719840    -1.9138740    -0.0000340
  H       -2.4382530     1.8879220     0.0000950
  H       -1.6949380    -2.3526680     0.0000610
  H       -3.2864430    -0.4457910     0.0001330
  H        2.2779260     1.5498300    -0.0001490
units angstrom
no_reorient  #important for SAPT in psi4, default
symmetry c1  #important for SAPT in psi4, default
}

set PROPERTIES_ORIGIN ["COM"]
properties('MP2/aug-cc-pvtz', properties = ['dipole'])
--------------------------------------------------------------------------

    Molecular point group: c1
  Charge       = 0
  Multiplicity = 1
  Basis Set: AUG-CC-PVTZ
    Blend: AUG-CC-PVTZ
  Basis Set: (AUG-CC-PVTZ AUX)
    Blend: AUG-CC-PVTZ-JKFIT

    Orbital Energies [Eh]
    ---------------------

    Doubly Occupied:

       1A    -20.566137     2A    -11.336348     3A    -11.259547
       4A    -11.256086     5A    -11.252901     6A    -11.251380
       7A    -11.251080     8A    -11.248870     9A     -1.458609
      10A     -1.166937    11A     -1.041001    12A     -1.030345
      13A     -0.878961    14A     -0.843185    15A     -0.785564
      16A     -0.719731    17A     -0.685952    18A     -0.664608
      19A     -0.625579    20A     -0.621252    21A     -0.601566
      22A     -0.586421    23A     -0.531256    24A     -0.511139
      25A     -0.508205    26A     -0.413669    27A     -0.353265
      28A     -0.350463

  @DF-RHF Final Energy:  -343.54002699419993

   => Energetics <=

    Nuclear Repulsion Energy =            321.1394773314947315
    One-Electron Energy =               -1101.7588929410123910
    Two-Electron Energy =                 437.0793886153177255
    Total Energy =                       -343.5400269941999341
  Basis Set: (AUG-CC-PVTZ AUX)
    Blend: AUG-CC-PVTZ-RI
    Molecular point group: c1

    Geometry (in Angstrom), charge = 0, multiplicity = 1:

       Center              X                  Y                   Z               Mass
    ------------   -----------------  -----------------  -----------------  -----------------
         O            2.795861678123    -0.382447863963    -0.000063351406    15.994914619570
         C            0.481842678123     0.237607136037    -0.000031351406    12.000000000000
         C           -0.413519321877     1.313253136037     0.000003648594    12.000000000000
         C            0.005105678123    -1.080138863963    -0.000009351406    12.000000000000
         C           -1.787783321877     1.073118136037     0.000066648594    12.000000000000
         C           -1.366893321877    -1.314884863963     0.000048648594    12.000000000000
         C           -2.263868321877    -0.240138863963     0.000085648594    12.000000000000
         C            2.008623078123     0.424494936037    -0.000087251406    12.000000000000
         H           -0.033049321877     2.333955136037    -0.000016351406     1.007825032230
         H            0.723477678123    -1.896047863963    -0.000033351406     1.007825032230
         H           -2.486759321877     1.905748136037     0.000095648594     1.007825032230
         H           -1.743444321877    -2.334841863963     0.000061648594     1.007825032230
         H           -3.334949321877    -0.427964863963     0.000133648594     1.007825032230
         H            2.229419678123     1.567656136037    -0.000148351406     1.007825032230

  Basis Set: AUG-CC-PVTZ
    Blend: AUG-CC-PVTZ
  Basis Set: (AUG-CC-PVTZ AUX)
    Blend: AUG-CC-PVTZ-JKFIT
	 Reference Energy          =    -343.5400269941999341 [Eh]
	 Singles Energy            =      -0.0000000000000000 [Eh]
	 Same-Spin Energy          =      -0.3615477854393487 [Eh]
	 Opposite-Spin Energy      =      -1.1240419518100935 [Eh]
	 Correlation Energy        =      -1.4855897372494422 [Eh]
	 Total Energy              =    -345.0256167314493609 [Eh]

	 ================> DF-SCS-MP2 Energies <==================
	-----------------------------------------------------------
	 SCS Same-Spin Scale       =       0.3333333333333333 [-]
	 SCS Opposite-Spin Scale   =       1.2000000000000000 [-]
	 SCS Same-Spin Energy      =      -0.1205159284797829 [Eh]
	 SCS Opposite-Spin Energy  =      -1.3488503421721121 [Eh]
	 SCS Correlation Energy    =      -1.4693662706518951 [Eh]
	 SCS Total Energy          =    -345.0093932648518376 [Eh]
	-----------------------------------------------------------

  Dipole Moment: [D]
     X:    -2.4477      Y:     0.9247      Z:     0.0000     Total:     2.6165

*** Psi4 exiting successfully. Buy a developer a beer!
