                               Psi4 1.4a3.dev225

  ==> Input File <==

--------------------------------------------------------------------------
#psi4
#
memory 32 gb

molecule  {
0 1
  O        2.8443490    -0.4002910    -0.0000960
  C        0.5303130     0.2198450    -0.0000250
  C       -0.3650130     1.2954800     0.0000070
  C        0.0536480    -1.0979670    -0.0000020
  C       -1.7393110     1.0553020     0.0000660
  C       -1.3183250    -1.3328010     0.0000550
  C       -2.2153260    -0.2579870     0.0000890
  C        2.0012401     0.4639469    -0.0000852
  H        0.0153590     2.3162280    -0.0000130
  H        0.7720410    -1.9138490    -0.0000260
  H       -2.4383560     1.8878700     0.0000920
  H       -1.6950010    -2.3527060     0.0000730
  H       -3.2864200    -0.4458710     0.0001340
  H        2.2780260     1.5498410    -0.0001220
units angstrom
no_reorient  #important for SAPT in psi4, default
symmetry c1  #important for SAPT in psi4, default
}

set PROPERTIES_ORIGIN ["COM"]
properties('MP2/aug-cc-pvtz', properties = ['dipole'])
--------------------------------------------------------------------------

    Molecular point group: c1
  Charge       = 0
  Multiplicity = 1
  Basis Set: AUG-CC-PVTZ
    Blend: AUG-CC-PVTZ
  Basis Set: (AUG-CC-PVTZ AUX)
    Blend: AUG-CC-PVTZ-JKFIT

    Orbital Energies [Eh]
    ---------------------

    Doubly Occupied:

       1A    -20.558095     2A    -11.338448     3A    -11.263361
       4A    -11.260398     5A    -11.255978     6A    -11.254665
       7A    -11.253705     8A    -11.251745     9A     -1.395530
      10A     -1.171397    11A     -1.049169    12A     -1.033562
      13A     -0.892140    14A     -0.846545    15A     -0.791620
      16A     -0.719455    17A     -0.678125    18A     -0.654719
      19A     -0.620424    20A     -0.617332    21A     -0.604512
      22A     -0.556286    23A     -0.530790    24A     -0.510801
      25A     -0.503924    26A     -0.428509    27A     -0.356093
      28A     -0.352549

  @DF-RHF Final Energy:  -343.54959445499412

   => Energetics <=

    Nuclear Repulsion Energy =            320.5816759191807819
    One-Electron Energy =               -1100.7627854126806142
    Two-Electron Energy =                 436.6315150385057677
    Total Energy =                       -343.5495944549941214
  Basis Set: (AUG-CC-PVTZ AUX)
    Blend: AUG-CC-PVTZ-RI
    Molecular point group: c1

    Geometry (in Angstrom), charge = 0, multiplicity = 1:

       Center              X                  Y                   Z               Mass
    ------------   -----------------  -----------------  -----------------  -----------------
         O            2.802163692582    -0.388945191462    -0.000094690782    15.994914619570
         C            0.488127692582     0.231190808538    -0.000023690782    12.000000000000
         C           -0.407198307418     1.306825808538     0.000008309218    12.000000000000
         C            0.011462692582    -1.086621191462    -0.000000690782    12.000000000000
         C           -1.781496307418     1.066647808538     0.000067309218    12.000000000000
         C           -1.360510307418    -1.321455191462     0.000056309218    12.000000000000
         C           -2.257511307418    -0.246641191462     0.000090309218    12.000000000000
         C            1.959054792582     0.475292708538    -0.000083890782    12.000000000000
         H           -0.026826307418     2.327573808538    -0.000011690782     1.007825032230
         H            0.729855692582    -1.902503191462    -0.000024690782     1.007825032230
         H           -2.480541307418     1.899215808538     0.000093309218     1.007825032230
         H           -1.737186307418    -2.341360191462     0.000074309218     1.007825032230
         H           -3.328605307418    -0.434525191462     0.000135309218     1.007825032230
         H            2.235840692582     1.561186808538    -0.000120690782     1.007825032230

  Basis Set: AUG-CC-PVTZ
    Blend: AUG-CC-PVTZ
  Basis Set: (AUG-CC-PVTZ AUX)
    Blend: AUG-CC-PVTZ-JKFIT
	 Reference Energy          =    -343.5495944549941214 [Eh]
	 Singles Energy            =      -0.0000000000000000 [Eh]
	 Same-Spin Energy          =      -0.3633713053503077 [Eh]
	 Opposite-Spin Energy      =      -1.1284117765807677 [Eh]
	 Correlation Energy        =      -1.4917830819310756 [Eh]
	 Total Energy              =    -345.0413775369252107 [Eh]

	 ================> DF-SCS-MP2 Energies <==================
	-----------------------------------------------------------
	 SCS Same-Spin Scale       =       0.3333333333333333 [-]
	 SCS Opposite-Spin Scale   =       1.2000000000000000 [-]
	 SCS Same-Spin Energy      =      -0.1211237684501026 [Eh]
	 SCS Opposite-Spin Energy  =      -1.3540941318969213 [Eh]
	 SCS Correlation Energy    =      -1.4752179003470238 [Eh]
	 SCS Total Energy          =    -345.0248123553411688 [Eh]
	-----------------------------------------------------------

  Dipole Moment: [D]
     X:    -2.9069      Y:     1.1940      Z:     0.0001     Total:     3.1426

*** Psi4 exiting successfully. Buy a developer a beer!
