                               Psi4 1.3.2 release

  ==> Input File <==

--------------------------------------------------------------------------
#psi4
#
memory 32 gb

molecule  {
0 1
  O        2.8443680    -0.4002740    -0.0000640
  C        0.5303490     0.2197810    -0.0000320
  C       -0.3650130     1.2954270     0.0000030
  C        0.0536120    -1.0979650    -0.0000100
  C       -1.7392770     1.0552920     0.0000660
  C       -1.3183870    -1.3327110     0.0000480
  C       -2.2153620    -0.2579650     0.0000850
  C        1.8476353     0.6214064    -0.0000942
  H        0.0154570     2.3161290    -0.0000170
  H        0.7719840    -1.9138740    -0.0000340
  H       -2.4382530     1.8879220     0.0000950
  H       -1.6949380    -2.3526680     0.0000610
  H       -3.2864430    -0.4457910     0.0001330
  H        2.2779260     1.5498300    -0.0001490
units angstrom
no_reorient  #important for SAPT in psi4, default
symmetry c1  #important for SAPT in psi4, default
}

set PROPERTIES_ORIGIN ["COM"]
properties('MP2/aug-cc-pvtz', properties = ['dipole'])
--------------------------------------------------------------------------

    Molecular point group: c1
  Charge       = 0
  Multiplicity = 1
  Basis Set: AUG-CC-PVTZ
    Blend: AUG-CC-PVTZ
  Basis Set: (AUG-CC-PVTZ AUX)
    Blend: AUG-CC-PVTZ-JKFIT

    Orbital Energies [Eh]
    ---------------------

    Doubly Occupied:

       1A    -20.534309     2A    -11.341370     3A    -11.275145
       4A    -11.274641     5A    -11.269617     6A    -11.260565
       7A    -11.260447     8A    -11.258707     9A     -1.267122
      10A     -1.182810    11A     -1.073648    12A     -1.043071
      13A     -0.922913    14A     -0.856857    15A     -0.808854
      16A     -0.733733    17A     -0.691351    18A     -0.656229
      19A     -0.628240    20A     -0.614365    21A     -0.558569
      22A     -0.546129    23A     -0.533533    24A     -0.505452
      25A     -0.455268    26A     -0.427388    27A     -0.363707
      28A     -0.350648

  @DF-RHF Final Energy:  -343.47602872746904

   => Energetics <=

    Nuclear Repulsion Energy =            319.9054284775372707
    One-Electron Energy =               -1099.3735368898792331
    Two-Electron Energy =                 435.9920796848729196
    Total Energy =                       -343.4760287274690427
  Basis Set: (AUG-CC-PVTZ AUX)
    Blend: AUG-CC-PVTZ-RI
    Molecular point group: c1

    Geometry (in Angstrom), charge = 0, multiplicity = 1:

       Center              X                  Y                   Z               Mass
    ------------   -----------------  -----------------  -----------------  -----------------
         O            2.819568628246    -0.406748183507    -0.000062638480    15.994914619570
         C            0.505549628246     0.213306816493    -0.000030638480    12.000000000000
         C           -0.389812371754     1.288952816493     0.000004361520    12.000000000000
         C            0.028812628246    -1.104439183507    -0.000008638480    12.000000000000
         C           -1.764076371754     1.048817816493     0.000067361520    12.000000000000
         C           -1.343186371754    -1.339185183507     0.000049361520    12.000000000000
         C           -2.240161371754    -0.264439183507     0.000086361520    12.000000000000
         C            1.822835928246     0.614932216493    -0.000092838480    12.000000000000
         H           -0.009342371754     2.309654816493    -0.000015638480     1.007825032230
         H            0.747184628246    -1.920348183507    -0.000032638480     1.007825032230
         H           -2.463052371754     1.881447816493     0.000096361520     1.007825032230
         H           -1.719737371754    -2.359142183507     0.000062361520     1.007825032230
         H           -3.311242371754    -0.452265183507     0.000134361520     1.007825032230
         H            2.253126628246     1.543355816493    -0.000147638480     1.007825032230

  Basis Set: AUG-CC-PVTZ
    Blend: AUG-CC-PVTZ
  Basis Set: (AUG-CC-PVTZ AUX)
    Blend: AUG-CC-PVTZ-JKFIT
	 Reference Energy          =    -343.4760287274690427 [Eh]
	 Singles Energy            =      -0.0000000000000000 [Eh]
	 Same-Spin Energy          =      -0.3708231273836969 [Eh]
	 Opposite-Spin Energy      =      -1.1447015555265934 [Eh]
	 Correlation Energy        =      -1.5155246829102902 [Eh]
	 Total Energy              =    -344.9915534103793107 [Eh]

	 ================> DF-SCS-MP2 Energies <==================
	-----------------------------------------------------------
	 SCS Same-Spin Scale       =       0.3333333333333333 [-]
	 SCS Opposite-Spin Scale   =       1.2000000000000000 [-]
	 SCS Same-Spin Energy      =      -0.1236077091278990 [Eh]
	 SCS Opposite-Spin Energy  =      -1.3736418666319119 [Eh]
	 SCS Correlation Energy    =      -1.4972495757598110 [Eh]
	 SCS Total Energy          =    -344.9732783032288808 [Eh]
	-----------------------------------------------------------

  Dipole Moment: [D]
     X:    -3.7111      Y:     1.4945      Z:     0.0000     Total:     4.0008

*** Psi4 exiting successfully. Buy a developer a beer!
