                               Psi4 1.3.2 release

  ==> Input File <==

--------------------------------------------------------------------------
#psi4
#
memory 32 gb

molecule  {
0 1
  O        2.8443680    -0.4002740    -0.0000640
  C        0.5158683     0.3220422    -0.0000363
  C       -0.3650130     1.2954270     0.0000030
  C        0.0536120    -1.0979650    -0.0000100
  C       -1.7392770     1.0552920     0.0000660
  C       -1.3183870    -1.3327110     0.0000480
  C       -2.2153620    -0.2579650     0.0000850
  C        1.9872980     0.4782480    -0.0000900
  H        0.0154570     2.3161290    -0.0000170
  H        0.7719840    -1.9138740    -0.0000340
  H       -2.4382530     1.8879220     0.0000950
  H       -1.6949380    -2.3526680     0.0000610
  H       -3.2864430    -0.4457910     0.0001330
  H        2.2779260     1.5498300    -0.0001490
units angstrom
no_reorient  #important for SAPT in psi4, default
symmetry c1  #important for SAPT in psi4, default
}

set PROPERTIES_ORIGIN ["COM"]
properties('MP2/aug-cc-pvtz', properties = ['dipole'])
--------------------------------------------------------------------------

    Molecular point group: c1
  Charge       = 0
  Multiplicity = 1
  Basis Set: AUG-CC-PVTZ
    Blend: AUG-CC-PVTZ
  Basis Set: (AUG-CC-PVTZ AUX)
    Blend: AUG-CC-PVTZ-JKFIT

    Orbital Energies [Eh]
    ---------------------

    Doubly Occupied:

       1A    -20.559434     2A    -11.340963     3A    -11.264373
       4A    -11.262595     5A    -11.257462     6A    -11.255030
       7A    -11.254055     8A    -11.251477     9A     -1.382252
      10A     -1.175522    11A     -1.060995    12A     -1.027565
      13A     -0.897527    14A     -0.845998    15A     -0.796473
      16A     -0.718631    17A     -0.680894    18A     -0.652782
      19A     -0.625635    20A     -0.610009    21A     -0.602660
      22A     -0.553758    23A     -0.532831    24A     -0.506979
      25A     -0.501986    26A     -0.427870    27A     -0.371092
      28A     -0.342827

  @DF-RHF Final Energy:  -343.53417576666925

   => Energetics <=

    Nuclear Repulsion Energy =            320.3548183011075139
    One-Electron Energy =               -1100.2586367929584412
    Two-Electron Energy =                 436.3696427251816203
    Total Energy =                       -343.5341757666692502
  Basis Set: (AUG-CC-PVTZ AUX)
    Blend: AUG-CC-PVTZ-RI
    Molecular point group: c1

    Geometry (in Angstrom), charge = 0, multiplicity = 1:

       Center              X                  Y                   Z               Mass
    ------------   -----------------  -----------------  -----------------  -----------------
         O            2.805402675934    -0.402120139660    -0.000062627164    15.994914619570
         C            0.476902975934     0.320196060340    -0.000034927164    12.000000000000
         C           -0.403978324066     1.293580860340     0.000004372836    12.000000000000
         C            0.014646675934    -1.099811139660    -0.000008627164    12.000000000000
         C           -1.778242324066     1.053445860340     0.000067372836    12.000000000000
         C           -1.357352324066    -1.334557139660     0.000049372836    12.000000000000
         C           -2.254327324066    -0.259811139660     0.000086372836    12.000000000000
         C            1.948332675934     0.476401860340    -0.000088627164    12.000000000000
         H           -0.023508324066     2.314282860340    -0.000015627164     1.007825032230
         H            0.733018675934    -1.915720139660    -0.000032627164     1.007825032230
         H           -2.477218324066     1.886075860340     0.000096372836     1.007825032230
         H           -1.733903324066    -2.354514139660     0.000062372836     1.007825032230
         H           -3.325408324066    -0.447637139660     0.000134372836     1.007825032230
         H            2.238960675934     1.547983860340    -0.000147627164     1.007825032230

  Basis Set: AUG-CC-PVTZ
    Blend: AUG-CC-PVTZ
  Basis Set: (AUG-CC-PVTZ AUX)
    Blend: AUG-CC-PVTZ-JKFIT
	 Reference Energy          =    -343.5341757666692502 [Eh]
	 Singles Energy            =      -0.0000000000000000 [Eh]
	 Same-Spin Energy          =      -0.3635556339695645 [Eh]
	 Opposite-Spin Energy      =      -1.1301997907571089 [Eh]
	 Correlation Energy        =      -1.4937554247266733 [Eh]
	 Total Energy              =    -345.0279311913959077 [Eh]

	 ================> DF-SCS-MP2 Energies <==================
	-----------------------------------------------------------
	 SCS Same-Spin Scale       =       0.3333333333333333 [-]
	 SCS Opposite-Spin Scale   =       1.2000000000000000 [-]
	 SCS Same-Spin Energy      =      -0.1211852113231882 [Eh]
	 SCS Opposite-Spin Energy  =      -1.3562397489085305 [Eh]
	 SCS Correlation Energy    =      -1.4774249602317187 [Eh]
	 SCS Total Energy          =    -345.0116007269009515 [Eh]
	-----------------------------------------------------------

  Dipole Moment: [D]
     X:    -3.0439      Y:     1.1998      Z:     0.0000     Total:     3.2718

*** Psi4 exiting successfully. Buy a developer a beer!
