                               Psi4 1.3.2 release

  ==> Input File <==

--------------------------------------------------------------------------
#psi4
#
memory 32 gb

molecule  {
0 1
  O        2.8443680    -0.4002740    -0.0000640
  C        0.5402569     0.1690917    -0.0000300
  C       -0.3650130     1.2954270     0.0000030
  C        0.0536120    -1.0979650    -0.0000100
  C       -1.7392770     1.0552920     0.0000660
  C       -1.3183870    -1.3327110     0.0000480
  C       -2.2153620    -0.2579650     0.0000850
  C        1.9872980     0.4782480    -0.0000900
  H        0.0154570     2.3161290    -0.0000170
  H        0.7719840    -1.9138740    -0.0000340
  H       -2.4382530     1.8879220     0.0000950
  H       -1.6949380    -2.3526680     0.0000610
  H       -3.2864430    -0.4457910     0.0001330
  H        2.2779260     1.5498300    -0.0001490
units angstrom
no_reorient  #important for SAPT in psi4, default
symmetry c1  #important for SAPT in psi4, default
}

set PROPERTIES_ORIGIN ["COM"]
properties('MP2/aug-cc-pvtz', properties = ['dipole'])
--------------------------------------------------------------------------

    Molecular point group: c1
  Charge       = 0
  Multiplicity = 1
  Basis Set: AUG-CC-PVTZ
    Blend: AUG-CC-PVTZ
  Basis Set: (AUG-CC-PVTZ AUX)
    Blend: AUG-CC-PVTZ-JKFIT

    Orbital Energies [Eh]
    ---------------------

    Doubly Occupied:

       1A    -20.555318     2A    -11.338674     3A    -11.267013
       4A    -11.260869     5A    -11.255163     6A    -11.254114
       7A    -11.253094     8A    -11.251369     9A     -1.381307
      10A     -1.172026    11A     -1.050828    12A     -1.033905
      13A     -0.894569    14A     -0.849662    15A     -0.790168
      16A     -0.720921    17A     -0.677609    18A     -0.653215
      19A     -0.624747    20A     -0.610258    21A     -0.603687
      22A     -0.551873    23A     -0.532147    24A     -0.507846
      25A     -0.499822    26A     -0.431512    27A     -0.358859
      28A     -0.350217

  @DF-RHF Final Energy:  -343.54454042926386

   => Energetics <=

    Nuclear Repulsion Energy =            320.5642622580688794
    One-Electron Energy =               -1100.7560206537643808
    Two-Electron Energy =                 436.6472179664316400
    Total Energy =                       -343.5445404292638614
  Basis Set: (AUG-CC-PVTZ AUX)
    Blend: AUG-CC-PVTZ-RI
    Molecular point group: c1

    Geometry (in Angstrom), charge = 0, multiplicity = 1:

       Center              X                  Y                   Z               Mass
    ------------   -----------------  -----------------  -----------------  -----------------
         O            2.802642792368    -0.384811824654    -0.000063340090    15.994914619570
         C            0.498531692368     0.184553875346    -0.000029340090    12.000000000000
         C           -0.406738207632     1.310889175346     0.000003659910    12.000000000000
         C            0.011886792368    -1.082502824654    -0.000009340090    12.000000000000
         C           -1.781002207632     1.070754175346     0.000066659910    12.000000000000
         C           -1.360112207632    -1.317248824654     0.000048659910    12.000000000000
         C           -2.257087207632    -0.242502824654     0.000085659910    12.000000000000
         C            1.945572792368     0.493710175346    -0.000089340090    12.000000000000
         H           -0.026268207632     2.331591175346    -0.000016340090     1.007825032230
         H            0.730258792368    -1.898411824654    -0.000033340090     1.007825032230
         H           -2.479978207632     1.903384175346     0.000095659910     1.007825032230
         H           -1.736663207632    -2.337205824654     0.000061659910     1.007825032230
         H           -3.328168207632    -0.430328824654     0.000133659910     1.007825032230
         H            2.236200792368     1.565292175346    -0.000148340090     1.007825032230

  Basis Set: AUG-CC-PVTZ
    Blend: AUG-CC-PVTZ
  Basis Set: (AUG-CC-PVTZ AUX)
    Blend: AUG-CC-PVTZ-JKFIT
	 Reference Energy          =    -343.5445404292638614 [Eh]
	 Singles Energy            =      -0.0000000000000000 [Eh]
	 Same-Spin Energy          =      -0.3639346073644988 [Eh]
	 Opposite-Spin Energy      =      -1.1298167634021197 [Eh]
	 Correlation Energy        =      -1.4937513707666183 [Eh]
	 Total Energy              =    -345.0382918000304926 [Eh]

	 ================> DF-SCS-MP2 Energies <==================
	-----------------------------------------------------------
	 SCS Same-Spin Scale       =       0.3333333333333333 [-]
	 SCS Opposite-Spin Scale   =       1.2000000000000000 [-]
	 SCS Same-Spin Energy      =      -0.1213115357881663 [Eh]
	 SCS Opposite-Spin Energy  =      -1.3557801160825436 [Eh]
	 SCS Correlation Energy    =      -1.4770916518707098 [Eh]
	 SCS Total Energy          =    -345.0216320811345554 [Eh]
	-----------------------------------------------------------

  Dipole Moment: [D]
     X:    -2.9796      Y:     1.2712      Z:     0.0000     Total:     3.2395

*** Psi4 exiting successfully. Buy a developer a beer!
