                               Psi4 1.4a3.dev225

  ==> Input File <==

--------------------------------------------------------------------------
#psi4
#
memory 32 gb

molecule  {
0 1
  O        2.8443490    -0.4002910    -0.0000960
  C        0.5303130     0.2198450    -0.0000250
  C       -0.3650130     1.2954800     0.0000070
  C        0.0536480    -1.0979670    -0.0000020
  C       -1.7393110     1.0553020     0.0000660
  C       -1.3183250    -1.3328010     0.0000550
  C       -2.2153260    -0.2579870     0.0000890
  C        1.9872740     0.4782630    -0.0000850
  H        0.0153590     2.3162280    -0.0000130
  H        0.7720410    -1.9138490    -0.0000260
  H       -2.4383560     1.8878700     0.0000920
  H       -1.6950010    -2.3527060     0.0000730
  H       -3.2864200    -0.4458710     0.0001340
  H        2.2911191     1.5980963    -0.0001237
units angstrom
no_reorient  #important for SAPT in psi4, default
symmetry c1  #important for SAPT in psi4, default
}

set PROPERTIES_ORIGIN ["COM"]
properties('MP2/aug-cc-pvtz', properties = ['dipole'])
--------------------------------------------------------------------------

    Molecular point group: c1
  Charge       = 0
  Multiplicity = 1
  Basis Set: AUG-CC-PVTZ
    Blend: AUG-CC-PVTZ
  Basis Set: (AUG-CC-PVTZ AUX)
    Blend: AUG-CC-PVTZ-JKFIT

    Orbital Energies [Eh]
    ---------------------

    Doubly Occupied:

       1A    -20.557505     2A    -11.344625     3A    -11.264528
       4A    -11.261856     5A    -11.257627     6A    -11.256139
       7A    -11.254452     8A    -11.252774     9A     -1.381967
      10A     -1.172849    11A     -1.051321    12A     -1.034674
      13A     -0.892689    14A     -0.847475    15A     -0.788999
      16A     -0.717572    17A     -0.675745    18A     -0.653566
      19A     -0.620227    20A     -0.612322    21A     -0.604938
      22A     -0.552623    23A     -0.530959    24A     -0.511672
      25A     -0.500952    26A     -0.429017    27A     -0.357005
      28A     -0.353398

  @DF-RHF Final Energy:  -343.54550379504769

   => Energetics <=

    Nuclear Repulsion Energy =            320.2450358940301385
    One-Electron Energy =               -1100.1021291173119607
    Two-Electron Energy =                 436.3115894282341287
    Total Energy =                       -343.5455037950476935
  Basis Set: (AUG-CC-PVTZ AUX)
    Blend: AUG-CC-PVTZ-RI
    Molecular point group: c1

    Geometry (in Angstrom), charge = 0, multiplicity = 1:

       Center              X                  Y                   Z               Mass
    ------------   -----------------  -----------------  -----------------  -----------------
         O            2.803619699097    -0.391023861991    -0.000094697257    15.994914619570
         C            0.489583699097     0.229112138009    -0.000023697257    12.000000000000
         C           -0.405742300903     1.304747138009     0.000008302743    12.000000000000
         C            0.012918699097    -1.088699861991    -0.000000697257    12.000000000000
         C           -1.780040300903     1.064569138009     0.000067302743    12.000000000000
         C           -1.359054300903    -1.323533861991     0.000056302743    12.000000000000
         C           -2.256055300903    -0.248719861991     0.000090302743    12.000000000000
         C            1.946544699097     0.487530138009    -0.000083697257    12.000000000000
         H           -0.025370300903     2.325495138009    -0.000011697257     1.007825032230
         H            0.731311699097    -1.904581861991    -0.000024697257     1.007825032230
         H           -2.479085300903     1.897137138009     0.000093302743     1.007825032230
         H           -1.735730300903    -2.343438861991     0.000074302743     1.007825032230
         H           -3.327149300903    -0.436603861991     0.000135302743     1.007825032230
         H            2.250389799097     1.607363438009    -0.000122397257     1.007825032230

  Basis Set: AUG-CC-PVTZ
    Blend: AUG-CC-PVTZ
  Basis Set: (AUG-CC-PVTZ AUX)
    Blend: AUG-CC-PVTZ-JKFIT
	 Reference Energy          =    -343.5455037950476935 [Eh]
	 Singles Energy            =      -0.0000000000000000 [Eh]
	 Same-Spin Energy          =      -0.3641447844952369 [Eh]
	 Opposite-Spin Energy      =      -1.1301950691453180 [Eh]
	 Correlation Energy        =      -1.4943398536405548 [Eh]
	 Total Energy              =    -345.0398436486882474 [Eh]

	 ================> DF-SCS-MP2 Energies <==================
	-----------------------------------------------------------
	 SCS Same-Spin Scale       =       0.3333333333333333 [-]
	 SCS Opposite-Spin Scale   =       1.2000000000000000 [-]
	 SCS Same-Spin Energy      =      -0.1213815948317456 [Eh]
	 SCS Opposite-Spin Energy  =      -1.3562340829743815 [Eh]
	 SCS Correlation Energy    =      -1.4776156778061271 [Eh]
	 SCS Total Energy          =    -345.0231194728538071 [Eh]
	-----------------------------------------------------------

  Dipole Moment: [D]
     X:    -3.0344      Y:     1.1881      Z:     0.0001     Total:     3.2588

*** Psi4 exiting successfully. Buy a developer a beer!
