                               Psi4 1.3.2 release

  ==> Input File <==

--------------------------------------------------------------------------
#psi4
#
memory 32 gb

molecule  {
0 1
  O        2.8443680    -0.4002740    -0.0000640
  C        0.5303490     0.2197810    -0.0000320
  C       -0.3650130     1.2954270     0.0000030
  C        0.0536120    -1.0979650    -0.0000100
  C       -1.7392770     1.0552920     0.0000660
  C       -1.3183870    -1.3327110     0.0000480
  C       -2.2153620    -0.2579650     0.0000850
  C        2.0857606     0.4957156    -0.0000939
  H        0.0154570     2.3161290    -0.0000170
  H        0.7719840    -1.9138740    -0.0000340
  H       -2.4382530     1.8879220     0.0000950
  H       -1.6949380    -2.3526680     0.0000610
  H       -3.2864430    -0.4457910     0.0001330
  H        2.2779260     1.5498300    -0.0001490
units angstrom
no_reorient  #important for SAPT in psi4, default
symmetry c1  #important for SAPT in psi4, default
}

set PROPERTIES_ORIGIN ["COM"]
properties('MP2/aug-cc-pvtz', properties = ['dipole'])
--------------------------------------------------------------------------

    Molecular point group: c1
  Charge       = 0
  Multiplicity = 1
  Basis Set: AUG-CC-PVTZ
    Blend: AUG-CC-PVTZ
  Basis Set: (AUG-CC-PVTZ AUX)
    Blend: AUG-CC-PVTZ-JKFIT

    Orbital Energies [Eh]
    ---------------------

    Doubly Occupied:

       1A    -20.566465     2A    -11.340656     3A    -11.256450
       4A    -11.253884     5A    -11.253586     6A    -11.249568
       7A    -11.249470     8A    -11.247757     9A     -1.424319
      10A     -1.164051    11A     -1.036477    12A     -1.027980
      13A     -0.884357    14A     -0.839876    15A     -0.797838
      16A     -0.718343    17A     -0.683354    18A     -0.654010
      19A     -0.624582    20A     -0.618504    21A     -0.600016
      22A     -0.564747    23A     -0.529474    24A     -0.506924
      25A     -0.505976    26A     -0.423337    27A     -0.351121
      28A     -0.347660

  @DF-RHF Final Energy:  -343.54367536231121

   => Energetics <=

    Nuclear Repulsion Energy =            319.7461600048080186
    One-Electron Energy =               -1099.1381096209090629
    Two-Electron Energy =                 435.8482742537898957
    Total Energy =                       -343.5436753623112054
  Basis Set: (AUG-CC-PVTZ AUX)
    Blend: AUG-CC-PVTZ-RI
    Molecular point group: c1

    Geometry (in Angstrom), charge = 0, multiplicity = 1:

       Center              X                  Y                   Z               Mass
    ------------   -----------------  -----------------  -----------------  -----------------
         O            2.792621689836    -0.392524653935    -0.000062672429    15.994914619570
         C            0.478602689836     0.227530346065    -0.000030672429    12.000000000000
         C           -0.416759310164     1.303176346065     0.000004327571    12.000000000000
         C            0.001865689836    -1.090215653935    -0.000008672429    12.000000000000
         C           -1.791023310164     1.063041346065     0.000067327571    12.000000000000
         C           -1.370133310164    -1.324961653935     0.000049327571    12.000000000000
         C           -2.267108310164    -0.250215653935     0.000086327571    12.000000000000
         C            2.034014289836     0.503464946065    -0.000092572429    12.000000000000
         H           -0.036289310164     2.323878346065    -0.000015672429     1.007825032230
         H            0.720237689836    -1.906124653935    -0.000032672429     1.007825032230
         H           -2.489999310164     1.895671346065     0.000096327571     1.007825032230
         H           -1.746684310164    -2.344918653935     0.000062327571     1.007825032230
         H           -3.338189310164    -0.438041653935     0.000134327571     1.007825032230
         H            2.226179689836     1.557579346065    -0.000147672429     1.007825032230

  Basis Set: AUG-CC-PVTZ
    Blend: AUG-CC-PVTZ
  Basis Set: (AUG-CC-PVTZ AUX)
    Blend: AUG-CC-PVTZ-JKFIT
	 Reference Energy          =    -343.5436753623112054 [Eh]
	 Singles Energy            =      -0.0000000000000000 [Eh]
	 Same-Spin Energy          =      -0.3621910536937199 [Eh]
	 Opposite-Spin Energy      =      -1.1263380566036396 [Eh]
	 Correlation Energy        =      -1.4885291102973595 [Eh]
	 Total Energy              =    -345.0322044726085551 [Eh]

	 ================> DF-SCS-MP2 Energies <==================
	-----------------------------------------------------------
	 SCS Same-Spin Scale       =       0.3333333333333333 [-]
	 SCS Opposite-Spin Scale   =       1.2000000000000000 [-]
	 SCS Same-Spin Energy      =      -0.1207303512312400 [Eh]
	 SCS Opposite-Spin Energy  =      -1.3516056679243675 [Eh]
	 SCS Correlation Energy    =      -1.4723360191556074 [Eh]
	 SCS Total Energy          =    -345.0160113814667966 [Eh]
	-----------------------------------------------------------

  Dipole Moment: [D]
     X:    -2.2243      Y:     1.3122      Z:    -0.0000     Total:     2.5825

*** Psi4 exiting successfully. Buy a developer a beer!
