                               Psi4 1.3.2 release

  ==> Input File <==

--------------------------------------------------------------------------
#psi4
#
memory 32 gb

molecule  {
0 1
  O        2.8595698    -0.3851823    -0.0000651
  C        0.5303490     0.2197810    -0.0000320
  C       -0.3650130     1.2954270     0.0000030
  C        0.0536120    -1.0979650    -0.0000100
  C       -1.7392770     1.0552920     0.0000660
  C       -1.3183870    -1.3327110     0.0000480
  C       -2.2153620    -0.2579650     0.0000850
  C        1.9872980     0.4782480    -0.0000900
  H        0.0154570     2.3161290    -0.0000170
  H        0.7719840    -1.9138740    -0.0000340
  H       -2.4382530     1.8879220     0.0000950
  H       -1.6949380    -2.3526680     0.0000610
  H       -3.2864430    -0.4457910     0.0001330
  H        2.2779260     1.5498300    -0.0001490
units angstrom
no_reorient  #important for SAPT in psi4, default
symmetry c1  #important for SAPT in psi4, default
}

set PROPERTIES_ORIGIN ["COM"]
properties('MP2/aug-cc-pvtz', properties = ['dipole'])
--------------------------------------------------------------------------

    Molecular point group: c1
  Charge       = 0
  Multiplicity = 1
  Basis Set: AUG-CC-PVTZ
    Blend: AUG-CC-PVTZ
  Basis Set: (AUG-CC-PVTZ AUX)
    Blend: AUG-CC-PVTZ-JKFIT

    Orbital Energies [Eh]
    ---------------------

    Doubly Occupied:

       1A    -20.556102     2A    -11.338667     3A    -11.264805
       4A    -11.261957     5A    -11.257575     6A    -11.255919
       7A    -11.254659     8A    -11.252851     9A     -1.380828
      10A     -1.173031    11A     -1.051811    12A     -1.034818
      13A     -0.895450    14A     -0.847817    15A     -0.793191
      16A     -0.720117    17A     -0.678013    18A     -0.653509
      19A     -0.620493    20A     -0.613645    21A     -0.605559
      22A     -0.551881    23A     -0.531208    24A     -0.511837
      25A     -0.500574    26A     -0.430430    27A     -0.357133
      28A     -0.353493

  @DF-RHF Final Energy:  -343.54800555067231

   => Energetics <=

    Nuclear Repulsion Energy =            320.3001486867852350
    One-Electron Energy =               -1100.2015705134865584
    Two-Electron Energy =                 436.3534162760290656
    Total Energy =                       -343.5480055506723147
  Basis Set: (AUG-CC-PVTZ AUX)
    Blend: AUG-CC-PVTZ-RI
    Molecular point group: c1

    Geometry (in Angstrom), charge = 0, multiplicity = 1:

       Center              X                  Y                   Z               Mass
    ------------   -----------------  -----------------  -----------------  -----------------
         O            2.816672822206    -0.377732639847    -0.000064047845    15.994914619570
         C            0.487452022206     0.227230660153    -0.000030947845    12.000000000000
         C           -0.407909977794     1.302876660153     0.000004052155    12.000000000000
         C            0.010715022206    -1.090515339847    -0.000008947845    12.000000000000
         C           -1.782173977794     1.062741660153     0.000067052155    12.000000000000
         C           -1.361283977794    -1.325261339847     0.000049052155    12.000000000000
         C           -2.258258977794    -0.250515339847     0.000086052155    12.000000000000
         C            1.944401022206     0.485697660153    -0.000088947845    12.000000000000
         H           -0.027439977794     2.323578660153    -0.000015947845     1.007825032230
         H            0.729087022206    -1.906424339847    -0.000032947845     1.007825032230
         H           -2.481149977794     1.895371660153     0.000096052155     1.007825032230
         H           -1.737834977794    -2.345218339847     0.000062052155     1.007825032230
         H           -3.329339977794    -0.438341339847     0.000134052155     1.007825032230
         H            2.235029022206     1.557279660153    -0.000147947845     1.007825032230

  Basis Set: AUG-CC-PVTZ
    Blend: AUG-CC-PVTZ
  Basis Set: (AUG-CC-PVTZ AUX)
    Blend: AUG-CC-PVTZ-JKFIT
	 Reference Energy          =    -343.5480055506723147 [Eh]
	 Singles Energy            =      -0.0000000000000000 [Eh]
	 Same-Spin Energy          =      -0.3638724264823466 [Eh]
	 Opposite-Spin Energy      =      -1.1296358987765860 [Eh]
	 Correlation Energy        =      -1.4935083252589325 [Eh]
	 Total Energy              =    -345.0415138759312299 [Eh]

	 ================> DF-SCS-MP2 Energies <==================
	-----------------------------------------------------------
	 SCS Same-Spin Scale       =       0.3333333333333333 [-]
	 SCS Opposite-Spin Scale   =       1.2000000000000000 [-]
	 SCS Same-Spin Energy      =      -0.1212908088274489 [Eh]
	 SCS Opposite-Spin Energy  =      -1.3555630785319031 [Eh]
	 SCS Correlation Energy    =      -1.4768538873593520 [Eh]
	 SCS Total Energy          =    -345.0248594380316831 [Eh]
	-----------------------------------------------------------

  Dipole Moment: [D]
     X:    -3.0627      Y:     1.2172      Z:     0.0000     Total:     3.2957

*** Psi4 exiting successfully. Buy a developer a beer!
