                               Psi4 1.3.2 release

  ==> Input File <==

--------------------------------------------------------------------------
#psi4
#
memory 32 gb

molecule  {
0 1
  O        2.8443680    -0.4002740    -0.0000640
  C        0.5303490     0.2197810    -0.0000320
  C       -0.3650130     1.2954270     0.0000030
  C        0.0536120    -1.0979650    -0.0000100
  C       -1.7392770     1.0552920     0.0000660
  C       -1.3183870    -1.3327110     0.0000480
  C       -2.2153620    -0.2579650     0.0000850
  C        1.9872980     0.4782480    -0.0000900
  H        0.0154570     2.3161290    -0.0000170
  H        0.7719840    -1.9138740    -0.0000340
  H       -2.4382530     1.8879220     0.0000950
  H       -1.6949380    -2.3526680     0.0000610
  H       -3.2864430    -0.4457910     0.0001330
  H        2.3302775     1.7428567    -0.0001596
units angstrom
no_reorient  #important for SAPT in psi4, default
symmetry c1  #important for SAPT in psi4, default
}

set PROPERTIES_ORIGIN ["COM"]
properties('MP2/aug-cc-pvtz', properties = ['dipole'])
--------------------------------------------------------------------------

    Molecular point group: c1
  Charge       = 0
  Multiplicity = 1
  Basis Set: AUG-CC-PVTZ
    Blend: AUG-CC-PVTZ
  Basis Set: (AUG-CC-PVTZ AUX)
    Blend: AUG-CC-PVTZ-JKFIT

    Orbital Energies [Eh]
    ---------------------

    Doubly Occupied:

       1A    -20.562539     2A    -11.360437     3A    -11.265346
       4A    -11.263088     5A    -11.260210     6A    -11.258999
       7A    -11.255111     8A    -11.253880     9A     -1.385431
      10A     -1.174127    11A     -1.052071    12A     -1.035803
      13A     -0.888635    14A     -0.848071    15A     -0.781044
      16A     -0.712621    17A     -0.668382    18A     -0.655499
      19A     -0.621246    20A     -0.609467    21A     -0.600372
      22A     -0.555321    23A     -0.531884    24A     -0.512757
      25A     -0.503226    26A     -0.421724    27A     -0.358123
      28A     -0.354944

  @DF-RHF Final Energy:  -343.52745618846586

   => Energetics <=

    Nuclear Repulsion Energy =            319.6303085816935550
    One-Electron Energy =               -1098.8148139890697621
    Two-Electron Energy =                 435.6570492189104016
    Total Energy =                       -343.5274561884658624
  Basis Set: (AUG-CC-PVTZ AUX)
    Blend: AUG-CC-PVTZ-RI
    Molecular point group: c1

    Geometry (in Angstrom), charge = 0, multiplicity = 1:

       Center              X                  Y                   Z               Mass
    ------------   -----------------  -----------------  -----------------  -----------------
         O            2.803266448392    -0.392382501967    -0.000063013021    15.994914619570
         C            0.489247448392     0.227672498033    -0.000031013021    12.000000000000
         C           -0.406114551608     1.303318498033     0.000003986979    12.000000000000
         C            0.012510448392    -1.090073501967    -0.000009013021    12.000000000000
         C           -1.780378551608     1.063183498033     0.000066986979    12.000000000000
         C           -1.359488551608    -1.324819501967     0.000048986979    12.000000000000
         C           -2.256463551608    -0.250073501967     0.000085986979    12.000000000000
         C            1.946196448392     0.486139498033    -0.000089013021    12.000000000000
         H           -0.025644551608     2.324020498033    -0.000016013021     1.007825032230
         H            0.730882448392    -1.905982501967    -0.000033013021     1.007825032230
         H           -2.479354551608     1.895813498033     0.000095986979     1.007825032230
         H           -1.736039551608    -2.344776501967     0.000061986979     1.007825032230
         H           -3.327544551608    -0.437899501967     0.000133986979     1.007825032230
         H            2.289175948392     1.750748198033    -0.000158613021     1.007825032230

  Basis Set: AUG-CC-PVTZ
    Blend: AUG-CC-PVTZ
  Basis Set: (AUG-CC-PVTZ AUX)
    Blend: AUG-CC-PVTZ-JKFIT
	 Reference Energy          =    -343.5274561884658624 [Eh]
	 Singles Energy            =      -0.0000000000000000 [Eh]
	 Same-Spin Energy          =      -0.3650241755993075 [Eh]
	 Opposite-Spin Energy      =      -1.1324345751072529 [Eh]
	 Correlation Energy        =      -1.4974587507065604 [Eh]
	 Total Energy              =    -345.0249149391724472 [Eh]

	 ================> DF-SCS-MP2 Energies <==================
	-----------------------------------------------------------
	 SCS Same-Spin Scale       =       0.3333333333333333 [-]
	 SCS Opposite-Spin Scale   =       1.2000000000000000 [-]
	 SCS Same-Spin Energy      =      -0.1216747251997692 [Eh]
	 SCS Opposite-Spin Energy  =      -1.3589214901287034 [Eh]
	 SCS Correlation Energy    =      -1.4805962153284726 [Eh]
	 SCS Total Energy          =    -345.0080524037943519 [Eh]
	-----------------------------------------------------------

  Dipole Moment: [D]
     X:    -3.1268      Y:     0.9625      Z:     0.0000     Total:     3.2716

*** Psi4 exiting successfully. Buy a developer a beer!
