                               Psi4 1.3.2 release

  ==> Input File <==

--------------------------------------------------------------------------
#psi4
#
memory 32 gb

molecule  {
0 1
  O        2.8443680    -0.4002740    -0.0000640
  C        0.5303490     0.2197810    -0.0000320
  C       -0.3650130     1.2954270     0.0000030
  C        0.0536120    -1.0979650    -0.0000100
  C       -1.7392770     1.0552920     0.0000660
  C       -1.3183870    -1.3327110     0.0000480
  C       -2.2153620    -0.2579650     0.0000850
  C        1.8888354     0.4607804    -0.0000861
  H        0.0154570     2.3161290    -0.0000170
  H        0.7719840    -1.9138740    -0.0000340
  H       -2.4382530     1.8879220     0.0000950
  H       -1.6949380    -2.3526680     0.0000610
  H       -3.2864430    -0.4457910     0.0001330
  H        2.2779260     1.5498300    -0.0001490
units angstrom
no_reorient  #important for SAPT in psi4, default
symmetry c1  #important for SAPT in psi4, default
}

set PROPERTIES_ORIGIN ["COM"]
properties('MP2/aug-cc-pvtz', properties = ['dipole'])
--------------------------------------------------------------------------

    Molecular point group: c1
  Charge       = 0
  Multiplicity = 1
  Basis Set: AUG-CC-PVTZ
    Blend: AUG-CC-PVTZ
  Basis Set: (AUG-CC-PVTZ AUX)
    Blend: AUG-CC-PVTZ-JKFIT

    Orbital Energies [Eh]
    ---------------------

    Doubly Occupied:

       1A    -20.544479     2A    -11.336896     3A    -11.272954
       4A    -11.270775     5A    -11.264957     6A    -11.259136
       7A    -11.257254     8A    -11.252690     9A     -1.338019
      10A     -1.182135    11A     -1.069404    12A     -1.041069
      13A     -0.910661    14A     -0.855223    15A     -0.790108
      16A     -0.719649    17A     -0.681370    18A     -0.655218
      19A     -0.623190    20A     -0.611743    21A     -0.588130
      22A     -0.551839    23A     -0.535094    24A     -0.515916
      25A     -0.485841    26A     -0.426462    27A     -0.361819
      28A     -0.357156

  @DF-RHF Final Energy:  -343.52745574687589

   => Energetics <=

    Nuclear Repulsion Energy =            321.3572609373819091
    One-Electron Energy =               -1102.2510646922430624
    Two-Electron Energy =                 437.3663480079853230
    Total Energy =                       -343.5274557468758871
  Basis Set: (AUG-CC-PVTZ AUX)
    Blend: AUG-CC-PVTZ-RI
    Molecular point group: c1

    Geometry (in Angstrom), charge = 0, multiplicity = 1:

       Center              X                  Y                   Z               Mass
    ------------   -----------------  -----------------  -----------------  -----------------
         O            2.814906307370    -0.388571287020    -0.000063555099    15.994914619570
         C            0.500887307370     0.231483712980    -0.000031555099    12.000000000000
         C           -0.394474692630     1.307129712980     0.000003444901    12.000000000000
         C            0.024150307370    -1.086262287020    -0.000009555099    12.000000000000
         C           -1.768738692630     1.066994712980     0.000066444901    12.000000000000
         C           -1.347848692630    -1.321008287020     0.000048444901    12.000000000000
         C           -2.244823692630    -0.246262287020     0.000085444901    12.000000000000
         C            1.859373707370     0.472483112980    -0.000085655099    12.000000000000
         H           -0.014004692630     2.327831712980    -0.000016555099     1.007825032230
         H            0.742522307370    -1.902171287020    -0.000033555099     1.007825032230
         H           -2.467714692630     1.899624712980     0.000095444901     1.007825032230
         H           -1.724399692630    -2.340965287020     0.000061444901     1.007825032230
         H           -3.315904692630    -0.434088287020     0.000133444901     1.007825032230
         H            2.248464307370     1.561532712980    -0.000148555099     1.007825032230

  Basis Set: AUG-CC-PVTZ
    Blend: AUG-CC-PVTZ
  Basis Set: (AUG-CC-PVTZ AUX)
    Blend: AUG-CC-PVTZ-JKFIT
	 Reference Energy          =    -343.5274557468758871 [Eh]
	 Singles Energy            =      -0.0000000000000000 [Eh]
	 Same-Spin Energy          =      -0.3665801725615046 [Eh]
	 Opposite-Spin Energy      =      -1.1347102257069026 [Eh]
	 Correlation Energy        =      -1.5012903982684072 [Eh]
	 Total Energy              =    -345.0287461451442823 [Eh]

	 ================> DF-SCS-MP2 Energies <==================
	-----------------------------------------------------------
	 SCS Same-Spin Scale       =       0.3333333333333333 [-]
	 SCS Opposite-Spin Scale   =       1.2000000000000000 [-]
	 SCS Same-Spin Energy      =      -0.1221933908538349 [Eh]
	 SCS Opposite-Spin Energy  =      -1.3616522708482830 [Eh]
	 SCS Correlation Energy    =      -1.4838456617021178 [Eh]
	 SCS Total Energy          =    -345.0113014085779923 [Eh]
	-----------------------------------------------------------

  Dipole Moment: [D]
     X:    -3.7350      Y:     1.1683      Z:     0.0000     Total:     3.9135

*** Psi4 exiting successfully. Buy a developer a beer!
