                               Psi4 1.3.2 release

  ==> Input File <==

--------------------------------------------------------------------------
#psi4
#
memory 32 gb

molecule  {
0 1
  O        2.8443680    -0.4002740    -0.0000640
  C        0.5260600     0.2452476    -0.0000330
  C       -0.3650130     1.2954270     0.0000030
  C        0.0536120    -1.0979650    -0.0000100
  C       -1.7392770     1.0552920     0.0000660
  C       -1.3183870    -1.3327110     0.0000480
  C       -2.2153620    -0.2579650     0.0000850
  C        1.9872980     0.4782480    -0.0000900
  H        0.0154570     2.3161290    -0.0000170
  H        0.7719840    -1.9138740    -0.0000340
  H       -2.4382530     1.8879220     0.0000950
  H       -1.6949380    -2.3526680     0.0000610
  H       -3.2864430    -0.4457910     0.0001330
  H        2.2779260     1.5498300    -0.0001490
units angstrom
no_reorient  #important for SAPT in psi4, default
symmetry c1  #important for SAPT in psi4, default
}

set PROPERTIES_ORIGIN ["COM"]
properties('MP2/aug-cc-pvtz', properties = ['dipole'])
--------------------------------------------------------------------------

    Molecular point group: c1
  Charge       = 0
  Multiplicity = 1
  Basis Set: AUG-CC-PVTZ
    Blend: AUG-CC-PVTZ
  Basis Set: (AUG-CC-PVTZ AUX)
    Blend: AUG-CC-PVTZ-JKFIT

    Orbital Energies [Eh]
    ---------------------

    Doubly Occupied:

       1A    -20.556835     2A    -11.339249     3A    -11.262720
       4A    -11.261813     5A    -11.259007     6A    -11.255466
       7A    -11.254293     8A    -11.252292     9A     -1.381279
      10A     -1.173029    11A     -1.053074    12A     -1.033209
      13A     -0.895805    14A     -0.846600    15A     -0.794403
      16A     -0.719642    17A     -0.678532    18A     -0.652999
      19A     -0.619394    20A     -0.614379    21A     -0.605345
      22A     -0.552189    23A     -0.530635    24A     -0.511699
      25A     -0.500687    26A     -0.430422    27A     -0.360158
      28A     -0.350234

  @DF-RHF Final Energy:  -343.54715318523404

   => Energetics <=

    Nuclear Repulsion Energy =            320.4396704385408157
    One-Electron Energy =               -1100.4828710091678659
    Two-Electron Energy =                 436.4960473853930125
    Total Energy =                       -343.5471531852340377
  Basis Set: (AUG-CC-PVTZ AUX)
    Blend: AUG-CC-PVTZ-RI
    Molecular point group: c1

    Geometry (in Angstrom), charge = 0, multiplicity = 1:

       Center              X                  Y                   Z               Mass
    ------------   -----------------  -----------------  -----------------  -----------------
         O            2.804249354081    -0.393429843600    -0.000063000601    15.994914619570
         C            0.485941354081     0.252091756400    -0.000032000601    12.000000000000
         C           -0.405131645919     1.302271156400     0.000003999399    12.000000000000
         C            0.013493354081    -1.091120843600    -0.000009000601    12.000000000000
         C           -1.779395645919     1.062136156400     0.000066999399    12.000000000000
         C           -1.358505645919    -1.325866843600     0.000048999399    12.000000000000
         C           -2.255480645919    -0.251120843600     0.000085999399    12.000000000000
         C            1.947179354081     0.485092156400    -0.000089000601    12.000000000000
         H           -0.024661645919     2.322973156400    -0.000016000601     1.007825032230
         H            0.731865354081    -1.907029843600    -0.000033000601     1.007825032230
         H           -2.478371645919     1.894766156400     0.000095999399     1.007825032230
         H           -1.735056645919    -2.345823843600     0.000061999399     1.007825032230
         H           -3.326561645919    -0.438946843600     0.000133999399     1.007825032230
         H            2.237807354081     1.556674156400    -0.000148000601     1.007825032230

  Basis Set: AUG-CC-PVTZ
    Blend: AUG-CC-PVTZ
  Basis Set: (AUG-CC-PVTZ AUX)
    Blend: AUG-CC-PVTZ-JKFIT
	 Reference Energy          =    -343.5471531852340377 [Eh]
	 Singles Energy            =      -0.0000000000000000 [Eh]
	 Same-Spin Energy          =      -0.3638465881378517 [Eh]
	 Opposite-Spin Energy      =      -1.1296682915982124 [Eh]
	 Correlation Energy        =      -1.4935148797360640 [Eh]
	 Total Energy              =    -345.0406680649700775 [Eh]

	 ================> DF-SCS-MP2 Energies <==================
	-----------------------------------------------------------
	 SCS Same-Spin Scale       =       0.3333333333333333 [-]
	 SCS Opposite-Spin Scale   =       1.2000000000000000 [-]
	 SCS Same-Spin Energy      =      -0.1212821960459506 [Eh]
	 SCS Opposite-Spin Energy  =      -1.3556019499178549 [Eh]
	 SCS Correlation Energy    =      -1.4768841459638054 [Eh]
	 SCS Total Energy          =    -345.0240373311978601 [Eh]
	-----------------------------------------------------------

  Dipole Moment: [D]
     X:    -3.0226      Y:     1.2346      Z:     0.0000     Total:     3.2650

*** Psi4 exiting successfully. Buy a developer a beer!
