                               Psi4 1.3.2 release

  ==> Input File <==

--------------------------------------------------------------------------
#psi4
#
memory 32 gb

molecule  {
0 1
  O        2.8443680    -0.4002740    -0.0000640
  C        0.5303490     0.2197810    -0.0000320
  C       -0.3650130     1.2954270     0.0000030
  C        0.1466946    -1.1280105    -0.0000136
  C       -1.7392770     1.0552920     0.0000660
  C       -1.3183870    -1.3327110     0.0000480
  C       -2.2153620    -0.2579650     0.0000850
  C        1.9872980     0.4782480    -0.0000900
  H        0.0154570     2.3161290    -0.0000170
  H        0.7719840    -1.9138740    -0.0000340
  H       -2.4382530     1.8879220     0.0000950
  H       -1.6949380    -2.3526680     0.0000610
  H       -3.2864430    -0.4457910     0.0001330
  H        2.2779260     1.5498300    -0.0001490
units angstrom
no_reorient  #important for SAPT in psi4, default
symmetry c1  #important for SAPT in psi4, default
}

set PROPERTIES_ORIGIN ["COM"]
properties('MP2/aug-cc-pvtz', properties = ['dipole'])
--------------------------------------------------------------------------

    Molecular point group: c1
  Charge       = 0
  Multiplicity = 1
  Basis Set: AUG-CC-PVTZ
    Blend: AUG-CC-PVTZ
  Basis Set: (AUG-CC-PVTZ AUX)
    Blend: AUG-CC-PVTZ-JKFIT

    Orbital Energies [Eh]
    ---------------------

    Doubly Occupied:

       1A    -20.555352     2A    -11.337002     3A    -11.263747
       4A    -11.262755     5A    -11.261456     6A    -11.260377
       7A    -11.257379     8A    -11.256240     9A     -1.380858
      10A     -1.166156    11A     -1.052465    12A     -1.027603
      13A     -0.894124    14A     -0.852266    15A     -0.790555
      16A     -0.720599    17A     -0.685745    18A     -0.654041
      19A     -0.627661    20A     -0.613490    21A     -0.598870
      22A     -0.550490    23A     -0.528757    24A     -0.517020
      25A     -0.496555    26A     -0.428378    27A     -0.357791
      28A     -0.346033

  @DF-RHF Final Energy:  -343.53393020673974

   => Energetics <=

    Nuclear Repulsion Energy =            319.5992291511863641
    One-Electron Energy =               -1098.7787914675664069
    Two-Electron Energy =                 435.6456321096403030
    Total Energy =                       -343.5339302067397398
  Basis Set: (AUG-CC-PVTZ AUX)
    Blend: AUG-CC-PVTZ-RI
    Molecular point group: c1

    Geometry (in Angstrom), charge = 0, multiplicity = 1:

       Center              X                  Y                   Z               Mass
    ------------   -----------------  -----------------  -----------------  -----------------
         O            2.793230505987    -0.387147935967    -0.000062706378    15.994914619570
         C            0.479211505987     0.232907064033    -0.000030706378    12.000000000000
         C           -0.416150494013     1.308553064033     0.000004293622    12.000000000000
         C            0.095557105987    -1.114884435967    -0.000012306378    12.000000000000
         C           -1.790414494013     1.068418064033     0.000067293622    12.000000000000
         C           -1.369524494013    -1.319584935967     0.000049293622    12.000000000000
         C           -2.266499494013    -0.244838935967     0.000086293622    12.000000000000
         C            1.936160505987     0.491374064033    -0.000088706378    12.000000000000
         H           -0.035680494013     2.329255064033    -0.000015706378     1.007825032230
         H            0.720846505987    -1.900747935967    -0.000032706378     1.007825032230
         H           -2.489390494013     1.901048064033     0.000096293622     1.007825032230
         H           -1.746075494013    -2.339541935967     0.000062293622     1.007825032230
         H           -3.337580494013    -0.432664935967     0.000134293622     1.007825032230
         H            2.226788505987     1.562956064033    -0.000147706378     1.007825032230

  Basis Set: AUG-CC-PVTZ
    Blend: AUG-CC-PVTZ
  Basis Set: (AUG-CC-PVTZ AUX)
    Blend: AUG-CC-PVTZ-JKFIT
	 Reference Energy          =    -343.5339302067397398 [Eh]
	 Singles Energy            =      -0.0000000000000000 [Eh]
	 Same-Spin Energy          =      -0.3640510445021952 [Eh]
	 Opposite-Spin Energy      =      -1.1307772182759963 [Eh]
	 Correlation Energy        =      -1.4948282627781915 [Eh]
	 Total Energy              =    -345.0287584695179248 [Eh]

	 ================> DF-SCS-MP2 Energies <==================
	-----------------------------------------------------------
	 SCS Same-Spin Scale       =       0.3333333333333333 [-]
	 SCS Opposite-Spin Scale   =       1.2000000000000000 [-]
	 SCS Same-Spin Energy      =      -0.1213503481673984 [Eh]
	 SCS Opposite-Spin Energy  =      -1.3569326619311954 [Eh]
	 SCS Correlation Energy    =      -1.4782830100985938 [Eh]
	 SCS Total Energy          =    -345.0122132168383473 [Eh]
	-----------------------------------------------------------

  Dipole Moment: [D]
     X:    -3.0237      Y:     1.2237      Z:     0.0000     Total:     3.2620

*** Psi4 exiting successfully. Buy a developer a beer!
