                               Psi4 1.4a3.dev225

  ==> Input File <==

--------------------------------------------------------------------------
#psi4
#
memory 32 gb

molecule  {
0 1
  O        2.8443490    -0.4002910    -0.0000960
  C        0.5303130     0.2198450    -0.0000250
  C       -0.3650130     1.2954800     0.0000070
  C        0.0536480    -1.0979670    -0.0000020
  C       -1.7393110     1.0553020     0.0000660
  C       -1.3183250    -1.3328010     0.0000550
  C       -2.2153260    -0.2579870     0.0000890
  C        1.9523589     0.5140531    -0.0000846
  H        0.0153590     2.3162280    -0.0000130
  H        0.7720410    -1.9138490    -0.0000260
  H       -2.4383560     1.8878700     0.0000920
  H       -1.6950010    -2.3527060     0.0000730
  H       -3.2864200    -0.4458710     0.0001340
  H        2.2780260     1.5498410    -0.0001220
units angstrom
no_reorient  #important for SAPT in psi4, default
symmetry c1  #important for SAPT in psi4, default
}

set PROPERTIES_ORIGIN ["COM"]
properties('MP2/aug-cc-pvtz', properties = ['dipole'])
--------------------------------------------------------------------------

    Molecular point group: c1
  Charge       = 0
  Multiplicity = 1
  Basis Set: AUG-CC-PVTZ
    Blend: AUG-CC-PVTZ
  Basis Set: (AUG-CC-PVTZ AUX)
    Blend: AUG-CC-PVTZ-JKFIT

    Orbital Energies [Eh]
    ---------------------

    Doubly Occupied:

       1A    -20.551426     2A    -11.340007     3A    -11.266784
       4A    -11.264469     5A    -11.259833     6A    -11.256340
       7A    -11.255736     8A    -11.254342     9A     -1.347621
      10A     -1.175343    11A     -1.056743    12A     -1.036428
      13A     -0.903026    14A     -0.849629    15A     -0.797050
      16A     -0.722260    17A     -0.679436    18A     -0.651293
      19A     -0.620928    20A     -0.607821    21A     -0.600448
      22A     -0.545836    23A     -0.530870    24A     -0.512569
      25A     -0.488936    26A     -0.434580    27A     -0.358294
      28A     -0.353641

  @DF-RHF Final Energy:  -343.53854276515415

   => Energetics <=

    Nuclear Repulsion Energy =            320.2508983223109453
    One-Electron Energy =               -1100.1355044130643819
    Two-Electron Energy =                 436.3460633255992889
    Total Energy =                       -343.5385427651541477
  Basis Set: (AUG-CC-PVTZ AUX)
    Blend: AUG-CC-PVTZ-RI
    Molecular point group: c1

    Geometry (in Angstrom), charge = 0, multiplicity = 1:

       Center              X                  Y                   Z               Mass
    ------------   -----------------  -----------------  -----------------  -----------------
         O            2.807695228650    -0.394615352026    -0.000094758679    15.994914619570
         C            0.493659228650     0.225520647974    -0.000023758679    12.000000000000
         C           -0.401666771350     1.301155647974     0.000008241321    12.000000000000
         C            0.016994228650    -1.092291352026    -0.000000758679    12.000000000000
         C           -1.775964771350     1.060977647974     0.000067241321    12.000000000000
         C           -1.354978771350    -1.327125352026     0.000056241321    12.000000000000
         C           -2.251979771350    -0.252311352026     0.000090241321    12.000000000000
         C            1.915705128650     0.519728747974    -0.000083358679    12.000000000000
         H           -0.021294771350     2.321903647974    -0.000011758679     1.007825032230
         H            0.735387228650    -1.908173352026    -0.000024758679     1.007825032230
         H           -2.475009771350     1.893545647974     0.000093241321     1.007825032230
         H           -1.731654771350    -2.347030352026     0.000074241321     1.007825032230
         H           -3.323073771350    -0.440195352026     0.000135241321     1.007825032230
         H            2.241372228650     1.555516647974    -0.000120758679     1.007825032230

  Basis Set: AUG-CC-PVTZ
    Blend: AUG-CC-PVTZ
  Basis Set: (AUG-CC-PVTZ AUX)
    Blend: AUG-CC-PVTZ-JKFIT
	 Reference Energy          =    -343.5385427651541477 [Eh]
	 Singles Energy            =      -0.0000000000000000 [Eh]
	 Same-Spin Energy          =      -0.3653774685885778 [Eh]
	 Opposite-Spin Energy      =      -1.1329812155380790 [Eh]
	 Correlation Energy        =      -1.4983586841266567 [Eh]
	 Total Energy              =    -345.0369014492807764 [Eh]

	 ================> DF-SCS-MP2 Energies <==================
	-----------------------------------------------------------
	 SCS Same-Spin Scale       =       0.3333333333333333 [-]
	 SCS Opposite-Spin Scale   =       1.2000000000000000 [-]
	 SCS Same-Spin Energy      =      -0.1217924895295259 [Eh]
	 SCS Opposite-Spin Energy  =      -1.3595774586456948 [Eh]
	 SCS Correlation Energy    =      -1.4813699481752207 [Eh]
	 SCS Total Energy          =    -345.0199127133293473 [Eh]
	-----------------------------------------------------------

  Dipole Moment: [D]
     X:    -3.2484      Y:     1.3545      Z:     0.0001     Total:     3.5195

*** Psi4 exiting successfully. Buy a developer a beer!
