                               Psi4 1.3.2 release

  ==> Input File <==

--------------------------------------------------------------------------
#psi4
#
memory 32 gb

molecule  {
0 1
  O        2.8443680    -0.4002740    -0.0000640
  C        0.5303490     0.2197810    -0.0000320
  C       -0.3650130     1.2954270     0.0000030
  C        0.0536120    -1.0979650    -0.0000100
  C       -1.7392770     1.0552920     0.0000660
  C       -1.3183870    -1.3327110     0.0000480
  C       -2.2153620    -0.2579650     0.0000850
  C        1.9872980     0.4782480    -0.0000900
  H        0.0154570     2.3161290    -0.0000170
  H        0.7719840    -1.9138740    -0.0000340
  H       -2.4382530     1.8879220     0.0000950
  H       -1.6949380    -2.3526680     0.0000610
  H       -3.2864430    -0.4457910     0.0001330
  H        2.3041018     1.6463434    -0.0001543
units angstrom
no_reorient  #important for SAPT in psi4, default
symmetry c1  #important for SAPT in psi4, default
}

set PROPERTIES_ORIGIN ["COM"]
properties('MP2/aug-cc-pvtz', properties = ['dipole'])
--------------------------------------------------------------------------

    Molecular point group: c1
  Charge       = 0
  Multiplicity = 1
  Basis Set: AUG-CC-PVTZ
    Blend: AUG-CC-PVTZ
  Basis Set: (AUG-CC-PVTZ AUX)
    Blend: AUG-CC-PVTZ-JKFIT

    Orbital Energies [Eh]
    ---------------------

    Doubly Occupied:

       1A    -20.559002     2A    -11.350109     3A    -11.264756
       4A    -11.262217     5A    -11.258356     6A    -11.257073
       7A    -11.254641     8A    -11.253101     9A     -1.382973
      10A     -1.173231    11A     -1.051474    12A     -1.035013
      13A     -0.890805    14A     -0.847609    15A     -0.785635
      16A     -0.715479    17A     -0.673296    18A     -0.654137
      19A     -0.620450    20A     -0.610922    21A     -0.604200
      22A     -0.553423    23A     -0.531235    24A     -0.511992
      25A     -0.501646    26A     -0.426864    27A     -0.357325
      28A     -0.353880

  @DF-RHF Final Energy:  -343.54090809899719

   => Energetics <=

    Nuclear Repulsion Energy =            320.0313539352840735
    One-Electron Energy =               -1099.6628367699852333
    Two-Electron Energy =                 436.0905747357039672
    Total Energy =                       -343.5409080989971926
  Basis Set: (AUG-CC-PVTZ AUX)
    Blend: AUG-CC-PVTZ-RI
    Molecular point group: c1

    Geometry (in Angstrom), charge = 0, multiplicity = 1:

       Center              X                  Y                   Z               Mass
    ------------   -----------------  -----------------  -----------------  -----------------
         O            2.803515223022    -0.391465236697    -0.000063063393    15.994914619570
         C            0.489496223022     0.228589763303    -0.000031063393    12.000000000000
         C           -0.405865776978     1.304235763303     0.000003936607    12.000000000000
         C            0.012759223022    -1.089156236697    -0.000009063393    12.000000000000
         C           -1.780129776978     1.064100763303     0.000066936607    12.000000000000
         C           -1.359239776978    -1.323902236697     0.000048936607    12.000000000000
         C           -2.256214776978    -0.249156236697     0.000085936607    12.000000000000
         C            1.946445223022     0.487056763303    -0.000089063393    12.000000000000
         H           -0.025395776978     2.324937763303    -0.000016063393     1.007825032230
         H            0.731131223022    -1.905065236697    -0.000033063393     1.007825032230
         H           -2.479105776978     1.896730763303     0.000095936607     1.007825032230
         H           -1.735790776978    -2.343859236697     0.000061936607     1.007825032230
         H           -3.327295776978    -0.436982236697     0.000133936607     1.007825032230
         H            2.263249023022     1.655152163303    -0.000153363393     1.007825032230

  Basis Set: AUG-CC-PVTZ
    Blend: AUG-CC-PVTZ
  Basis Set: (AUG-CC-PVTZ AUX)
    Blend: AUG-CC-PVTZ-JKFIT
	 Reference Energy          =    -343.5409080989971926 [Eh]
	 Singles Energy            =      -0.0000000000000000 [Eh]
	 Same-Spin Energy          =      -0.3644132617001105 [Eh]
	 Opposite-Spin Energy      =      -1.1308464756906016 [Eh]
	 Correlation Energy        =      -1.4952597373907122 [Eh]
	 Total Energy              =    -345.0361678363879037 [Eh]

	 ================> DF-SCS-MP2 Energies <==================
	-----------------------------------------------------------
	 SCS Same-Spin Scale       =       0.3333333333333333 [-]
	 SCS Opposite-Spin Scale   =       1.2000000000000000 [-]
	 SCS Same-Spin Energy      =      -0.1214710872333702 [Eh]
	 SCS Opposite-Spin Energy  =      -1.3570157708287218 [Eh]
	 SCS Correlation Energy    =      -1.4784868580620920 [Eh]
	 SCS Total Energy          =    -345.0193949570592622 [Eh]
	-----------------------------------------------------------

  Dipole Moment: [D]
     X:    -3.0615      Y:     1.1212      Z:     0.0000     Total:     3.2603

*** Psi4 exiting successfully. Buy a developer a beer!
