                               Psi4 1.4a3.dev225

  ==> Input File <==

--------------------------------------------------------------------------
#psi4
#
memory 32 gb

molecule  {
0 1
  O        2.8443490    -0.4002910    -0.0000960
  C        0.5303130     0.2198450    -0.0000250
  C       -0.3650130     1.2954800     0.0000070
  C        0.0536480    -1.0979670    -0.0000020
  C       -1.7393110     1.0553020     0.0000660
  C       -1.3183250    -1.3328010     0.0000550
  C       -2.2153260    -0.2579870     0.0000890
  C        2.0069666     0.4817558    -0.0000858
  H        0.0153590     2.3162280    -0.0000130
  H        0.7720410    -1.9138490    -0.0000260
  H       -2.4383560     1.8878700     0.0000920
  H       -1.6950010    -2.3527060     0.0000730
  H       -3.2864200    -0.4458710     0.0001340
  H        2.2780260     1.5498410    -0.0001220
units angstrom
no_reorient  #important for SAPT in psi4, default
symmetry c1  #important for SAPT in psi4, default
}

set PROPERTIES_ORIGIN ["COM"]
properties('MP2/aug-cc-pvtz', properties = ['dipole'])
--------------------------------------------------------------------------

    Molecular point group: c1
  Charge       = 0
  Multiplicity = 1
  Basis Set: AUG-CC-PVTZ
    Blend: AUG-CC-PVTZ
  Basis Set: (AUG-CC-PVTZ AUX)
    Blend: AUG-CC-PVTZ-JKFIT

    Orbital Energies [Eh]
    ---------------------

    Doubly Occupied:

       1A    -20.558282     2A    -11.339199     3A    -11.262711
       4A    -11.259863     5A    -11.255994     6A    -11.254806
       7A    -11.253338     8A    -11.251551     9A     -1.389790
      10A     -1.170762    11A     -1.048086    12A     -1.033096
      13A     -0.892712    14A     -0.845905    15A     -0.794061
      16A     -0.719854    17A     -0.678027    18A     -0.653075
      19A     -0.619754    20A     -0.617085    21A     -0.604290
      22A     -0.553361    23A     -0.530256    24A     -0.510344
      25A     -0.502485    26A     -0.430387    27A     -0.355662
      28A     -0.351970

  @DF-RHF Final Energy:  -343.54898687872367

   => Energetics <=

    Nuclear Repulsion Energy =            320.3176325987805058
    One-Electron Energy =               -1100.2598354931253652
    Two-Electron Energy =                 436.3932160156211921
    Total Energy =                       -343.5489868787236674
  Basis Set: (AUG-CC-PVTZ AUX)
    Blend: AUG-CC-PVTZ-RI
    Molecular point group: c1

    Geometry (in Angstrom), charge = 0, multiplicity = 1:

       Center              X                  Y                   Z               Mass
    ------------   -----------------  -----------------  -----------------  -----------------
         O            2.801515665502    -0.390960497401    -0.000094622884    15.994914619570
         C            0.487479665502     0.229175502599    -0.000023622884    12.000000000000
         C           -0.407846334498     1.304810502599     0.000008377116    12.000000000000
         C            0.010814665502    -1.088636497401    -0.000000622884    12.000000000000
         C           -1.782144334498     1.064632502599     0.000067377116    12.000000000000
         C           -1.361158334498    -1.323470497401     0.000056377116    12.000000000000
         C           -2.258159334498    -0.248656497401     0.000090377116    12.000000000000
         C            1.964133265502     0.491086302599    -0.000084422884    12.000000000000
         H           -0.027474334498     2.325558502599    -0.000011622884     1.007825032230
         H            0.729207665502    -1.904518497401    -0.000024622884     1.007825032230
         H           -2.481189334498     1.897200502599     0.000093377116     1.007825032230
         H           -1.737834334498    -2.343375497401     0.000074377116     1.007825032230
         H           -3.329253334498    -0.436540497401     0.000135377116     1.007825032230
         H            2.235192665502     1.559171502599    -0.000120622884     1.007825032230

  Basis Set: AUG-CC-PVTZ
    Blend: AUG-CC-PVTZ
  Basis Set: (AUG-CC-PVTZ AUX)
    Blend: AUG-CC-PVTZ-JKFIT
	 Reference Energy          =    -343.5489868787236674 [Eh]
	 Singles Energy            =      -0.0000000000000000 [Eh]
	 Same-Spin Energy          =      -0.3634797810187465 [Eh]
	 Opposite-Spin Energy      =      -1.1288364332263079 [Eh]
	 Correlation Energy        =      -1.4923162142450543 [Eh]
	 Total Energy              =    -345.0413030929687466 [Eh]

	 ================> DF-SCS-MP2 Energies <==================
	-----------------------------------------------------------
	 SCS Same-Spin Scale       =       0.3333333333333333 [-]
	 SCS Opposite-Spin Scale   =       1.2000000000000000 [-]
	 SCS Same-Spin Energy      =      -0.1211599270062488 [Eh]
	 SCS Opposite-Spin Energy  =      -1.3546037198715695 [Eh]
	 SCS Correlation Energy    =      -1.4757636468778184 [Eh]
	 SCS Total Energy          =    -345.0247505256014620 [Eh]
	-----------------------------------------------------------

  Dipole Moment: [D]
     X:    -2.8589      Y:     1.2607      Z:     0.0001     Total:     3.1245

*** Psi4 exiting successfully. Buy a developer a beer!
