                               Psi4 1.3.2 release

  ==> Input File <==

--------------------------------------------------------------------------
#psi4
#
memory 32 gb

molecule  {
0 1
  O        2.7478423    -0.4850496    -0.0000562
  C        0.5303490     0.2197810    -0.0000320
  C       -0.3650130     1.2954270     0.0000030
  C        0.0536120    -1.0979650    -0.0000100
  C       -1.7392770     1.0552920     0.0000660
  C       -1.3183870    -1.3327110     0.0000480
  C       -2.2153620    -0.2579650     0.0000850
  C        1.9872980     0.4782480    -0.0000900
  H        0.0154570     2.3161290    -0.0000170
  H        0.7719840    -1.9138740    -0.0000340
  H       -2.4382530     1.8879220     0.0000950
  H       -1.6949380    -2.3526680     0.0000610
  H       -3.2864430    -0.4457910     0.0001330
  H        2.2779260     1.5498300    -0.0001490
units angstrom
no_reorient  #important for SAPT in psi4, default
symmetry c1  #important for SAPT in psi4, default
}

set PROPERTIES_ORIGIN ["COM"]
properties('MP2/aug-cc-pvtz', properties = ['dipole'])
--------------------------------------------------------------------------

    Molecular point group: c1
  Charge       = 0
  Multiplicity = 1
  Basis Set: AUG-CC-PVTZ
    Blend: AUG-CC-PVTZ
  Basis Set: (AUG-CC-PVTZ AUX)
    Blend: AUG-CC-PVTZ-JKFIT

    Orbital Energies [Eh]
    ---------------------

    Doubly Occupied:

       1A    -20.556667     2A    -11.340645     3A    -11.261092
       4A    -11.258678     5A    -11.253217     6A    -11.251793
       7A    -11.251091     8A    -11.249950     9A     -1.383764
      10A     -1.169319    11A     -1.048035    12A     -1.031491
      13A     -0.894727    14A     -0.844838    15A     -0.792947
      16A     -0.719610    17A     -0.678307    18A     -0.650021
      19A     -0.618334    20A     -0.614666    21A     -0.602758
      22A     -0.552592    23A     -0.527534    24A     -0.508359
      25A     -0.498827    26A     -0.432600    27A     -0.354181
      28A     -0.349514

  @DF-RHF Final Energy:  -343.54481421573013

   => Energetics <=

    Nuclear Repulsion Energy =            321.6373128496019262
    One-Electron Energy =               -1102.9731415877608924
    Two-Electron Energy =                 437.7910145224288385
    Total Energy =                       -343.5448142157301277
  Basis Set: (AUG-CC-PVTZ AUX)
    Blend: AUG-CC-PVTZ-RI
    Molecular point group: c1

    Geometry (in Angstrom), charge = 0, multiplicity = 1:

       Center              X                  Y                   Z               Mass
    ------------   -----------------  -----------------  -----------------  -----------------
         O            2.721797834432    -0.462536370948    -0.000056490284    15.994914619570
         C            0.504304534432     0.242294229052    -0.000032290284    12.000000000000
         C           -0.391057465568     1.317940229052     0.000002709716    12.000000000000
         C            0.027567534432    -1.075451770948    -0.000010290284    12.000000000000
         C           -1.765321465568     1.077805229052     0.000065709716    12.000000000000
         C           -1.344431465568    -1.310197770948     0.000047709716    12.000000000000
         C           -2.241406465568    -0.235451770948     0.000084709716    12.000000000000
         C            1.961253534432     0.500761229052    -0.000090290284    12.000000000000
         H           -0.010587465568     2.338642229052    -0.000017290284     1.007825032230
         H            0.745939534432    -1.891360770948    -0.000034290284     1.007825032230
         H           -2.464297465568     1.910435229052     0.000094709716     1.007825032230
         H           -1.720982465568    -2.330154770948     0.000060709716     1.007825032230
         H           -3.312487465568    -0.423277770948     0.000132709716     1.007825032230
         H            2.251881534432     1.572343229052    -0.000149290284     1.007825032230

  Basis Set: AUG-CC-PVTZ
    Blend: AUG-CC-PVTZ
  Basis Set: (AUG-CC-PVTZ AUX)
    Blend: AUG-CC-PVTZ-JKFIT
	 Reference Energy          =    -343.5448142157301277 [Eh]
	 Singles Energy            =      -0.0000000000000000 [Eh]
	 Same-Spin Energy          =      -0.3642021993691439 [Eh]
	 Opposite-Spin Energy      =      -1.1299125650064648 [Eh]
	 Correlation Energy        =      -1.4941147643756088 [Eh]
	 Total Energy              =    -345.0389289801057089 [Eh]

	 ================> DF-SCS-MP2 Energies <==================
	-----------------------------------------------------------
	 SCS Same-Spin Scale       =       0.3333333333333333 [-]
	 SCS Opposite-Spin Scale   =       1.2000000000000000 [-]
	 SCS Same-Spin Energy      =      -0.1214007331230480 [Eh]
	 SCS Opposite-Spin Energy  =      -1.3558950780077577 [Eh]
	 SCS Correlation Energy    =      -1.4772958111308057 [Eh]
	 SCS Total Energy          =    -345.0221100268609575 [Eh]
	-----------------------------------------------------------

  Dipole Moment: [D]
     X:    -2.6773      Y:     1.4111      Z:    -0.0000     Total:     3.0264

*** Psi4 exiting successfully. Buy a developer a beer!
