                               Psi4 1.3.2 release

  ==> Input File <==

--------------------------------------------------------------------------
#psi4
#
memory 32 gb

molecule  {
0 1
  O        2.8443680    -0.4002740    -0.0000640
  C        0.5222162     0.2707852    -0.0000341
  C       -0.3650130     1.2954270     0.0000030
  C        0.0536120    -1.0979650    -0.0000100
  C       -1.7392770     1.0552920     0.0000660
  C       -1.3183870    -1.3327110     0.0000480
  C       -2.2153620    -0.2579650     0.0000850
  C        1.9872980     0.4782480    -0.0000900
  H        0.0154570     2.3161290    -0.0000170
  H        0.7719840    -1.9138740    -0.0000340
  H       -2.4382530     1.8879220     0.0000950
  H       -1.6949380    -2.3526680     0.0000610
  H       -3.2864430    -0.4457910     0.0001330
  H        2.2779260     1.5498300    -0.0001490
units angstrom
no_reorient  #important for SAPT in psi4, default
symmetry c1  #important for SAPT in psi4, default
}

set PROPERTIES_ORIGIN ["COM"]
properties('MP2/aug-cc-pvtz', properties = ['dipole'])
--------------------------------------------------------------------------

    Molecular point group: c1
  Charge       = 0
  Multiplicity = 1
  Basis Set: AUG-CC-PVTZ
    Blend: AUG-CC-PVTZ
  Basis Set: (AUG-CC-PVTZ AUX)
    Blend: AUG-CC-PVTZ-JKFIT

    Orbital Energies [Eh]
    ---------------------

    Doubly Occupied:

       1A    -20.557586     2A    -11.339694     3A    -11.262097
       4A    -11.261041     5A    -11.260925     6A    -11.255480
       7A    -11.254270     8A    -11.252063     9A     -1.381497
      10A     -1.173690    11A     -1.055441    12A     -1.031532
      13A     -0.896320    14A     -0.846070    15A     -0.795387
      16A     -0.719273    17A     -0.679219    18A     -0.652922
      19A     -0.620922    20A     -0.612894    21A     -0.605109
      22A     -0.552574    23A     -0.531031    24A     -0.510981
      25A     -0.501068    26A     -0.429752    27A     -0.363709
      28A     -0.347630

  @DF-RHF Final Energy:  -343.54456691377067

   => Energetics <=

    Nuclear Repulsion Energy =            320.4071264487910184
    One-Electron Energy =               -1100.4030324187658607
    Two-Electron Energy =                 436.4513390562041764
    Total Energy =                       -343.5445669137706659
  Basis Set: (AUG-CC-PVTZ AUX)
    Blend: AUG-CC-PVTZ-RI
    Molecular point group: c1

    Geometry (in Angstrom), charge = 0, multiplicity = 1:

       Center              X                  Y                   Z               Mass
    ------------   -----------------  -----------------  -----------------  -----------------
         O            2.804684329457    -0.396319751284    -0.000062876122    15.994914619570
         C            0.482532529457     0.274739448716    -0.000032976122    12.000000000000
         C           -0.404696670543     1.299381248716     0.000004123878    12.000000000000
         C            0.013928329457    -1.094010751284    -0.000008876122    12.000000000000
         C           -1.778960670543     1.059246248716     0.000067123878    12.000000000000
         C           -1.358070670543    -1.328756751284     0.000049123878    12.000000000000
         C           -2.255045670543    -0.254010751284     0.000086123878    12.000000000000
         C            1.947614329457     0.482202248716    -0.000088876122    12.000000000000
         H           -0.024226670543     2.320083248716    -0.000015876122     1.007825032230
         H            0.732300329457    -1.909919751284    -0.000032876122     1.007825032230
         H           -2.477936670543     1.891876248716     0.000096123878     1.007825032230
         H           -1.734621670543    -2.348713751284     0.000062123878     1.007825032230
         H           -3.326126670543    -0.441836751284     0.000134123878     1.007825032230
         H            2.238242329457     1.553784248716    -0.000147876122     1.007825032230

  Basis Set: AUG-CC-PVTZ
    Blend: AUG-CC-PVTZ
  Basis Set: (AUG-CC-PVTZ AUX)
    Blend: AUG-CC-PVTZ-JKFIT
	 Reference Energy          =    -343.5445669137706659 [Eh]
	 Singles Energy            =      -0.0000000000000000 [Eh]
	 Same-Spin Energy          =      -0.3637653431200227 [Eh]
	 Opposite-Spin Energy      =      -1.1297694349006657 [Eh]
	 Correlation Energy        =      -1.4935347780206885 [Eh]
	 Total Energy              =    -345.0381016917913826 [Eh]

	 ================> DF-SCS-MP2 Energies <==================
	-----------------------------------------------------------
	 SCS Same-Spin Scale       =       0.3333333333333333 [-]
	 SCS Opposite-Spin Scale   =       1.2000000000000000 [-]
	 SCS Same-Spin Energy      =      -0.1212551143733409 [Eh]
	 SCS Opposite-Spin Energy  =      -1.3557233218807989 [Eh]
	 SCS Correlation Energy    =      -1.4769784362541398 [Eh]
	 SCS Total Energy          =    -345.0215453500247804 [Eh]
	-----------------------------------------------------------

  Dipole Moment: [D]
     X:    -3.0321      Y:     1.2226      Z:     0.0000     Total:     3.2693

*** Psi4 exiting successfully. Buy a developer a beer!
