                               Psi4 1.3.2 release

  ==> Input File <==

--------------------------------------------------------------------------
#psi4
#
memory 32 gb

molecule  {
0 1
  O        2.7809976    -0.4579201    -0.0000599
  C        0.5303490     0.2197810    -0.0000320
  C       -0.3650130     1.2954270     0.0000030
  C        0.0536120    -1.0979650    -0.0000100
  C       -1.7392770     1.0552920     0.0000660
  C       -1.3183870    -1.3327110     0.0000480
  C       -2.2153620    -0.2579650     0.0000850
  C        1.9872980     0.4782480    -0.0000900
  H        0.0154570     2.3161290    -0.0000170
  H        0.7719840    -1.9138740    -0.0000340
  H       -2.4382530     1.8879220     0.0000950
  H       -1.6949380    -2.3526680     0.0000610
  H       -3.2864430    -0.4457910     0.0001330
  H        2.2779260     1.5498300    -0.0001490
units angstrom
no_reorient  #important for SAPT in psi4, default
symmetry c1  #important for SAPT in psi4, default
}

set PROPERTIES_ORIGIN ["COM"]
properties('MP2/aug-cc-pvtz', properties = ['dipole'])
--------------------------------------------------------------------------

    Molecular point group: c1
  Charge       = 0
  Multiplicity = 1
  Basis Set: AUG-CC-PVTZ
    Blend: AUG-CC-PVTZ
  Basis Set: (AUG-CC-PVTZ AUX)
    Blend: AUG-CC-PVTZ-JKFIT

    Orbital Energies [Eh]
    ---------------------

    Doubly Occupied:

       1A    -20.556546     2A    -11.340047     3A    -11.262213
       4A    -11.259662     5A    -11.254518     6A    -11.252659
       7A    -11.252476     8A    -11.250830     9A     -1.382797
      10A     -1.170432    11A     -1.049170    12A     -1.032489
      13A     -0.894925    14A     -0.845717    15A     -0.793048
      16A     -0.719746    17A     -0.678132    18A     -0.651126
      19A     -0.618950    20A     -0.614344    21A     -0.603649
      22A     -0.552317    23A     -0.528676    24A     -0.509402
      25A     -0.499377    26A     -0.432310    27A     -0.355059
      28A     -0.350716

  @DF-RHF Final Energy:  -343.54650631390246

   => Energetics <=

    Nuclear Repulsion Energy =            321.2307036151588591
    One-Electron Energy =               -1102.1317516661683840
    Two-Electron Energy =                 437.3545417371070698
    Total Energy =                       -343.5465063139024551
  Basis Set: (AUG-CC-PVTZ AUX)
    Blend: AUG-CC-PVTZ-RI
    Molecular point group: c1

    Geometry (in Angstrom), charge = 0, multiplicity = 1:

       Center              X                  Y                   Z               Mass
    ------------   -----------------  -----------------  -----------------  -----------------
         O            2.749952126635    -0.439498972091    -0.000059632191    15.994914619570
         C            0.499303526635     0.238202127909    -0.000031732191    12.000000000000
         C           -0.396058473365     1.313848127909     0.000003267809    12.000000000000
         C            0.022566526635    -1.079543872091    -0.000009732191    12.000000000000
         C           -1.770322473365     1.073713127909     0.000066267809    12.000000000000
         C           -1.349432473365    -1.314289872091     0.000048267809    12.000000000000
         C           -2.246407473365    -0.239543872091     0.000085267809    12.000000000000
         C            1.956252526635     0.496669127909    -0.000089732191    12.000000000000
         H           -0.015588473365     2.334550127909    -0.000016732191     1.007825032230
         H            0.740938526635    -1.895452872091    -0.000033732191     1.007825032230
         H           -2.469298473365     1.906343127909     0.000095267809     1.007825032230
         H           -1.725983473365    -2.334246872091     0.000061267809     1.007825032230
         H           -3.317488473365    -0.427369872091     0.000133267809     1.007825032230
         H            2.246880526635     1.568251127909    -0.000148732191     1.007825032230

  Basis Set: AUG-CC-PVTZ
    Blend: AUG-CC-PVTZ
  Basis Set: (AUG-CC-PVTZ AUX)
    Blend: AUG-CC-PVTZ-JKFIT
	 Reference Energy          =    -343.5465063139024551 [Eh]
	 Singles Energy            =      -0.0000000000000000 [Eh]
	 Same-Spin Energy          =      -0.3640811184167103 [Eh]
	 Opposite-Spin Energy      =      -1.1297786682846018 [Eh]
	 Correlation Energy        =      -1.4938597867013121 [Eh]
	 Total Energy              =    -345.0403661006037623 [Eh]

	 ================> DF-SCS-MP2 Energies <==================
	-----------------------------------------------------------
	 SCS Same-Spin Scale       =       0.3333333333333333 [-]
	 SCS Opposite-Spin Scale   =       1.2000000000000000 [-]
	 SCS Same-Spin Energy      =      -0.1213603728055701 [Eh]
	 SCS Opposite-Spin Energy  =      -1.3557344019415221 [Eh]
	 SCS Correlation Energy    =      -1.4770947747470922 [Eh]
	 SCS Total Energy          =    -345.0236010886495706 [Eh]
	-----------------------------------------------------------

  Dipole Moment: [D]
     X:    -2.7923      Y:     1.3589      Z:     0.0000     Total:     3.1054

*** Psi4 exiting successfully. Buy a developer a beer!
