                               Psi4 1.3.2 release

  ==> Input File <==

--------------------------------------------------------------------------
#psi4
#
memory 32 gb

molecule  {
0 1
  O        2.8443680    -0.4002740    -0.0000640
  C        0.5303490     0.2197810    -0.0000320
  C       -0.3650130     1.2954270     0.0000030
  C        0.0536120    -1.0979650    -0.0000100
  C       -1.7392770     1.0552920     0.0000660
  C       -1.3183870    -1.3327110     0.0000480
  C       -2.2153620    -0.2579650     0.0000850
  C        1.9872980     0.4782480    -0.0000900
  H        0.0154570     2.3161290    -0.0000170
  H        0.7719840    -1.9138740    -0.0000340
  H       -2.4382530     1.8879220     0.0000950
  H       -1.6949380    -2.3526680     0.0000610
  H       -3.2864430    -0.4457910     0.0001330
  H        2.2517502     1.4533166    -0.0001437
units angstrom
no_reorient  #important for SAPT in psi4, default
symmetry c1  #important for SAPT in psi4, default
}

set PROPERTIES_ORIGIN ["COM"]
properties('MP2/aug-cc-pvtz', properties = ['dipole'])
--------------------------------------------------------------------------

    Molecular point group: c1
  Charge       = 0
  Multiplicity = 1
  Basis Set: AUG-CC-PVTZ
    Blend: AUG-CC-PVTZ
  Basis Set: (AUG-CC-PVTZ AUX)
    Blend: AUG-CC-PVTZ-JKFIT

    Orbital Energies [Eh]
    ---------------------

    Doubly Occupied:

       1A    -20.554172     2A    -11.327075     3A    -11.263994
       4A    -11.260978     5A    -11.255957     6A    -11.254008
       7A    -11.253683     8A    -11.251970     9A     -1.380098
      10A     -1.172032    11A     -1.051697    12A     -1.033875
      13A     -0.903819    14A     -0.847516    15A     -0.803684
      16A     -0.725435    17A     -0.681547    18A     -0.652313
      19A     -0.620822    20A     -0.615745    21A     -0.605280
      22A     -0.550869    23A     -0.530390    24A     -0.510889
      25A     -0.499359    26A     -0.434186    27A     -0.356306
      28A     -0.352219

  @DF-RHF Final Energy:  -343.54361193769648

   => Energetics <=

    Nuclear Repulsion Energy =            320.9773675060156961
    One-Electron Energy =               -1101.5421203996327222
    Two-Electron Energy =                 437.0211409559204867
    Total Energy =                       -343.5436119376964825
  Basis Set: (AUG-CC-PVTZ AUX)
    Blend: AUG-CC-PVTZ-RI
    Molecular point group: c1

    Geometry (in Angstrom), charge = 0, multiplicity = 1:

       Center              X                  Y                   Z               Mass
    ------------   -----------------  -----------------  -----------------  -----------------
         O            2.804012774183    -0.389630704258    -0.000063164135    15.994914619570
         C            0.489993774183     0.230424295742    -0.000031164135    12.000000000000
         C           -0.405368225817     1.306070295742     0.000003835865    12.000000000000
         C            0.013256774183    -1.087321704258    -0.000009164135    12.000000000000
         C           -1.779632225817     1.065935295742     0.000066835865    12.000000000000
         C           -1.358742225817    -1.322067704258     0.000048835865    12.000000000000
         C           -2.255717225817    -0.247321704258     0.000085835865    12.000000000000
         C            1.946942774183     0.488891295742    -0.000089164135    12.000000000000
         H           -0.024898225817     2.326772295742    -0.000016164135     1.007825032230
         H            0.731628774183    -1.903230704258    -0.000033164135     1.007825032230
         H           -2.478608225817     1.898565295742     0.000095835865     1.007825032230
         H           -1.735293225817    -2.342024704258     0.000061835865     1.007825032230
         H           -3.326798225817    -0.435147704258     0.000133835865     1.007825032230
         H            2.211394974183     1.463959895742    -0.000142864135     1.007825032230

  Basis Set: AUG-CC-PVTZ
    Blend: AUG-CC-PVTZ
  Basis Set: (AUG-CC-PVTZ AUX)
    Blend: AUG-CC-PVTZ-JKFIT
	 Reference Energy          =    -343.5436119376964825 [Eh]
	 Singles Energy            =      -0.0000000000000000 [Eh]
	 Same-Spin Energy          =      -0.3635260771384983 [Eh]
	 Opposite-Spin Energy      =      -1.1289050496661974 [Eh]
	 Correlation Energy        =      -1.4924311268046957 [Eh]
	 Total Energy              =    -345.0360430645012002 [Eh]

	 ================> DF-SCS-MP2 Energies <==================
	-----------------------------------------------------------
	 SCS Same-Spin Scale       =       0.3333333333333333 [-]
	 SCS Opposite-Spin Scale   =       1.2000000000000000 [-]
	 SCS Same-Spin Energy      =      -0.1211753590461661 [Eh]
	 SCS Opposite-Spin Energy  =      -1.3546860595994368 [Eh]
	 SCS Correlation Energy    =      -1.4758614186456029 [Eh]
	 SCS Total Energy          =    -345.0194733563420755 [Eh]
	-----------------------------------------------------------

  Dipole Moment: [D]
     X:    -2.9740      Y:     1.3400      Z:     0.0000     Total:     3.2619

*** Psi4 exiting successfully. Buy a developer a beer!
