                               Psi4 1.3.2 release

  ==> Input File <==

--------------------------------------------------------------------------
#psi4
#
memory 32 gb

molecule  {
0 1
  O        2.8443680    -0.4002740    -0.0000640
  C        0.5303490     0.2197810    -0.0000320
  C       -0.3650130     1.2954270     0.0000030
  C        0.0536120    -1.0979650    -0.0000100
  C       -1.7392770     1.0552920     0.0000660
  C       -1.3183870    -1.3327110     0.0000480
  C       -2.2153620    -0.2579650     0.0000850
  C        1.9872980     0.4782480    -0.0000900
  H        0.0154570     2.3161290    -0.0000170
  H        0.7719840    -1.9138740    -0.0000340
  H       -2.4382530     1.8879220     0.0000950
  H       -1.6949380    -2.3526680     0.0000610
  H       -3.2864430    -0.4457910     0.0001330
  H        2.2255745     1.3568033    -0.0001384
units angstrom
no_reorient  #important for SAPT in psi4, default
symmetry c1  #important for SAPT in psi4, default
}

set PROPERTIES_ORIGIN ["COM"]
properties('MP2/aug-cc-pvtz', properties = ['dipole'])
--------------------------------------------------------------------------

    Molecular point group: c1
  Charge       = 0
  Multiplicity = 1
  Basis Set: AUG-CC-PVTZ
    Blend: AUG-CC-PVTZ
  Basis Set: (AUG-CC-PVTZ AUX)
    Blend: AUG-CC-PVTZ-JKFIT

    Orbital Energies [Eh]
    ---------------------

    Doubly Occupied:

       1A    -20.552918     2A    -11.315132     3A    -11.263789
       4A    -11.260591     5A    -11.255214     6A    -11.253819
       7A    -11.252521     8A    -11.251606     9A     -1.379828
      10A     -1.171734    11A     -1.052904    12A     -1.033517
      13A     -0.918410    14A     -0.847993    15A     -0.815379
      16A     -0.730370    17A     -0.683845    18A     -0.651851
      19A     -0.622186    20A     -0.616536    21A     -0.605179
      22A     -0.550190    23A     -0.530193    24A     -0.510547
      25A     -0.498667    26A     -0.436874    27A     -0.356018
      28A     -0.351655

  @DF-RHF Final Energy:  -343.51906190717347

   => Energetics <=

    Nuclear Repulsion Energy =            321.5491387553356617
    One-Electron Energy =               -1102.5974676031296440
    Two-Electron Energy =                 437.5292669406205164
    Total Energy =                       -343.5190619071734659
  Basis Set: (AUG-CC-PVTZ AUX)
    Blend: AUG-CC-PVTZ-RI
    Molecular point group: c1

    Geometry (in Angstrom), charge = 0, multiplicity = 1:

       Center              X                  Y                   Z               Mass
    ------------   -----------------  -----------------  -----------------  -----------------
         O            2.804261548813    -0.388713438989    -0.000063214507    15.994914619570
         C            0.490242548813     0.231341561011    -0.000031214507    12.000000000000
         C           -0.405119451187     1.306987561011     0.000003785493    12.000000000000
         C            0.013505548813    -1.086404438989    -0.000009214507    12.000000000000
         C           -1.779383451187     1.066852561011     0.000066785493    12.000000000000
         C           -1.358493451187    -1.321150438989     0.000048785493    12.000000000000
         C           -2.255468451187    -0.246404438989     0.000085785493    12.000000000000
         C            1.947191548813     0.489808561011    -0.000089214507    12.000000000000
         H           -0.024649451187     2.327689561011    -0.000016214507     1.007825032230
         H            0.731877548813    -1.902313438989    -0.000033214507     1.007825032230
         H           -2.478359451187     1.899482561011     0.000095785493     1.007825032230
         H           -1.735044451187    -2.341107438989     0.000061785493     1.007825032230
         H           -3.326549451187    -0.434230438989     0.000133785493     1.007825032230
         H            2.185468048813     1.368363861011    -0.000137614507     1.007825032230

  Basis Set: AUG-CC-PVTZ
    Blend: AUG-CC-PVTZ
  Basis Set: (AUG-CC-PVTZ AUX)
    Blend: AUG-CC-PVTZ-JKFIT
	 Reference Energy          =    -343.5190619071734659 [Eh]
	 Singles Energy            =      -0.0000000000000000 [Eh]
	 Same-Spin Energy          =      -0.3633107558751225 [Eh]
	 Opposite-Spin Energy      =      -1.1286702288807697 [Eh]
	 Correlation Energy        =      -1.4919809847558922 [Eh]
	 Total Energy              =    -345.0110428919293781 [Eh]

	 ================> DF-SCS-MP2 Energies <==================
	-----------------------------------------------------------
	 SCS Same-Spin Scale       =       0.3333333333333333 [-]
	 SCS Opposite-Spin Scale   =       1.2000000000000000 [-]
	 SCS Same-Spin Energy      =      -0.1211035852917075 [Eh]
	 SCS Opposite-Spin Energy  =      -1.3544042746569236 [Eh]
	 SCS Correlation Energy    =      -1.4755078599486311 [Eh]
	 SCS Total Energy          =    -344.9945697671220728 [Eh]
	-----------------------------------------------------------

  Dipole Moment: [D]
     X:    -2.9503      Y:     1.4029      Z:     0.0000     Total:     3.2669

*** Psi4 exiting successfully. Buy a developer a beer!
