                               Psi4 1.3.2 release

  ==> Input File <==

--------------------------------------------------------------------------
#psi4
#
memory 32 gb

molecule  {
0 1
  O        2.8443680    -0.4002740    -0.0000640
  C        0.5303490     0.2197810    -0.0000320
  C       -0.3650130     1.2954270     0.0000030
  C        0.0998911    -1.1138001    -0.0000118
  C       -1.7392770     1.0552920     0.0000660
  C       -1.3183870    -1.3327110     0.0000480
  C       -2.2153620    -0.2579650     0.0000850
  C        1.9872980     0.4782480    -0.0000900
  H        0.0154570     2.3161290    -0.0000170
  H        0.7719840    -1.9138740    -0.0000340
  H       -2.4382530     1.8879220     0.0000950
  H       -1.6949380    -2.3526680     0.0000610
  H       -3.2864430    -0.4457910     0.0001330
  H        2.2779260     1.5498300    -0.0001490
units angstrom
no_reorient  #important for SAPT in psi4, default
symmetry c1  #important for SAPT in psi4, default
}

set PROPERTIES_ORIGIN ["COM"]
properties('MP2/aug-cc-pvtz', properties = ['dipole'])
--------------------------------------------------------------------------

    Molecular point group: c1
  Charge       = 0
  Multiplicity = 1
  Basis Set: AUG-CC-PVTZ
    Blend: AUG-CC-PVTZ
  Basis Set: (AUG-CC-PVTZ AUX)
    Blend: AUG-CC-PVTZ-JKFIT

    Orbital Energies [Eh]
    ---------------------

    Doubly Occupied:

       1A    -20.555793     2A    -11.337945     3A    -11.263984
       4A    -11.261098     5A    -11.259307     6A    -11.257441
       7A    -11.256168     8A    -11.255219     9A     -1.381005
      10A     -1.169069    11A     -1.051536    12A     -1.030977
      13A     -0.894488    14A     -0.849838    15A     -0.791576
      16A     -0.720043    17A     -0.681310    18A     -0.653500
      19A     -0.623270    20A     -0.613427    21A     -0.603229
      22A     -0.551104    23A     -0.527344    24A     -0.518039
      25A     -0.498329    26A     -0.429705    27A     -0.356383
      28A     -0.350140

  @DF-RHF Final Energy:  -343.54420943573604

   => Energetics <=

    Nuclear Repulsion Energy =            320.0157931928993662
    One-Electron Energy =               -1099.6374758525046218
    Two-Electron Energy =                 436.0774732238692764
    Total Energy =                       -343.5442094357360361
  Basis Set: (AUG-CC-PVTZ AUX)
    Blend: AUG-CC-PVTZ-RI
    Molecular point group: c1

    Geometry (in Angstrom), charge = 0, multiplicity = 1:

       Center              X                  Y                   Z               Mass
    ------------   -----------------  -----------------  -----------------  -----------------
         O            2.798526923595    -0.388756025378    -0.000062910071    15.994914619570
         C            0.484507923595     0.231298974622    -0.000030910071    12.000000000000
         C           -0.410854076405     1.306944974622     0.000004089929    12.000000000000
         C            0.054050023595    -1.102282125378    -0.000010710071    12.000000000000
         C           -1.785118076405     1.066809974622     0.000067089929    12.000000000000
         C           -1.364228076405    -1.321193025378     0.000049089929    12.000000000000
         C           -2.261203076405    -0.246447025378     0.000086089929    12.000000000000
         C            1.941456923595     0.489765974622    -0.000088910071    12.000000000000
         H           -0.030384076405     2.327646974622    -0.000015910071     1.007825032230
         H            0.726142923595    -1.902356025378    -0.000032910071     1.007825032230
         H           -2.484094076405     1.899439974622     0.000096089929     1.007825032230
         H           -1.740779076405    -2.341150025378     0.000062089929     1.007825032230
         H           -3.332284076405    -0.434273025378     0.000134089929     1.007825032230
         H            2.232084923595     1.561347974622    -0.000147910071     1.007825032230

  Basis Set: AUG-CC-PVTZ
    Blend: AUG-CC-PVTZ
  Basis Set: (AUG-CC-PVTZ AUX)
    Blend: AUG-CC-PVTZ-JKFIT
	 Reference Energy          =    -343.5442094357360361 [Eh]
	 Singles Energy            =      -0.0000000000000000 [Eh]
	 Same-Spin Energy          =      -0.3639399216634071 [Eh]
	 Opposite-Spin Energy      =      -1.1300301351952142 [Eh]
	 Correlation Energy        =      -1.4939700568586214 [Eh]
	 Total Energy              =    -345.0381794925946792 [Eh]

	 ================> DF-SCS-MP2 Energies <==================
	-----------------------------------------------------------
	 SCS Same-Spin Scale       =       0.3333333333333333 [-]
	 SCS Opposite-Spin Scale   =       1.2000000000000000 [-]
	 SCS Same-Spin Energy      =      -0.1213133072211357 [Eh]
	 SCS Opposite-Spin Energy  =      -1.3560361622342569 [Eh]
	 SCS Correlation Energy    =      -1.4773494694553926 [Eh]
	 SCS Total Energy          =    -345.0215589051914549 [Eh]
	-----------------------------------------------------------

  Dipole Moment: [D]
     X:    -3.0161      Y:     1.2312      Z:     0.0000     Total:     3.2577

*** Psi4 exiting successfully. Buy a developer a beer!
