                               Psi4 1.4a3.dev225

  ==> Input File <==

--------------------------------------------------------------------------
#psi4
#
memory 32 gb

molecule  {
0 1
  O        2.8443490    -0.4002910    -0.0000960
  C        0.5303130     0.2198450    -0.0000250
  C       -0.3650130     1.2954800     0.0000070
  C        0.0536480    -1.0979670    -0.0000020
  C       -1.7393110     1.0553020     0.0000660
  C       -1.3183250    -1.3328010     0.0000550
  C       -2.2153260    -0.2579870     0.0000890
  C        1.9733079     0.4925791    -0.0000848
  H        0.0153590     2.3162280    -0.0000130
  H        0.7720410    -1.9138490    -0.0000260
  H       -2.4383560     1.8878700     0.0000920
  H       -1.6950010    -2.3527060     0.0000730
  H       -3.2864200    -0.4458710     0.0001340
  H        2.2780260     1.5498410    -0.0001220
units angstrom
no_reorient  #important for SAPT in psi4, default
symmetry c1  #important for SAPT in psi4, default
}

set PROPERTIES_ORIGIN ["COM"]
properties('MP2/aug-cc-pvtz', properties = ['dipole'])
--------------------------------------------------------------------------

    Molecular point group: c1
  Charge       = 0
  Multiplicity = 1
  Basis Set: AUG-CC-PVTZ
    Blend: AUG-CC-PVTZ
  Basis Set: (AUG-CC-PVTZ AUX)
    Blend: AUG-CC-PVTZ-JKFIT

    Orbital Energies [Eh]
    ---------------------

    Doubly Occupied:

       1A    -20.554309     2A    -11.339391     3A    -11.265295
       4A    -11.262681     5A    -11.258088     6A    -11.255731
       7A    -11.254860     8A    -11.253213     9A     -1.367329
      10A     -1.173652    11A     -1.053455    12A     -1.035188
      13A     -0.898464    14A     -0.848288    15A     -0.794721
      16A     -0.720803    17A     -0.678313    18A     -0.651992
      19A     -0.620315    20A     -0.609504    21A     -0.605661
      22A     -0.548773    23A     -0.530729    24A     -0.511910
      25A     -0.496108    26A     -0.432806    27A     -0.357357
      28A     -0.353300

  @DF-RHF Final Energy:  -343.54509833016328

   => Energetics <=

    Nuclear Repulsion Energy =            320.3769788421239468
    One-Electron Energy =               -1100.3796824117714550
    Two-Electron Energy =                 436.4576052394842804
    Total Energy =                       -343.5450983301632846
  Basis Set: (AUG-CC-PVTZ AUX)
    Blend: AUG-CC-PVTZ-RI
    Molecular point group: c1

    Geometry (in Angstrom), charge = 0, multiplicity = 1:

       Center              X                  Y                   Z               Mass
    ------------   -----------------  -----------------  -----------------  -----------------
         O            2.805324580035    -0.392185292912    -0.000094736047    15.994914619570
         C            0.491288580035     0.227950707088    -0.000023736047    12.000000000000
         C           -0.404037419965     1.303585707088     0.000008263953    12.000000000000
         C            0.014623580035    -1.089861292912    -0.000000736047    12.000000000000
         C           -1.778335419965     1.063407707088     0.000067263953    12.000000000000
         C           -1.357349419965    -1.324695292912     0.000056263953    12.000000000000
         C           -2.254350419965    -0.249881292912     0.000090263953    12.000000000000
         C            1.934283480035     0.500684807088    -0.000083536047    12.000000000000
         H           -0.023665419965     2.324333707088    -0.000011736047     1.007825032230
         H            0.733016580035    -1.905743292912    -0.000024736047     1.007825032230
         H           -2.477380419965     1.895975707088     0.000093263953     1.007825032230
         H           -1.734025419965    -2.344600292912     0.000074263953     1.007825032230
         H           -3.325444419965    -0.437765292912     0.000135263953     1.007825032230
         H            2.239001580035     1.557946707088    -0.000120736047     1.007825032230

  Basis Set: AUG-CC-PVTZ
    Blend: AUG-CC-PVTZ
  Basis Set: (AUG-CC-PVTZ AUX)
    Blend: AUG-CC-PVTZ-JKFIT
	 Reference Energy          =    -343.5450983301632846 [Eh]
	 Singles Energy            =      -0.0000000000000000 [Eh]
	 Same-Spin Energy          =      -0.3644696533657307 [Eh]
	 Opposite-Spin Energy      =      -1.1309389291593259 [Eh]
	 Correlation Energy        =      -1.4954085825250565 [Eh]
	 Total Energy              =    -345.0405069126883291 [Eh]

	 ================> DF-SCS-MP2 Energies <==================
	-----------------------------------------------------------
	 SCS Same-Spin Scale       =       0.3333333333333333 [-]
	 SCS Opposite-Spin Scale   =       1.2000000000000000 [-]
	 SCS Same-Spin Energy      =      -0.1214898844552436 [Eh]
	 SCS Opposite-Spin Energy  =      -1.3571267149911910 [Eh]
	 SCS Correlation Energy    =      -1.4786165994464344 [Eh]
	 SCS Total Energy          =    -345.0237149296096959 [Eh]
	-----------------------------------------------------------

  Dipole Moment: [D]
     X:    -3.1098      Y:     1.2940      Z:     0.0001     Total:     3.3683

*** Psi4 exiting successfully. Buy a developer a beer!
