                               Psi4 1.3.2 release

  ==> Input File <==

--------------------------------------------------------------------------
#psi4
#
memory 32 gb

molecule  {
0 1
  O        2.8443680    -0.4002740    -0.0000640
  C        0.5350818     0.1943931    -0.0000310
  C       -0.3650130     1.2954270     0.0000030
  C        0.0536120    -1.0979650    -0.0000100
  C       -1.7392770     1.0552920     0.0000660
  C       -1.3183870    -1.3327110     0.0000480
  C       -2.2153620    -0.2579650     0.0000850
  C        1.9872980     0.4782480    -0.0000900
  H        0.0154570     2.3161290    -0.0000170
  H        0.7719840    -1.9138740    -0.0000340
  H       -2.4382530     1.8879220     0.0000950
  H       -1.6949380    -2.3526680     0.0000610
  H       -3.2864430    -0.4457910     0.0001330
  H        2.2779260     1.5498300    -0.0001490
units angstrom
no_reorient  #important for SAPT in psi4, default
symmetry c1  #important for SAPT in psi4, default
}

set PROPERTIES_ORIGIN ["COM"]
properties('MP2/aug-cc-pvtz', properties = ['dipole'])
--------------------------------------------------------------------------

    Molecular point group: c1
  Charge       = 0
  Multiplicity = 1
  Basis Set: AUG-CC-PVTZ
    Blend: AUG-CC-PVTZ
  Basis Set: (AUG-CC-PVTZ AUX)
    Blend: AUG-CC-PVTZ-JKFIT

    Orbital Energies [Eh]
    ---------------------

    Doubly Occupied:

       1A    -20.555699     2A    -11.338739     3A    -11.265748
       4A    -11.261200     5A    -11.255636     6A    -11.254218
       7A    -11.254168     8A    -11.252497     9A     -1.381181
      10A     -1.172199    11A     -1.050492    12A     -1.034667
      13A     -0.894932    14A     -0.848448    15A     -0.791747
      16A     -0.720466    17A     -0.677679    18A     -0.653147
      19A     -0.622385    20A     -0.611936    21A     -0.604722
      22A     -0.551837    23A     -0.531293    24A     -0.510031
      25A     -0.500065    26A     -0.431301    27A     -0.355885
      28A     -0.353370

  @DF-RHF Final Energy:  -343.54713552487516

   => Energetics <=

    Nuclear Repulsion Energy =            320.5182225229328878
    One-Electron Energy =               -1100.6593398192171662
    Two-Electron Energy =                 436.5939817714091191
    Total Energy =                       -343.5471355248751593
  Basis Set: (AUG-CC-PVTZ AUX)
    Blend: AUG-CC-PVTZ-RI
    Molecular point group: c1

    Geometry (in Angstrom), charge = 0, multiplicity = 1:

       Center              X                  Y                   Z               Mass
    ------------   -----------------  -----------------  -----------------  -----------------
         O            2.803228421450    -0.387675003272    -0.000063226927    15.994914619570
         C            0.493942221450     0.206992096728    -0.000030226927    12.000000000000
         C           -0.406152578550     1.308025996728     0.000003773073    12.000000000000
         C            0.012472421450    -1.085366003272    -0.000009226927    12.000000000000
         C           -1.780416578550     1.067890996728     0.000066773073    12.000000000000
         C           -1.359526578550    -1.320112003272     0.000048773073    12.000000000000
         C           -2.256501578550    -0.245366003272     0.000085773073    12.000000000000
         C            1.946158421450     0.490846996728    -0.000089226927    12.000000000000
         H           -0.025682578550     2.328727996728    -0.000016226927     1.007825032230
         H            0.730844421450    -1.901275003272    -0.000033226927     1.007825032230
         H           -2.479392578550     1.900520996728     0.000095773073     1.007825032230
         H           -1.736077578550    -2.340069003272     0.000061773073     1.007825032230
         H           -3.327582578550    -0.433192003272     0.000133773073     1.007825032230
         H            2.236786421450     1.562428996728    -0.000148226927     1.007825032230

  Basis Set: AUG-CC-PVTZ
    Blend: AUG-CC-PVTZ
  Basis Set: (AUG-CC-PVTZ AUX)
    Blend: AUG-CC-PVTZ-JKFIT
	 Reference Energy          =    -343.5471355248751593 [Eh]
	 Singles Energy            =      -0.0000000000000000 [Eh]
	 Same-Spin Energy          =      -0.3639334947530569 [Eh]
	 Opposite-Spin Energy      =      -1.1296938599635569 [Eh]
	 Correlation Energy        =      -1.4936273547166139 [Eh]
	 Total Energy              =    -345.0407628795917958 [Eh]

	 ================> DF-SCS-MP2 Energies <==================
	-----------------------------------------------------------
	 SCS Same-Spin Scale       =       0.3333333333333333 [-]
	 SCS Opposite-Spin Scale   =       1.2000000000000000 [-]
	 SCS Same-Spin Energy      =      -0.1213111649176856 [Eh]
	 SCS Opposite-Spin Energy  =      -1.3556326319562682 [Eh]
	 SCS Correlation Energy    =      -1.4769437968739538 [Eh]
	 SCS Total Energy          =    -345.0240793217491273 [Eh]
	-----------------------------------------------------------

  Dipole Moment: [D]
     X:    -2.9964      Y:     1.2590      Z:     0.0000     Total:     3.2501

*** Psi4 exiting successfully. Buy a developer a beer!
