                               Psi4 1.3.2 release

  ==> Input File <==

--------------------------------------------------------------------------
#psi4
#
memory 32 gb

molecule  {
0 1
  O        2.8443680    -0.4002740    -0.0000640
  C        0.5303490     0.2197810    -0.0000320
  C       -0.3650130     1.2954270     0.0000030
  C        0.0536120    -1.0979650    -0.0000100
  C       -1.7392770     1.0552920     0.0000660
  C       -1.3183870    -1.3327110     0.0000480
  C       -2.2153620    -0.2579650     0.0000850
  C        1.7903728     0.4433129    -0.0000822
  H        0.0154570     2.3161290    -0.0000170
  H        0.7719840    -1.9138740    -0.0000340
  H       -2.4382530     1.8879220     0.0000950
  H       -1.6949380    -2.3526680     0.0000610
  H       -3.2864430    -0.4457910     0.0001330
  H        2.2779260     1.5498300    -0.0001490
units angstrom
no_reorient  #important for SAPT in psi4, default
symmetry c1  #important for SAPT in psi4, default
}

set PROPERTIES_ORIGIN ["COM"]
properties('MP2/aug-cc-pvtz', properties = ['dipole'])
--------------------------------------------------------------------------

    Molecular point group: c1
  Charge       = 0
  Multiplicity = 1
  Basis Set: AUG-CC-PVTZ
    Blend: AUG-CC-PVTZ
  Basis Set: (AUG-CC-PVTZ AUX)
    Blend: AUG-CC-PVTZ-JKFIT

    Orbital Energies [Eh]
    ---------------------

    Doubly Occupied:

       1A    -20.528801     2A    -11.331257     3A    -11.283128
       4A    -11.282252     5A    -11.274902     6A    -11.264643
       7A    -11.262725     8A    -11.246366     9A     -1.296159
      10A     -1.192765    11A     -1.090441    12A     -1.048800
      13A     -0.927895    14A     -0.864088    15A     -0.790509
      16A     -0.719219    17A     -0.685903    18A     -0.657952
      19A     -0.626312    20A     -0.618188    21A     -0.560517
      22A     -0.559283    23A     -0.542102    24A     -0.515284
      25A     -0.471949    26A     -0.411464    27A     -0.367555
      28A     -0.358049

  @DF-RHF Final Energy:  -343.47691516738826

   => Energetics <=

    Nuclear Repulsion Energy =            322.4466985605048421
    One-Electron Energy =               -1104.2902076658242549
    Two-Electron Energy =                 438.3665939379311567
    Total Energy =                       -343.4769151673882561
  Basis Set: (AUG-CC-PVTZ AUX)
    Blend: AUG-CC-PVTZ-RI
    Molecular point group: c1

    Geometry (in Angstrom), charge = 0, multiplicity = 1:

       Center              X                  Y                   Z               Mass
    ------------   -----------------  -----------------  -----------------  -----------------
         O            2.826048616137    -0.386594614879    -0.000063996434    15.994914619570
         C            0.512029616137     0.233460385121    -0.000031996434    12.000000000000
         C           -0.383332383863     1.309106385121     0.000003003566    12.000000000000
         C            0.035292616137    -1.084285614879    -0.000009996434    12.000000000000
         C           -1.757596383863     1.068971385121     0.000066003566    12.000000000000
         C           -1.336706383863    -1.319031614879     0.000048003566    12.000000000000
         C           -2.233681383863    -0.244285614879     0.000085003566    12.000000000000
         C            1.772053416137     0.456992285121    -0.000082196434    12.000000000000
         H           -0.002862383863     2.329808385121    -0.000016996434     1.007825032230
         H            0.753664616137    -1.900194614879    -0.000033996434     1.007825032230
         H           -2.456572383863     1.901601385121     0.000095003566     1.007825032230
         H           -1.713257383863    -2.338988614879     0.000061003566     1.007825032230
         H           -3.304762383863    -0.432111614879     0.000133003566     1.007825032230
         H            2.259606616137     1.563509385121    -0.000148996434     1.007825032230

  Basis Set: AUG-CC-PVTZ
    Blend: AUG-CC-PVTZ
  Basis Set: (AUG-CC-PVTZ AUX)
    Blend: AUG-CC-PVTZ-JKFIT
	 Reference Energy          =    -343.4769151673882561 [Eh]
	 Singles Energy            =      -0.0000000000000000 [Eh]
	 Same-Spin Energy          =      -0.3698826870171233 [Eh]
	 Opposite-Spin Energy      =      -1.1409710021667394 [Eh]
	 Correlation Energy        =      -1.5108536891838629 [Eh]
	 Total Energy              =    -344.9877688565721314 [Eh]

	 ================> DF-SCS-MP2 Energies <==================
	-----------------------------------------------------------
	 SCS Same-Spin Scale       =       0.3333333333333333 [-]
	 SCS Opposite-Spin Scale   =       1.2000000000000000 [-]
	 SCS Same-Spin Energy      =      -0.1232942290057078 [Eh]
	 SCS Opposite-Spin Energy  =      -1.3691652026000873 [Eh]
	 SCS Correlation Energy    =      -1.4924594316057951 [Eh]
	 SCS Total Energy          =    -344.9693745989940794 [Eh]
	-----------------------------------------------------------

  Dipole Moment: [D]
     X:    -4.3859      Y:     1.0723      Z:     0.0001     Total:     4.5151

*** Psi4 exiting successfully. Buy a developer a beer!
