                               Psi4 1.3.2 release

  ==> Input File <==

--------------------------------------------------------------------------
#psi4
#
memory 32 gb

molecule  {
0 1
  O        2.8443680    -0.4002740    -0.0000640
  C        0.5653475     0.0689043    -0.0000261
  C       -0.3650130     1.2954270     0.0000030
  C        0.0536120    -1.0979650    -0.0000100
  C       -1.7392770     1.0552920     0.0000660
  C       -1.3183870    -1.3327110     0.0000480
  C       -2.2153620    -0.2579650     0.0000850
  C        1.9872980     0.4782480    -0.0000900
  H        0.0154570     2.3161290    -0.0000170
  H        0.7719840    -1.9138740    -0.0000340
  H       -2.4382530     1.8879220     0.0000950
  H       -1.6949380    -2.3526680     0.0000610
  H       -3.2864430    -0.4457910     0.0001330
  H        2.2779260     1.5498300    -0.0001490
units angstrom
no_reorient  #important for SAPT in psi4, default
symmetry c1  #important for SAPT in psi4, default
}

set PROPERTIES_ORIGIN ["COM"]
properties('MP2/aug-cc-pvtz', properties = ['dipole'])
--------------------------------------------------------------------------

    Molecular point group: c1
  Charge       = 0
  Multiplicity = 1
  Basis Set: AUG-CC-PVTZ
    Blend: AUG-CC-PVTZ
  Basis Set: (AUG-CC-PVTZ AUX)
    Blend: AUG-CC-PVTZ-JKFIT

    Orbital Energies [Eh]
    ---------------------

    Doubly Occupied:

       1A    -20.554999     2A    -11.339678     3A    -11.270135
       4A    -11.259476     5A    -11.253307     6A    -11.253212
       7A    -11.252970     8A    -11.240481     9A     -1.382986
      10A     -1.172928    11A     -1.058697    12A     -1.025190
      13A     -0.893643    14A     -0.855278    15A     -0.783141
      16A     -0.723124    17A     -0.680573    18A     -0.653325
      19A     -0.631789    20A     -0.608401    21A     -0.594507
      22A     -0.553501    23A     -0.535982    24A     -0.499319
      25A     -0.493874    26A     -0.430299    27A     -0.371803
      28A     -0.338972

  @DF-RHF Final Energy:  -343.51698881689845

   => Energetics <=

    Nuclear Repulsion Energy =            320.7900802738053585
    One-Electron Energy =               -1101.1909551820108391
    Two-Electron Energy =                 436.8838860913069766
    Total Energy =                       -343.5169888168984471
  Basis Set: (AUG-CC-PVTZ AUX)
    Blend: AUG-CC-PVTZ-RI
    Molecular point group: c1

    Geometry (in Angstrom), charge = 0, multiplicity = 1:

       Center              X                  Y                   Z               Mass
    ------------   -----------------  -----------------  -----------------  -----------------
         O            2.799803468479    -0.373474332597    -0.000063781425    15.994914619570
         C            0.520782968479     0.095703967403    -0.000025881425    12.000000000000
         C           -0.409577531521     1.322226667403     0.000003218575    12.000000000000
         C            0.009047468479    -1.071165332597    -0.000009781425    12.000000000000
         C           -1.783841531521     1.082091667403     0.000066218575    12.000000000000
         C           -1.362951531521    -1.305911332597     0.000048218575    12.000000000000
         C           -2.259926531521    -0.231165332597     0.000085218575    12.000000000000
         C            1.942733468479     0.505047667403    -0.000089781425    12.000000000000
         H           -0.029107531521     2.342928667403    -0.000016781425     1.007825032230
         H            0.727419468479    -1.887074332597    -0.000033781425     1.007825032230
         H           -2.482817531521     1.914721667403     0.000095218575     1.007825032230
         H           -1.739502531521    -2.325868332597     0.000061218575     1.007825032230
         H           -3.331007531521    -0.418991332597     0.000133218575     1.007825032230
         H            2.233361468479     1.576629667403    -0.000148781425     1.007825032230

  Basis Set: AUG-CC-PVTZ
    Blend: AUG-CC-PVTZ
  Basis Set: (AUG-CC-PVTZ AUX)
    Blend: AUG-CC-PVTZ-JKFIT
	 Reference Energy          =    -343.5169888168984471 [Eh]
	 Singles Energy            =      -0.0000000000000000 [Eh]
	 Same-Spin Energy          =      -0.3637192970817912 [Eh]
	 Opposite-Spin Energy      =      -1.1309674003190782 [Eh]
	 Correlation Energy        =      -1.4946866974008695 [Eh]
	 Total Energy              =    -345.0116755142993270 [Eh]

	 ================> DF-SCS-MP2 Energies <==================
	-----------------------------------------------------------
	 SCS Same-Spin Scale       =       0.3333333333333333 [-]
	 SCS Opposite-Spin Scale   =       1.2000000000000000 [-]
	 SCS Same-Spin Energy      =      -0.1212397656939304 [Eh]
	 SCS Opposite-Spin Energy  =      -1.3571608803828938 [Eh]
	 SCS Correlation Energy    =      -1.4784006460768242 [Eh]
	 SCS Total Energy          =    -344.9953894629752540 [Eh]
	-----------------------------------------------------------

  Dipole Moment: [D]
     X:    -2.8850      Y:     1.3143      Z:     0.0000     Total:     3.1703

*** Psi4 exiting successfully. Buy a developer a beer!
