                               Psi4 1.3.2 release

  ==> Input File <==

--------------------------------------------------------------------------
#psi4
#
memory 32 gb

molecule  {
0 1
  O        2.9035628    -0.3383478    -0.0000683
  C        0.5303490     0.2197810    -0.0000320
  C       -0.3650130     1.2954270     0.0000030
  C        0.0536120    -1.0979650    -0.0000100
  C       -1.7392770     1.0552920     0.0000660
  C       -1.3183870    -1.3327110     0.0000480
  C       -2.2153620    -0.2579650     0.0000850
  C        1.9872980     0.4782480    -0.0000900
  H        0.0154570     2.3161290    -0.0000170
  H        0.7719840    -1.9138740    -0.0000340
  H       -2.4382530     1.8879220     0.0000950
  H       -1.6949380    -2.3526680     0.0000610
  H       -3.2864430    -0.4457910     0.0001330
  H        2.2779260     1.5498300    -0.0001490
units angstrom
no_reorient  #important for SAPT in psi4, default
symmetry c1  #important for SAPT in psi4, default
}

set PROPERTIES_ORIGIN ["COM"]
properties('MP2/aug-cc-pvtz', properties = ['dipole'])
--------------------------------------------------------------------------

    Molecular point group: c1
  Charge       = 0
  Multiplicity = 1
  Basis Set: AUG-CC-PVTZ
    Blend: AUG-CC-PVTZ
  Basis Set: (AUG-CC-PVTZ AUX)
    Blend: AUG-CC-PVTZ-JKFIT

    Orbital Energies [Eh]
    ---------------------

    Doubly Occupied:

       1A    -20.555751     2A    -11.337912     3A    -11.266218
       4A    -11.263222     5A    -11.259298     6A    -11.257910
       7A    -11.255760     8A    -11.253950     9A     -1.379933
      10A     -1.174463    11A     -1.053259    12A     -1.036101
      13A     -0.895763    14A     -0.848999    15A     -0.793206
      16A     -0.720354    17A     -0.678135    18A     -0.654694
      19A     -0.621376    20A     -0.613354    21A     -0.606459
      22A     -0.551762    23A     -0.532524    24A     -0.513179
      25A     -0.501187    26A     -0.428527    27A     -0.358300
      28A     -0.355001

  @DF-RHF Final Energy:  -343.54712363396970

   => Energetics <=

    Nuclear Repulsion Energy =            319.7983549586669483
    One-Electron Energy =               -1099.1577608393035916
    Two-Electron Energy =                 435.8122822466668822
    Total Energy =                       -343.5471236339697043
  Basis Set: (AUG-CC-PVTZ AUX)
    Blend: AUG-CC-PVTZ-RI
    Molecular point group: c1

    Geometry (in Angstrom), charge = 0, multiplicity = 1:

       Center              X                  Y                   Z               Mass
    ------------   -----------------  -----------------  -----------------  -----------------
         O            2.854030100738    -0.337962461378    -0.000066765170    15.994914619570
         C            0.480816300738     0.220166338622    -0.000030465170    12.000000000000
         C           -0.414545699262     1.295812338622     0.000004534830    12.000000000000
         C            0.004079300738    -1.097579661378    -0.000008465170    12.000000000000
         C           -1.788809699262     1.055677338622     0.000067534830    12.000000000000
         C           -1.367919699262    -1.332325661378     0.000049534830    12.000000000000
         C           -2.264894699262    -0.257579661378     0.000086534830    12.000000000000
         C            1.937765300738     0.478633338622    -0.000088465170    12.000000000000
         H           -0.034075699262     2.316514338622    -0.000015465170     1.007825032230
         H            0.722451300738    -1.913488661378    -0.000032465170     1.007825032230
         H           -2.487785699262     1.888307338622     0.000096534830     1.007825032230
         H           -1.744470699262    -2.352282661378     0.000062534830     1.007825032230
         H           -3.335975699262    -0.445405661378     0.000134534830     1.007825032230
         H            2.228393300738     1.550215338622    -0.000147465170     1.007825032230

  Basis Set: AUG-CC-PVTZ
    Blend: AUG-CC-PVTZ
  Basis Set: (AUG-CC-PVTZ AUX)
    Blend: AUG-CC-PVTZ-JKFIT
	 Reference Energy          =    -343.5471236339697043 [Eh]
	 Singles Energy            =      -0.0000000000000000 [Eh]
	 Same-Spin Energy          =      -0.3638080045494909 [Eh]
	 Opposite-Spin Energy      =      -1.1296710013779865 [Eh]
	 Correlation Energy        =      -1.4934790059274774 [Eh]
	 Total Energy              =    -345.0406026398972017 [Eh]

	 ================> DF-SCS-MP2 Energies <==================
	-----------------------------------------------------------
	 SCS Same-Spin Scale       =       0.3333333333333333 [-]
	 SCS Opposite-Spin Scale   =       1.2000000000000000 [-]
	 SCS Same-Spin Energy      =      -0.1212693348498303 [Eh]
	 SCS Opposite-Spin Energy  =      -1.3556052016535838 [Eh]
	 SCS Correlation Energy    =      -1.4768745365034142 [Eh]
	 SCS Total Energy          =    -345.0239981704731349 [Eh]
	-----------------------------------------------------------

  Dipole Moment: [D]
     X:    -3.2129      Y:     1.1249      Z:     0.0000     Total:     3.4041

*** Psi4 exiting successfully. Buy a developer a beer!
