                               Psi4 1.4a3.dev225

  ==> Input File <==

--------------------------------------------------------------------------
#psi4
#
memory 32 gb

molecule  {
0 1
  O        2.8443490    -0.4002910    -0.0000960
  C        0.5303130     0.2198450    -0.0000250
  C       -0.3650130     1.2954800     0.0000070
  C        0.0536480    -1.0979670    -0.0000020
  C       -1.7393110     1.0553020     0.0000660
  C       -1.3183250    -1.3328010     0.0000550
  C       -2.2153260    -0.2579870     0.0000890
  C        1.9675814     0.4747702    -0.0000842
  H        0.0153590     2.3162280    -0.0000130
  H        0.7720410    -1.9138490    -0.0000260
  H       -2.4383560     1.8878700     0.0000920
  H       -1.6950010    -2.3527060     0.0000730
  H       -3.2864200    -0.4458710     0.0001340
  H        2.2780260     1.5498410    -0.0001220
units angstrom
no_reorient  #important for SAPT in psi4, default
symmetry c1  #important for SAPT in psi4, default
}

set PROPERTIES_ORIGIN ["COM"]
properties('MP2/aug-cc-pvtz', properties = ['dipole'])
--------------------------------------------------------------------------

    Molecular point group: c1
  Charge       = 0
  Multiplicity = 1
  Basis Set: AUG-CC-PVTZ
    Blend: AUG-CC-PVTZ
  Basis Set: (AUG-CC-PVTZ AUX)
    Blend: AUG-CC-PVTZ-JKFIT

    Orbital Energies [Eh]
    ---------------------

    Doubly Occupied:

       1A    -20.554062     2A    -11.338659     3A    -11.265964
       4A    -11.263242     5A    -11.258401     6A    -11.255241
       7A    -11.255129     8A    -11.253401     9A     -1.372513
      10A     -1.174333    11A     -1.054642    12A     -1.035660
      13A     -0.898128    14A     -0.848927    15A     -0.792346
      16A     -0.720123    17A     -0.678304    18A     -0.653239
      19A     -0.620694    20A     -0.610300    21A     -0.605674
      22A     -0.551049    23A     -0.531335    24A     -0.512388
      25A     -0.497844    26A     -0.430986    27A     -0.357776
      28A     -0.353914

  @DF-RHF Final Energy:  -343.54602055714423

   => Energetics <=

    Nuclear Repulsion Energy =            320.6360529415218252
    One-Electron Energy =               -1100.8755978989702271
    Two-Electron Energy =                 436.6935244003041703
    Total Energy =                       -343.5460205571442316
  Basis Set: (AUG-CC-PVTZ AUX)
    Blend: AUG-CC-PVTZ-RI
    Molecular point group: c1

    Geometry (in Angstrom), charge = 0, multiplicity = 1:

       Center              X                  Y                   Z               Mass
    ------------   -----------------  -----------------  -----------------  -----------------
         O            2.805972607115    -0.390169986973    -0.000094803945    15.994914619570
         C            0.491936607115     0.229966013027    -0.000023803945    12.000000000000
         C           -0.403389392885     1.305601013027     0.000008196055    12.000000000000
         C            0.015271607115    -1.087845986973    -0.000000803945    12.000000000000
         C           -1.777687392885     1.065423013027     0.000067196055    12.000000000000
         C           -1.356701392885    -1.322679986973     0.000056196055    12.000000000000
         C           -2.253702392885    -0.247865986973     0.000090196055    12.000000000000
         C            1.929205007115     0.484891213027    -0.000083003945    12.000000000000
         H           -0.023017392885     2.326349013027    -0.000011803945     1.007825032230
         H            0.733664607115    -1.903727986973    -0.000024803945     1.007825032230
         H           -2.476732392885     1.897991013027     0.000093196055     1.007825032230
         H           -1.733377392885    -2.342584986973     0.000074196055     1.007825032230
         H           -3.324796392885    -0.435749986973     0.000135196055     1.007825032230
         H            2.239649607115     1.559962013027    -0.000120803945     1.007825032230

  Basis Set: AUG-CC-PVTZ
    Blend: AUG-CC-PVTZ
  Basis Set: (AUG-CC-PVTZ AUX)
    Blend: AUG-CC-PVTZ-JKFIT
	 Reference Energy          =    -343.5460205571442316 [Eh]
	 Singles Energy            =      -0.0000000000000000 [Eh]
	 Same-Spin Energy          =      -0.3643684256949050 [Eh]
	 Opposite-Spin Energy      =      -1.1305290654704976 [Eh]
	 Correlation Energy        =      -1.4948974911654025 [Eh]
	 Total Energy              =    -345.0409180483096065 [Eh]

	 ================> DF-SCS-MP2 Energies <==================
	-----------------------------------------------------------
	 SCS Same-Spin Scale       =       0.3333333333333333 [-]
	 SCS Opposite-Spin Scale   =       1.2000000000000000 [-]
	 SCS Same-Spin Energy      =      -0.1214561418983017 [Eh]
	 SCS Opposite-Spin Energy  =      -1.3566348785645970 [Eh]
	 SCS Correlation Energy    =      -1.4780910204628985 [Eh]
	 SCS Total Energy          =    -345.0241115776071297 [Eh]
	-----------------------------------------------------------

  Dipole Moment: [D]
     X:    -3.1604      Y:     1.2324      Z:     0.0001     Total:     3.3922

*** Psi4 exiting successfully. Buy a developer a beer!
