                               Psi4 1.3.2 release

  ==> Input File <==

--------------------------------------------------------------------------
#psi4
#
memory 32 gb

molecule  {
0 1
  O        2.8443680    -0.4002740    -0.0000640
  C        0.5303490     0.2197810    -0.0000320
  C       -0.3650130     1.2954270     0.0000030
  C        0.0536120    -1.0979650    -0.0000100
  C       -1.7392770     1.0552920     0.0000660
  C       -1.3183870    -1.3327110     0.0000480
  C       -2.2153620    -0.2579650     0.0000850
  C        1.9174666     0.5498272    -0.0000921
  H        0.0154570     2.3161290    -0.0000170
  H        0.7719840    -1.9138740    -0.0000340
  H       -2.4382530     1.8879220     0.0000950
  H       -1.6949380    -2.3526680     0.0000610
  H       -3.2864430    -0.4457910     0.0001330
  H        2.2779260     1.5498300    -0.0001490
units angstrom
no_reorient  #important for SAPT in psi4, default
symmetry c1  #important for SAPT in psi4, default
}

set PROPERTIES_ORIGIN ["COM"]
properties('MP2/aug-cc-pvtz', properties = ['dipole'])
--------------------------------------------------------------------------

    Molecular point group: c1
  Charge       = 0
  Multiplicity = 1
  Basis Set: AUG-CC-PVTZ
    Blend: AUG-CC-PVTZ
  Basis Set: (AUG-CC-PVTZ AUX)
    Blend: AUG-CC-PVTZ-JKFIT

    Orbital Energies [Eh]
    ---------------------

    Doubly Occupied:

       1A    -20.546346     2A    -11.340807     3A    -11.269364
       4A    -11.267606     5A    -11.262913     6A    -11.257246
       7A    -11.257164     8A    -11.256288     9A     -1.317474
      10A     -1.178128    11A     -1.062340    12A     -1.038551
      13A     -0.910234    14A     -0.851935    15A     -0.800948
      16A     -0.725389    17A     -0.682544    18A     -0.651844
      19A     -0.622787    20A     -0.609797    21A     -0.585374
      22A     -0.544118    23A     -0.531511    24A     -0.512959
      25A     -0.476396    26A     -0.434902    27A     -0.359925
      28A     -0.353621

  @DF-RHF Final Energy:  -343.52257179501163

   => Energetics <=

    Nuclear Repulsion Energy =            320.0898731700220878
    One-Electron Energy =               -1099.8078717987043547
    Two-Electron Energy =                 436.1954268336706377
    Total Energy =                       -343.5225717950116291
  Basis Set: (AUG-CC-PVTZ AUX)
    Blend: AUG-CC-PVTZ-RI
    Molecular point group: c1

    Geometry (in Angstrom), charge = 0, multiplicity = 1:

       Center              X                  Y                   Z               Mass
    ------------   -----------------  -----------------  -----------------  -----------------
         O            2.811666319082    -0.398648076992    -0.000062876122    15.994914619570
         C            0.497647319082     0.221406923008    -0.000030876122    12.000000000000
         C           -0.397714680918     1.297052923008     0.000004123878    12.000000000000
         C            0.020910319082    -1.096339076992    -0.000008876122    12.000000000000
         C           -1.771978680918     1.056917923008     0.000067123878    12.000000000000
         C           -1.351088680918    -1.331085076992     0.000049123878    12.000000000000
         C           -2.248063680918    -0.256339076992     0.000086123878    12.000000000000
         C            1.884764919082     0.551453123008    -0.000090976122    12.000000000000
         H           -0.017244680918     2.317754923008    -0.000015876122     1.007825032230
         H            0.739282319082    -1.912248076992    -0.000032876122     1.007825032230
         H           -2.470954680918     1.889547923008     0.000096123878     1.007825032230
         H           -1.727639680918    -2.351042076992     0.000062123878     1.007825032230
         H           -3.319144680918    -0.444165076992     0.000134123878     1.007825032230
         H            2.245224319082     1.551455923008    -0.000147876122     1.007825032230

  Basis Set: AUG-CC-PVTZ
    Blend: AUG-CC-PVTZ
  Basis Set: (AUG-CC-PVTZ AUX)
    Blend: AUG-CC-PVTZ-JKFIT
	 Reference Energy          =    -343.5225717950116291 [Eh]
	 Singles Energy            =      -0.0000000000000000 [Eh]
	 Same-Spin Energy          =      -0.3670418590850455 [Eh]
	 Opposite-Spin Energy      =      -1.1366391007370136 [Eh]
	 Correlation Energy        =      -1.5036809598220591 [Eh]
	 Total Energy              =    -345.0262527548337061 [Eh]

	 ================> DF-SCS-MP2 Energies <==================
	-----------------------------------------------------------
	 SCS Same-Spin Scale       =       0.3333333333333333 [-]
	 SCS Opposite-Spin Scale   =       1.2000000000000000 [-]
	 SCS Same-Spin Energy      =      -0.1223472863616818 [Eh]
	 SCS Opposite-Spin Energy  =      -1.3639669208844163 [Eh]
	 SCS Correlation Energy    =      -1.4863142072460982 [Eh]
	 SCS Total Energy          =    -345.0088860022577251 [Eh]
	-----------------------------------------------------------

  Dipole Moment: [D]
     X:    -3.4493      Y:     1.4296      Z:     0.0000     Total:     3.7338

*** Psi4 exiting successfully. Buy a developer a beer!
