                               Psi4 1.3.2 release

  ==> Input File <==

--------------------------------------------------------------------------
#psi4
#
memory 32 gb

molecule  {
0 1
  O        2.8745059    -0.3698275    -0.0000667
  C        0.5303490     0.2197810    -0.0000320
  C       -0.3650130     1.2954270     0.0000030
  C        0.0536120    -1.0979650    -0.0000100
  C       -1.7392770     1.0552920     0.0000660
  C       -1.3183870    -1.3327110     0.0000480
  C       -2.2153620    -0.2579650     0.0000850
  C        1.9872980     0.4782480    -0.0000900
  H        0.0154570     2.3161290    -0.0000170
  H        0.7719840    -1.9138740    -0.0000340
  H       -2.4382530     1.8879220     0.0000950
  H       -1.6949380    -2.3526680     0.0000610
  H       -3.2864430    -0.4457910     0.0001330
  H        2.2779260     1.5498300    -0.0001490
units angstrom
no_reorient  #important for SAPT in psi4, default
symmetry c1  #important for SAPT in psi4, default
}

set PROPERTIES_ORIGIN ["COM"]
properties('MP2/aug-cc-pvtz', properties = ['dipole'])
--------------------------------------------------------------------------

    Molecular point group: c1
  Charge       = 0
  Multiplicity = 1
  Basis Set: AUG-CC-PVTZ
    Blend: AUG-CC-PVTZ
  Basis Set: (AUG-CC-PVTZ AUX)
    Blend: AUG-CC-PVTZ-JKFIT

    Orbital Energies [Eh]
    ---------------------

    Doubly Occupied:

       1A    -20.555991     2A    -11.338409     3A    -11.265288
       4A    -11.262388     5A    -11.258157     6A    -11.256591
       7A    -11.255035     8A    -11.253226     9A     -1.380506
      10A     -1.173519    11A     -1.052305    12A     -1.035255
      13A     -0.895555    14A     -0.848218    15A     -0.793201
      16A     -0.720195    17A     -0.678039    18A     -0.653923
      19A     -0.620791    20A     -0.613535    21A     -0.605881
      22A     -0.551831    23A     -0.531663    24A     -0.512294
      25A     -0.500787    26A     -0.429860    27A     -0.357528
      28A     -0.354009

  @DF-RHF Final Energy:  -343.54785645106483

   => Energetics <=

    Nuclear Repulsion Energy =            320.1282861028281559
    One-Electron Energy =               -1099.8443251106039042
    Two-Electron Energy =                 436.1681825567109172
    Total Energy =                       -343.5478564510648312
  Basis Set: (AUG-CC-PVTZ AUX)
    Blend: AUG-CC-PVTZ-RI
    Molecular point group: c1

    Geometry (in Angstrom), charge = 0, multiplicity = 1:

       Center              X                  Y                   Z               Mass
    ------------   -----------------  -----------------  -----------------  -----------------
         O            2.829356022895    -0.364693894129    -0.000065406507    15.994914619570
         C            0.485199122895     0.224914605871    -0.000030706507    12.000000000000
         C           -0.410162877105     1.300560605871     0.000004293493    12.000000000000
         C            0.008462122895    -1.092831394129    -0.000008706507    12.000000000000
         C           -1.784426877105     1.060425605871     0.000067293493    12.000000000000
         C           -1.363536877105    -1.327577394129     0.000049293493    12.000000000000
         C           -2.260511877105    -0.252831394129     0.000086293493    12.000000000000
         C            1.942148122895     0.483381605871    -0.000088706507    12.000000000000
         H           -0.029692877105     2.321262605871    -0.000015706507     1.007825032230
         H            0.726834122895    -1.908740394129    -0.000032706507     1.007825032230
         H           -2.483402877105     1.893055605871     0.000096293493     1.007825032230
         H           -1.740087877105    -2.347534394129     0.000062293493     1.007825032230
         H           -3.331592877105    -0.440657394129     0.000134293493     1.007825032230
         H            2.232776122895     1.554963605871    -0.000147706507     1.007825032230

  Basis Set: AUG-CC-PVTZ
    Blend: AUG-CC-PVTZ
  Basis Set: (AUG-CC-PVTZ AUX)
    Blend: AUG-CC-PVTZ-JKFIT
	 Reference Energy          =    -343.5478564510648312 [Eh]
	 Singles Energy            =      -0.0000000000000000 [Eh]
	 Same-Spin Energy          =      -0.3638460355584221 [Eh]
	 Opposite-Spin Energy      =      -1.1296381279750984 [Eh]
	 Correlation Energy        =      -1.4934841635335205 [Eh]
	 Total Energy              =    -345.0413406145983686 [Eh]

	 ================> DF-SCS-MP2 Energies <==================
	-----------------------------------------------------------
	 SCS Same-Spin Scale       =       0.3333333333333333 [-]
	 SCS Opposite-Spin Scale   =       1.2000000000000000 [-]
	 SCS Same-Spin Energy      =      -0.1212820118528074 [Eh]
	 SCS Opposite-Spin Energy  =      -1.3555657535701180 [Eh]
	 SCS Correlation Energy    =      -1.4768477654229253 [Eh]
	 SCS Total Energy          =    -345.0247042164877485 [Eh]
	-----------------------------------------------------------

  Dipole Moment: [D]
     X:    -3.1138      Y:     1.1870      Z:     0.0000     Total:     3.3324

*** Psi4 exiting successfully. Buy a developer a beer!
