                               Psi4 1.3.2 release

  ==> Input File <==

--------------------------------------------------------------------------
#psi4
#
memory 32 gb

molecule  {
0 1
  O        2.8443680    -0.4002740    -0.0000640
  C        0.5113132     0.3734895    -0.0000385
  C       -0.3650130     1.2954270     0.0000030
  C        0.0536120    -1.0979650    -0.0000100
  C       -1.7392770     1.0552920     0.0000660
  C       -1.3183870    -1.3327110     0.0000480
  C       -2.2153620    -0.2579650     0.0000850
  C        1.9872980     0.4782480    -0.0000900
  H        0.0154570     2.3161290    -0.0000170
  H        0.7719840    -1.9138740    -0.0000340
  H       -2.4382530     1.8879220     0.0000950
  H       -1.6949380    -2.3526680     0.0000610
  H       -3.2864430    -0.4457910     0.0001330
  H        2.2779260     1.5498300    -0.0001490
units angstrom
no_reorient  #important for SAPT in psi4, default
symmetry c1  #important for SAPT in psi4, default
}

set PROPERTIES_ORIGIN ["COM"]
properties('MP2/aug-cc-pvtz', properties = ['dipole'])
--------------------------------------------------------------------------

    Molecular point group: c1
  Charge       = 0
  Multiplicity = 1
  Basis Set: AUG-CC-PVTZ
    Blend: AUG-CC-PVTZ
  Basis Set: (AUG-CC-PVTZ AUX)
    Blend: AUG-CC-PVTZ-JKFIT

    Orbital Energies [Eh]
    ---------------------

    Doubly Occupied:

       1A    -20.561702     2A    -11.342737     3A    -11.266964
       4A    -11.263032     5A    -11.255550     6A    -11.254115
       7A    -11.252042     8A    -11.250738     9A     -1.383397
      10A     -1.178048    11A     -1.066853    12A     -1.023479
      13A     -0.899025    14A     -0.847301    15A     -0.796298
      16A     -0.718144    17A     -0.682737    18A     -0.652732
      19A     -0.630281    20A     -0.609536    21A     -0.597770
      22A     -0.555497    23A     -0.535012    24A     -0.503142
      25A     -0.500800    26A     -0.425049    27A     -0.378705
      28A     -0.338548

  @DF-RHF Final Energy:  -343.51679801383824

   => Energetics <=

    Nuclear Repulsion Energy =            320.3176730569888377
    One-Electron Energy =               -1100.1304810477704450
    Two-Electron Energy =                 436.2960099769433668
    Total Energy =                       -343.5167980138382404
  Basis Set: (AUG-CC-PVTZ AUX)
    Blend: AUG-CC-PVTZ-RI
    Molecular point group: c1

    Geometry (in Angstrom), charge = 0, multiplicity = 1:

       Center              X                  Y                   Z               Mass
    ------------   -----------------  -----------------  -----------------  -----------------
         O            2.805918144047    -0.407942062927    -0.000062378206    15.994914619570
         C            0.472863344047     0.365821437073    -0.000036878206    12.000000000000
         C           -0.403462855953     1.287758937073     0.000004621794    12.000000000000
         C            0.015162144047    -1.105633062927    -0.000008378206    12.000000000000
         C           -1.777726855953     1.047623937073     0.000067621794    12.000000000000
         C           -1.356836855953    -1.340379062927     0.000049621794    12.000000000000
         C           -2.253811855953    -0.265633062927     0.000086621794    12.000000000000
         C            1.948848144047     0.470579937073    -0.000088378206    12.000000000000
         H           -0.022992855953     2.308460937073    -0.000015378206     1.007825032230
         H            0.733534144047    -1.921542062927    -0.000032378206     1.007825032230
         H           -2.476702855953     1.880253937073     0.000096621794     1.007825032230
         H           -1.733387855953    -2.360336062927     0.000062621794     1.007825032230
         H           -3.324892855953    -0.453459062927     0.000134621794     1.007825032230
         H            2.239476144047     1.542161937073    -0.000147378206     1.007825032230

  Basis Set: AUG-CC-PVTZ
    Blend: AUG-CC-PVTZ
  Basis Set: (AUG-CC-PVTZ AUX)
    Blend: AUG-CC-PVTZ-JKFIT
	 Reference Energy          =    -343.5167980138382404 [Eh]
	 Singles Energy            =      -0.0000000000000000 [Eh]
	 Same-Spin Energy          =      -0.3633378250071312 [Eh]
	 Opposite-Spin Energy      =      -1.1309217953518393 [Eh]
	 Correlation Energy        =      -1.4942596203589706 [Eh]
	 Total Energy              =    -345.0110576341971864 [Eh]

	 ================> DF-SCS-MP2 Energies <==================
	-----------------------------------------------------------
	 SCS Same-Spin Scale       =       0.3333333333333333 [-]
	 SCS Opposite-Spin Scale   =       1.2000000000000000 [-]
	 SCS Same-Spin Energy      =      -0.1211126083357104 [Eh]
	 SCS Opposite-Spin Energy  =      -1.3571061544222072 [Eh]
	 SCS Correlation Energy    =      -1.4782187627579175 [Eh]
	 SCS Total Energy          =    -344.9950167765961737 [Eh]
	-----------------------------------------------------------

  Dipole Moment: [D]
     X:    -3.0453      Y:     1.1800      Z:     0.0000     Total:     3.2659

*** Psi4 exiting successfully. Buy a developer a beer!
