                               Psi4 1.4a3.dev225

  ==> Input File <==

--------------------------------------------------------------------------
#psi4
#
memory 32 gb

molecule  {
0 1
  O        2.8443490    -0.4002910    -0.0000960
  C        0.5303130     0.2198450    -0.0000250
  C       -0.3650130     1.2954800     0.0000070
  C        0.0536480    -1.0979670    -0.0000020
  C       -1.7393110     1.0553020     0.0000660
  C       -1.3183250    -1.3328010     0.0000550
  C       -2.2153260    -0.2579870     0.0000890
  C        1.9872740     0.4782630    -0.0000850
  H        0.0153590     2.3162280    -0.0000130
  H        0.7720410    -1.9138490    -0.0000260
  H       -2.4383560     1.8878700     0.0000920
  H       -1.6950010    -2.3527060     0.0000730
  H       -3.2864200    -0.4458710     0.0001340
  H        2.2649329     1.5015857    -0.0001203
units angstrom
no_reorient  #important for SAPT in psi4, default
symmetry c1  #important for SAPT in psi4, default
}

set PROPERTIES_ORIGIN ["COM"]
properties('MP2/aug-cc-pvtz', properties = ['dipole'])
--------------------------------------------------------------------------

    Molecular point group: c1
  Charge       = 0
  Multiplicity = 1
  Basis Set: AUG-CC-PVTZ
    Blend: AUG-CC-PVTZ
  Basis Set: (AUG-CC-PVTZ AUX)
    Blend: AUG-CC-PVTZ-JKFIT

    Orbital Energies [Eh]
    ---------------------

    Doubly Occupied:

       1A    -20.555089     2A    -11.333069     3A    -11.264149
       4A    -11.261237     5A    -11.256439     6A    -11.254431
       7A    -11.254133     8A    -11.252209     9A     -1.380521
      10A     -1.172249    11A     -1.051411    12A     -1.034105
      13A     -0.898948    14A     -0.847422    15A     -0.798115
      16A     -0.722716    17A     -0.679936    18A     -0.652655
      19A     -0.620376    20A     -0.614924    21A     -0.605301
      22A     -0.551348    23A     -0.530536    24A     -0.511121
      25A     -0.499808    26A     -0.432645    27A     -0.356500
      28A     -0.352565

  @DF-RHF Final Energy:  -343.54767679889818

   => Energetics <=

    Nuclear Repulsion Energy =            320.7164069138383411
    One-Electron Energy =               -1101.0402513991691649
    Two-Electron Energy =                 436.7761676864326432
    Total Energy =                       -343.5476767988981806
  Basis Set: (AUG-CC-PVTZ AUX)
    Blend: AUG-CC-PVTZ-RI
    Molecular point group: c1

    Geometry (in Angstrom), charge = 0, multiplicity = 1:

       Center              X                  Y                   Z               Mass
    ------------   -----------------  -----------------  -----------------  -----------------
         O            2.803868573520    -0.390106622383    -0.000094729571    15.994914619570
         C            0.489832573520     0.230029377617    -0.000023729571    12.000000000000
         C           -0.405493426480     1.305664377617     0.000008270429    12.000000000000
         C            0.013167573520    -1.087782622383    -0.000000729571    12.000000000000
         C           -1.779791426480     1.065486377617     0.000067270429    12.000000000000
         C           -1.358805426480    -1.322616622383     0.000056270429    12.000000000000
         C           -2.255806426480    -0.247802622383     0.000090270429    12.000000000000
         C            1.946793573520     0.488447377617    -0.000083729571    12.000000000000
         H           -0.025121426480     2.326412377617    -0.000011729571     1.007825032230
         H            0.731560573520    -1.903664622383    -0.000024729571     1.007825032230
         H           -2.478836426480     1.898054377617     0.000093270429     1.007825032230
         H           -1.735481426480    -2.342521622383     0.000074270429     1.007825032230
         H           -3.326900426480    -0.435686622383     0.000135270429     1.007825032230
         H            2.224452473520     1.511770077617    -0.000119029571     1.007825032230

  Basis Set: AUG-CC-PVTZ
    Blend: AUG-CC-PVTZ
  Basis Set: (AUG-CC-PVTZ AUX)
    Blend: AUG-CC-PVTZ-JKFIT
	 Reference Energy          =    -343.5476767988981806 [Eh]
	 Singles Energy            =      -0.0000000000000000 [Eh]
	 Same-Spin Energy          =      -0.3636968289886224 [Eh]
	 Opposite-Spin Energy      =      -1.1292152653031247 [Eh]
	 Correlation Energy        =      -1.4929120942917471 [Eh]
	 Total Energy              =    -345.0405888931899199 [Eh]

	 ================> DF-SCS-MP2 Energies <==================
	-----------------------------------------------------------
	 SCS Same-Spin Scale       =       0.3333333333333333 [-]
	 SCS Opposite-Spin Scale   =       1.2000000000000000 [-]
	 SCS Same-Spin Energy      =      -0.1212322763295408 [Eh]
	 SCS Opposite-Spin Energy  =      -1.3550583183637495 [Eh]
	 SCS Correlation Energy    =      -1.4762905946932903 [Eh]
	 SCS Total Energy          =    -345.0239673935914766 [Eh]
	-----------------------------------------------------------

  Dipole Moment: [D]
     X:    -2.9908      Y:     1.2974      Z:     0.0001     Total:     3.2600

*** Psi4 exiting successfully. Buy a developer a beer!
