                               Psi4 1.4a3.dev225

  ==> Input File <==

--------------------------------------------------------------------------
#psi4
#
memory 32 gb

molecule  {
0 1
  O        2.8443490    -0.4002910    -0.0000960
  C        0.5303130     0.2198450    -0.0000250
  C       -0.3650130     1.2954800     0.0000070
  C        0.0536480    -1.0979670    -0.0000020
  C       -1.7393110     1.0553020     0.0000660
  C       -1.3183250    -1.3328010     0.0000550
  C       -2.2153260    -0.2579870     0.0000890
  C        2.0365056     0.4869951    -0.0000870
  H        0.0153590     2.3162280    -0.0000130
  H        0.7720410    -1.9138490    -0.0000260
  H       -2.4383560     1.8878700     0.0000920
  H       -1.6950010    -2.3527060     0.0000730
  H       -3.2864200    -0.4458710     0.0001340
  H        2.2780260     1.5498410    -0.0001220
units angstrom
no_reorient  #important for SAPT in psi4, default
symmetry c1  #important for SAPT in psi4, default
}

set PROPERTIES_ORIGIN ["COM"]
properties('MP2/aug-cc-pvtz', properties = ['dipole'])
--------------------------------------------------------------------------

    Molecular point group: c1
  Charge       = 0
  Multiplicity = 1
  Basis Set: AUG-CC-PVTZ
    Blend: AUG-CC-PVTZ
  Basis Set: (AUG-CC-PVTZ AUX)
    Blend: AUG-CC-PVTZ-JKFIT

    Orbital Energies [Eh]
    ---------------------

    Doubly Occupied:

       1A    -20.561340     2A    -11.339631     3A    -11.260338
       4A    -11.257452     5A    -11.255395     6A    -11.252966
       7A    -11.251916     8A    -11.250161     9A     -1.402737
      10A     -1.168191    11A     -1.043509    12A     -1.031191
      13A     -0.889149    14A     -0.843654    15A     -0.795474
      16A     -0.719417    17A     -0.678936    18A     -0.653341
      19A     -0.621132    20A     -0.619100    21A     -0.602733
      22A     -0.556578    23A     -0.529777    24A     -0.508750
      25A     -0.504931    26A     -0.428640    27A     -0.354006
      28A     -0.350422

  @DF-RHF Final Energy:  -343.54867731106060

   => Energetics <=

    Nuclear Repulsion Energy =            320.0935489708100476
    One-Electron Energy =               -1099.8227108726061942
    Two-Electron Energy =                 436.1804845907355457
    Total Energy =                       -343.5486773110606009
  Basis Set: (AUG-CC-PVTZ AUX)
    Blend: AUG-CC-PVTZ-RI
    Molecular point group: c1

    Geometry (in Angstrom), charge = 0, multiplicity = 1:

       Center              X                  Y                   Z               Mass
    ------------   -----------------  -----------------  -----------------  -----------------
         O            2.798172947976    -0.391553391539    -0.000094487089    15.994914619570
         C            0.484136947976     0.228582608461    -0.000023487089    12.000000000000
         C           -0.411189052024     1.304217608461     0.000008512911    12.000000000000
         C            0.007471947976    -1.089229391539    -0.000000487089    12.000000000000
         C           -1.785487052024     1.064039608461     0.000067512911    12.000000000000
         C           -1.364501052024    -1.324063391539     0.000056512911    12.000000000000
         C           -2.261502052024    -0.249249391539     0.000090512911    12.000000000000
         C            1.990329547976     0.495732708461    -0.000085487089    12.000000000000
         H           -0.030817052024     2.324965608461    -0.000011487089     1.007825032230
         H            0.725864947976    -1.905111391539    -0.000024487089     1.007825032230
         H           -2.484532052024     1.896607608461     0.000093512911     1.007825032230
         H           -1.741177052024    -2.343968391539     0.000074512911     1.007825032230
         H           -3.332596052024    -0.437133391539     0.000135512911     1.007825032230
         H            2.231849947976     1.558578608461    -0.000120487089     1.007825032230

  Basis Set: AUG-CC-PVTZ
    Blend: AUG-CC-PVTZ
  Basis Set: (AUG-CC-PVTZ AUX)
    Blend: AUG-CC-PVTZ-JKFIT
	 Reference Energy          =    -343.5486773110606009 [Eh]
	 Singles Energy            =      -0.0000000000000000 [Eh]
	 Same-Spin Energy          =      -0.3629191323965587 [Eh]
	 Opposite-Spin Energy      =      -1.1277597792813601 [Eh]
	 Correlation Energy        =      -1.4906789116779187 [Eh]
	 Total Energy              =    -345.0393562227385473 [Eh]

	 ================> DF-SCS-MP2 Energies <==================
	-----------------------------------------------------------
	 SCS Same-Spin Scale       =       0.3333333333333333 [-]
	 SCS Opposite-Spin Scale   =       1.2000000000000000 [-]
	 SCS Same-Spin Energy      =      -0.1209730441321862 [Eh]
	 SCS Opposite-Spin Energy  =      -1.3533117351376320 [Eh]
	 SCS Correlation Energy    =      -1.4742847792698182 [Eh]
	 SCS Total Energy          =    -345.0229620903303953 [Eh]
	-----------------------------------------------------------

  Dipole Moment: [D]
     X:    -2.6263      Y:     1.2808      Z:     0.0001     Total:     2.9220

*** Psi4 exiting successfully. Buy a developer a beer!
