                               Psi4 1.4a3.dev225

  ==> Input File <==

--------------------------------------------------------------------------
#psi4
#
memory 32 gb

molecule  {
0 1
  O        2.8443490    -0.4002910    -0.0000960
  C        0.5303130     0.2198450    -0.0000250
  C       -0.3650130     1.2954800     0.0000070
  C        0.0536480    -1.0979670    -0.0000020
  C       -1.7393110     1.0553020     0.0000660
  C       -1.3183250    -1.3328010     0.0000550
  C       -2.2153260    -0.2579870     0.0000890
  C        2.0221891     0.4424729    -0.0000854
  H        0.0153590     2.3162280    -0.0000130
  H        0.7720410    -1.9138490    -0.0000260
  H       -2.4383560     1.8878700     0.0000920
  H       -1.6950010    -2.3527060     0.0000730
  H       -3.2864200    -0.4458710     0.0001340
  H        2.2780260     1.5498410    -0.0001220
units angstrom
no_reorient  #important for SAPT in psi4, default
symmetry c1  #important for SAPT in psi4, default
}

set PROPERTIES_ORIGIN ["COM"]
properties('MP2/aug-cc-pvtz', properties = ['dipole'])
--------------------------------------------------------------------------

    Molecular point group: c1
  Charge       = 0
  Multiplicity = 1
  Basis Set: AUG-CC-PVTZ
    Blend: AUG-CC-PVTZ
  Basis Set: (AUG-CC-PVTZ AUX)
    Blend: AUG-CC-PVTZ-JKFIT

    Orbital Energies [Eh]
    ---------------------

    Doubly Occupied:

       1A    -20.560986     2A    -11.337678     3A    -11.261933
       4A    -11.258749     5A    -11.254703     6A    -11.253503
       7A    -11.252841     8A    -11.250665     9A     -1.418141
      10A     -1.169714    11A     -1.046038    12A     -1.032354
      13A     -0.887254    14A     -0.845267    15A     -0.789307
      16A     -0.719000    17A     -0.679453    18A     -0.658140
      19A     -0.622514    20A     -0.619764    21A     -0.603401
      22A     -0.565258    23A     -0.530955    24A     -0.509873
      25A     -0.507879    26A     -0.423866    27A     -0.355093
      28A     -0.351833

  @DF-RHF Final Energy:  -343.54924288765631

   => Energetics <=

    Nuclear Repulsion Energy =            320.7654768075165066
    One-Electron Energy =               -1101.0971180776534766
    Two-Electron Energy =                 436.7823983824806646
    Total Energy =                       -343.5492428876563054
  Basis Set: (AUG-CC-PVTZ AUX)
    Blend: AUG-CC-PVTZ-RI
    Molecular point group: c1

    Geometry (in Angstrom), charge = 0, multiplicity = 1:

       Center              X                  Y                   Z               Mass
    ------------   -----------------  -----------------  -----------------  -----------------
         O            2.799793043966    -0.386515132348    -0.000094668149    15.994914619570
         C            0.485757043966     0.233620867652    -0.000023668149    12.000000000000
         C           -0.409568956034     1.309255867652     0.000008331851    12.000000000000
         C            0.009092043966    -1.084191132348    -0.000000668149    12.000000000000
         C           -1.783866956034     1.069077867652     0.000067331851    12.000000000000
         C           -1.362880956034    -1.319025132348     0.000056331851    12.000000000000
         C           -2.259881956034    -0.244211132348     0.000090331851    12.000000000000
         C            1.977633143966     0.456248767652    -0.000084068149    12.000000000000
         H           -0.029196956034     2.330003867652    -0.000011668149     1.007825032230
         H            0.727485043966    -1.900073132348    -0.000024668149     1.007825032230
         H           -2.482911956034     1.901645867652     0.000093331851     1.007825032230
         H           -1.739556956034    -2.338930132348     0.000074331851     1.007825032230
         H           -3.330975956034    -0.432095132348     0.000135331851     1.007825032230
         H            2.233470043966     1.563616867652    -0.000120668149     1.007825032230

  Basis Set: AUG-CC-PVTZ
    Blend: AUG-CC-PVTZ
  Basis Set: (AUG-CC-PVTZ AUX)
    Blend: AUG-CC-PVTZ-JKFIT
	 Reference Energy          =    -343.5492428876563054 [Eh]
	 Singles Energy            =      -0.0000000000000000 [Eh]
	 Same-Spin Energy          =      -0.3626313401072887 [Eh]
	 Opposite-Spin Energy      =      -1.1266679284974099 [Eh]
	 Correlation Energy        =      -1.4892992686046986 [Eh]
	 Total Energy              =    -345.0385421562610304 [Eh]

	 ================> DF-SCS-MP2 Energies <==================
	-----------------------------------------------------------
	 SCS Same-Spin Scale       =       0.3333333333333333 [-]
	 SCS Opposite-Spin Scale   =       1.2000000000000000 [-]
	 SCS Same-Spin Energy      =      -0.1208771133690962 [Eh]
	 SCS Opposite-Spin Energy  =      -1.3520015141968920 [Eh]
	 SCS Correlation Energy    =      -1.4728786275659882 [Eh]
	 SCS Total Energy          =    -345.0221215152222953 [Eh]
	-----------------------------------------------------------

  Dipole Moment: [D]
     X:    -2.7425      Y:     1.1040      Z:     0.0001     Total:     2.9564

*** Psi4 exiting successfully. Buy a developer a beer!
