                               Psi4 1.3.2 release

  ==> Input File <==

--------------------------------------------------------------------------
#psi4
#
memory 32 gb

molecule  {
0 1
  O        2.8443680    -0.4002740    -0.0000640
  C        0.5303490     0.2197810    -0.0000320
  C       -0.3650130     1.2954270     0.0000030
  C        0.0079137    -1.0805244    -0.0000082
  C       -1.7392770     1.0552920     0.0000660
  C       -1.3183870    -1.3327110     0.0000480
  C       -2.2153620    -0.2579650     0.0000850
  C        1.9872980     0.4782480    -0.0000900
  H        0.0154570     2.3161290    -0.0000170
  H        0.7719840    -1.9138740    -0.0000340
  H       -2.4382530     1.8879220     0.0000950
  H       -1.6949380    -2.3526680     0.0000610
  H       -3.2864430    -0.4457910     0.0001330
  H        2.2779260     1.5498300    -0.0001490
units angstrom
no_reorient  #important for SAPT in psi4, default
symmetry c1  #important for SAPT in psi4, default
}

set PROPERTIES_ORIGIN ["COM"]
properties('MP2/aug-cc-pvtz', properties = ['dipole'])
--------------------------------------------------------------------------

    Molecular point group: c1
  Charge       = 0
  Multiplicity = 1
  Basis Set: AUG-CC-PVTZ
    Blend: AUG-CC-PVTZ
  Basis Set: (AUG-CC-PVTZ AUX)
    Blend: AUG-CC-PVTZ-JKFIT

    Orbital Energies [Eh]
    ---------------------

    Doubly Occupied:

       1A    -20.556584     2A    -11.339944     3A    -11.264731
       4A    -11.262060     5A    -11.255348     6A    -11.254070
       7A    -11.253414     8A    -11.247250     9A     -1.381345
      10A     -1.176618    11A     -1.052384    12A     -1.037128
      13A     -0.896488    14A     -0.845152    15A     -0.795161
      16A     -0.720458    17A     -0.675762    18A     -0.652870
      19A     -0.622047    20A     -0.613828    21A     -0.602421
      22A     -0.553043    23A     -0.534361    24A     -0.502641
      25A     -0.501481    26A     -0.432080    27A     -0.360852
      28A     -0.352477

  @DF-RHF Final Energy:  -343.54520285413992

   => Energetics <=

    Nuclear Repulsion Energy =            320.9810405194285750
    One-Electron Energy =               -1101.5684858348520265
    Two-Electron Energy =                 437.0422424612835357
    Total Energy =                       -343.5452028541399159
  Basis Set: (AUG-CC-PVTZ AUX)
    Blend: AUG-CC-PVTZ-RI
    Molecular point group: c1

    Geometry (in Angstrom), charge = 0, multiplicity = 1:

       Center              X                  Y                   Z               Mass
    ------------   -----------------  -----------------  -----------------  -----------------
         O            2.808935348625    -0.392521598538    -0.000063317457    15.994914619570
         C            0.494916348625     0.227533401462    -0.000031317457    12.000000000000
         C           -0.400445651375     1.303179401462     0.000003682543    12.000000000000
         C           -0.027518951375    -1.072771998538    -0.000007517457    12.000000000000
         C           -1.774709651375     1.063044401462     0.000066682543    12.000000000000
         C           -1.353819651375    -1.324958598538     0.000048682543    12.000000000000
         C           -2.250794651375    -0.250212598538     0.000085682543    12.000000000000
         C            1.951865348625     0.486000401462    -0.000089317457    12.000000000000
         H           -0.019975651375     2.323881401462    -0.000016317457     1.007825032230
         H            0.736551348625    -1.906121598538    -0.000033317457     1.007825032230
         H           -2.473685651375     1.895674401462     0.000095682543     1.007825032230
         H           -1.730370651375    -2.344915598538     0.000061682543     1.007825032230
         H           -3.321875651375    -0.438038598538     0.000133682543     1.007825032230
         H            2.242493348625     1.557582401462    -0.000148317457     1.007825032230

  Basis Set: AUG-CC-PVTZ
    Blend: AUG-CC-PVTZ
  Basis Set: (AUG-CC-PVTZ AUX)
    Blend: AUG-CC-PVTZ-JKFIT
	 Reference Energy          =    -343.5452028541399159 [Eh]
	 Singles Energy            =      -0.0000000000000000 [Eh]
	 Same-Spin Energy          =      -0.3639437903785230 [Eh]
	 Opposite-Spin Energy      =      -1.1296111757588152 [Eh]
	 Correlation Energy        =      -1.4935549661373382 [Eh]
	 Total Energy              =    -345.0387578202772261 [Eh]

	 ================> DF-SCS-MP2 Energies <==================
	-----------------------------------------------------------
	 SCS Same-Spin Scale       =       0.3333333333333333 [-]
	 SCS Opposite-Spin Scale   =       1.2000000000000000 [-]
	 SCS Same-Spin Energy      =      -0.1213145967928410 [Eh]
	 SCS Opposite-Spin Energy  =      -1.3555334109105781 [Eh]
	 SCS Correlation Energy    =      -1.4768480077034192 [Eh]
	 SCS Total Energy          =    -345.0220508618433541 [Eh]
	-----------------------------------------------------------

  Dipole Moment: [D]
     X:    -3.0090      Y:     1.2712      Z:     0.0000     Total:     3.2665

*** Psi4 exiting successfully. Buy a developer a beer!
