                               Psi4 1.3.2 release

  ==> Input File <==

--------------------------------------------------------------------------
#psi4
#
memory 32 gb

molecule  {
0 1
  O        2.8443680    -0.4002740    -0.0000640
  C        0.5303490     0.2197810    -0.0000320
  C       -0.3650130     1.2954270     0.0000030
  C       -0.0371480    -1.0614995    -0.0000065
  C       -1.7392770     1.0552920     0.0000660
  C       -1.3183870    -1.3327110     0.0000480
  C       -2.2153620    -0.2579650     0.0000850
  C        1.9872980     0.4782480    -0.0000900
  H        0.0154570     2.3161290    -0.0000170
  H        0.7719840    -1.9138740    -0.0000340
  H       -2.4382530     1.8879220     0.0000950
  H       -1.6949380    -2.3526680     0.0000610
  H       -3.2864430    -0.4457910     0.0001330
  H        2.2779260     1.5498300    -0.0001490
units angstrom
no_reorient  #important for SAPT in psi4, default
symmetry c1  #important for SAPT in psi4, default
}

set PROPERTIES_ORIGIN ["COM"]
properties('MP2/aug-cc-pvtz', properties = ['dipole'])
--------------------------------------------------------------------------

    Molecular point group: c1
  Charge       = 0
  Multiplicity = 1
  Basis Set: AUG-CC-PVTZ
    Blend: AUG-CC-PVTZ
  Basis Set: (AUG-CC-PVTZ AUX)
    Blend: AUG-CC-PVTZ-JKFIT

    Orbital Energies [Eh]
    ---------------------

    Doubly Occupied:

       1A    -20.556927     2A    -11.340977     3A    -11.265249
       4A    -11.262719     5A    -11.254949     6A    -11.252663
       7A    -11.252176     8A    -11.241982     9A     -1.381511
      10A     -1.181395    11A     -1.055345    12A     -1.038598
      13A     -0.897774    14A     -0.843215    15A     -0.797352
      16A     -0.721229    17A     -0.674340    18A     -0.652967
      19A     -0.626901    20A     -0.613567    21A     -0.597331
      22A     -0.554465    23A     -0.537448    24A     -0.505192
      25A     -0.489227    26A     -0.433142    27A     -0.365939
      28A     -0.351464

  @DF-RHF Final Energy:  -343.53570218599032

   => Energetics <=

    Nuclear Repulsion Energy =            321.5271874652802921
    One-Electron Energy =               -1102.6336865569014662
    Two-Electron Energy =                 437.5707969056308002
    Total Energy =                       -343.5357021859903170
  Basis Set: (AUG-CC-PVTZ AUX)
    Blend: AUG-CC-PVTZ-RI
    Molecular point group: c1

    Geometry (in Angstrom), charge = 0, multiplicity = 1:

       Center              X                  Y                   Z               Mass
    ------------   -----------------  -----------------  -----------------  -----------------
         O            2.814034659176    -0.394674510508    -0.000063509834    15.994914619570
         C            0.500015659176     0.225380489492    -0.000031509834    12.000000000000
         C           -0.395346340824     1.301026489492     0.000003490166    12.000000000000
         C           -0.067481340824    -1.055900010508    -0.000006009834    12.000000000000
         C           -1.769610340824     1.060891489492     0.000066490166    12.000000000000
         C           -1.348720340824    -1.327111510508     0.000048490166    12.000000000000
         C           -2.245695340824    -0.252365510508     0.000085490166    12.000000000000
         C            1.956964659176     0.483847489492    -0.000089509834    12.000000000000
         H           -0.014876340824     2.321728489492    -0.000016509834     1.007825032230
         H            0.741650659176    -1.908274510508    -0.000033509834     1.007825032230
         H           -2.468586340824     1.893521489492     0.000095490166     1.007825032230
         H           -1.725271340824    -2.347068510508     0.000061490166     1.007825032230
         H           -3.316776340824    -0.440191510508     0.000133490166     1.007825032230
         H            2.247592659176     1.555429489492    -0.000148509834     1.007825032230

  Basis Set: AUG-CC-PVTZ
    Blend: AUG-CC-PVTZ
  Basis Set: (AUG-CC-PVTZ AUX)
    Blend: AUG-CC-PVTZ-JKFIT
	 Reference Energy          =    -343.5357021859903170 [Eh]
	 Singles Energy            =      -0.0000000000000000 [Eh]
	 Same-Spin Energy          =      -0.3640648167057017 [Eh]
	 Opposite-Spin Energy      =      -1.1299130740560461 [Eh]
	 Correlation Energy        =      -1.4939778907617478 [Eh]
	 Total Energy              =    -345.0296800767520722 [Eh]

	 ================> DF-SCS-MP2 Energies <==================
	-----------------------------------------------------------
	 SCS Same-Spin Scale       =       0.3333333333333333 [-]
	 SCS Opposite-Spin Scale   =       1.2000000000000000 [-]
	 SCS Same-Spin Energy      =      -0.1213549389019006 [Eh]
	 SCS Opposite-Spin Energy  =      -1.3558956888672553 [Eh]
	 SCS Correlation Energy    =      -1.4772506277691559 [Eh]
	 SCS Total Energy          =    -345.0129528137594548 [Eh]
	-----------------------------------------------------------

  Dipole Moment: [D]
     X:    -3.0128      Y:     1.3051      Z:     0.0000     Total:     3.2833

*** Psi4 exiting successfully. Buy a developer a beer!
