                               Psi4 1.3.2 release

  ==> Input File <==

--------------------------------------------------------------------------
#psi4
#
memory 32 gb

molecule  {
0 1
  O        2.8443680    -0.4002740    -0.0000640
  C        0.5303490     0.2197810    -0.0000320
  C       -0.3650130     1.2954270     0.0000030
  C        0.0766824    -1.1060845    -0.0000109
  C       -1.7392770     1.0552920     0.0000660
  C       -1.3183870    -1.3327110     0.0000480
  C       -2.2153620    -0.2579650     0.0000850
  C        1.9872980     0.4782480    -0.0000900
  H        0.0154570     2.3161290    -0.0000170
  H        0.7719840    -1.9138740    -0.0000340
  H       -2.4382530     1.8879220     0.0000950
  H       -1.6949380    -2.3526680     0.0000610
  H       -3.2864430    -0.4457910     0.0001330
  H        2.2779260     1.5498300    -0.0001490
units angstrom
no_reorient  #important for SAPT in psi4, default
symmetry c1  #important for SAPT in psi4, default
}

set PROPERTIES_ORIGIN ["COM"]
properties('MP2/aug-cc-pvtz', properties = ['dipole'])
--------------------------------------------------------------------------

    Molecular point group: c1
  Charge       = 0
  Multiplicity = 1
  Basis Set: AUG-CC-PVTZ
    Blend: AUG-CC-PVTZ
  Basis Set: (AUG-CC-PVTZ AUX)
    Blend: AUG-CC-PVTZ-JKFIT

    Orbital Energies [Eh]
    ---------------------

    Doubly Occupied:

       1A    -20.556003     2A    -11.338433     3A    -11.264136
       4A    -11.261285     5A    -11.258108     6A    -11.255707
       7A    -11.254997     8A    -11.254722     9A     -1.381088
      10A     -1.170727    11A     -1.051302    12A     -1.032705
      13A     -0.894868    14A     -0.848612    15A     -0.792315
      16A     -0.719982    17A     -0.679511    18A     -0.653265
      19A     -0.621316    20A     -0.613534    21A     -0.604751
      22A     -0.551493    23A     -0.528853    24A     -0.515262
      25A     -0.499309    26A     -0.430332    27A     -0.356076
      28A     -0.351974

  @DF-RHF Final Energy:  -343.54692704455380

   => Energetics <=

    Nuclear Repulsion Energy =            320.2407328333696341
    One-Electron Energy =               -1100.0939857448786370
    Two-Electron Energy =                 436.3063258669552056
    Total Energy =                       -343.5469270445537973
  Basis Set: (AUG-CC-PVTZ AUX)
    Blend: AUG-CC-PVTZ-RI
    Molecular point group: c1

    Geometry (in Angstrom), charge = 0, multiplicity = 1:

       Center              X                  Y                   Z               Mass
    ------------   -----------------  -----------------  -----------------  -----------------
         O            2.801153286310    -0.389629144690    -0.000063011918    15.994914619570
         C            0.487134286310     0.230425855310    -0.000031011918    12.000000000000
         C           -0.408227713690     1.306071855310     0.000003988082    12.000000000000
         C            0.033467686310    -1.095439644690    -0.000009911918    12.000000000000
         C           -1.782491713690     1.065936855310     0.000066988082    12.000000000000
         C           -1.361601713690    -1.322066144690     0.000048988082    12.000000000000
         C           -2.258576713690    -0.247320144690     0.000085988082    12.000000000000
         C            1.944083286310     0.488892855310    -0.000089011918    12.000000000000
         H           -0.027757713690     2.326773855310    -0.000016011918     1.007825032230
         H            0.728769286310    -1.903229144690    -0.000033011918     1.007825032230
         H           -2.481467713690     1.898566855310     0.000095988082     1.007825032230
         H           -1.738152713690    -2.342023144690     0.000061988082     1.007825032230
         H           -3.329657713690    -0.435146144690     0.000133988082     1.007825032230
         H            2.234711286310     1.560474855310    -0.000148011918     1.007825032230

  Basis Set: AUG-CC-PVTZ
    Blend: AUG-CC-PVTZ
  Basis Set: (AUG-CC-PVTZ AUX)
    Blend: AUG-CC-PVTZ-JKFIT
	 Reference Energy          =    -343.5469270445537973 [Eh]
	 Singles Energy            =      -0.0000000000000000 [Eh]
	 Same-Spin Energy          =      -0.3639125395086938 [Eh]
	 Opposite-Spin Energy      =      -1.1297916735331697 [Eh]
	 Correlation Energy        =      -1.4937042130418634 [Eh]
	 Total Energy              =    -345.0406312575956349 [Eh]

	 ================> DF-SCS-MP2 Energies <==================
	-----------------------------------------------------------
	 SCS Same-Spin Scale       =       0.3333333333333333 [-]
	 SCS Opposite-Spin Scale   =       1.2000000000000000 [-]
	 SCS Same-Spin Energy      =      -0.1213041798362313 [Eh]
	 SCS Opposite-Spin Energy  =      -1.3557500082398035 [Eh]
	 SCS Correlation Energy    =      -1.4770541880760348 [Eh]
	 SCS Total Energy          =    -345.0239812326298079 [Eh]
	-----------------------------------------------------------

  Dipole Moment: [D]
     X:    -3.0130      Y:     1.2379      Z:     0.0000     Total:     3.2574

*** Psi4 exiting successfully. Buy a developer a beer!
