                               Psi4 1.3.2 release

  ==> Input File <==

--------------------------------------------------------------------------
#psi4
#
memory 32 gb

molecule  {
0 1
  O        2.8443680    -0.4002740    -0.0000640
  C        0.5519278     0.1187790    -0.0000280
  C       -0.3650130     1.2954270     0.0000030
  C        0.0536120    -1.0979650    -0.0000100
  C       -1.7392770     1.0552920     0.0000660
  C       -1.3183870    -1.3327110     0.0000480
  C       -2.2153620    -0.2579650     0.0000850
  C        1.9872980     0.4782480    -0.0000900
  H        0.0154570     2.3161290    -0.0000170
  H        0.7719840    -1.9138740    -0.0000340
  H       -2.4382530     1.8879220     0.0000950
  H       -1.6949380    -2.3526680     0.0000610
  H       -3.2864430    -0.4457910     0.0001330
  H        2.2779260     1.5498300    -0.0001490
units angstrom
no_reorient  #important for SAPT in psi4, default
symmetry c1  #important for SAPT in psi4, default
}

set PROPERTIES_ORIGIN ["COM"]
properties('MP2/aug-cc-pvtz', properties = ['dipole'])
--------------------------------------------------------------------------

    Molecular point group: c1
  Charge       = 0
  Multiplicity = 1
  Basis Set: AUG-CC-PVTZ
    Blend: AUG-CC-PVTZ
  Basis Set: (AUG-CC-PVTZ AUX)
    Blend: AUG-CC-PVTZ-JKFIT

    Orbital Energies [Eh]
    ---------------------

    Doubly Occupied:

       1A    -20.554923     2A    -11.338923     3A    -11.268978
       4A    -11.260177     5A    -11.254301     6A    -11.253770
       7A    -11.253043     8A    -11.246189     9A     -1.381911
      10A     -1.172159    11A     -1.054033    12A     -1.030118
      13A     -0.893995    14A     -0.852408    15A     -0.786730
      16A     -0.721934    17A     -0.678399    18A     -0.653320
      19A     -0.628890    20A     -0.608634    21A     -0.599688
      22A     -0.552384    23A     -0.534147    24A     -0.501634
      25A     -0.499471    26A     -0.431398    27A     -0.365166
      28A     -0.344307

  @DF-RHF Final Energy:  -343.53419207300379

   => Energetics <=

    Nuclear Repulsion Energy =            320.6693382930629923
    One-Electron Energy =               -1100.9649987102109208
    Two-Electron Energy =                 436.7614683441441343
    Total Energy =                       -343.5341920730037941
  Basis Set: (AUG-CC-PVTZ AUX)
    Blend: AUG-CC-PVTZ-RI
    Molecular point group: c1

    Geometry (in Angstrom), charge = 0, multiplicity = 1:

       Center              X                  Y                   Z               Mass
    ------------   -----------------  -----------------  -----------------  -----------------
         O            2.801322080022    -0.379118295961    -0.000063566416    15.994914619570
         C            0.508881880022     0.139934704039    -0.000027566416    12.000000000000
         C           -0.408058919978     1.316582704039     0.000003433584    12.000000000000
         C            0.010566080022    -1.076809295961    -0.000009566416    12.000000000000
         C           -1.782322919978     1.076447704039     0.000066433584    12.000000000000
         C           -1.361432919978    -1.311555295961     0.000048433584    12.000000000000
         C           -2.258407919978    -0.236809295961     0.000085433584    12.000000000000
         C            1.944252080022     0.499403704039    -0.000089566416    12.000000000000
         H           -0.027588919978     2.337284704039    -0.000016566416     1.007825032230
         H            0.728938080022    -1.892718295961    -0.000033566416     1.007825032230
         H           -2.481298919978     1.909077704039     0.000095433584     1.007825032230
         H           -1.737983919978    -2.331512295961     0.000061433584     1.007825032230
         H           -3.329488919978    -0.424635295961     0.000133433584     1.007825032230
         H            2.234880080022     1.570985704039    -0.000148566416     1.007825032230

  Basis Set: AUG-CC-PVTZ
    Blend: AUG-CC-PVTZ
  Basis Set: (AUG-CC-PVTZ AUX)
    Blend: AUG-CC-PVTZ-JKFIT
	 Reference Energy          =    -343.5341920730037941 [Eh]
	 Singles Energy            =      -0.0000000000000000 [Eh]
	 Same-Spin Energy          =      -0.3638600035288361 [Eh]
	 Opposite-Spin Energy      =      -1.1302670487025728 [Eh]
	 Correlation Energy        =      -1.4941270522314087 [Eh]
	 Total Energy              =    -345.0283191252352140 [Eh]

	 ================> DF-SCS-MP2 Energies <==================
	-----------------------------------------------------------
	 SCS Same-Spin Scale       =       0.3333333333333333 [-]
	 SCS Opposite-Spin Scale   =       1.2000000000000000 [-]
	 SCS Same-Spin Energy      =      -0.1212866678429454 [Eh]
	 SCS Opposite-Spin Energy  =      -1.3563204584430872 [Eh]
	 SCS Correlation Energy    =      -1.4776071262860326 [Eh]
	 SCS Total Energy          =    -345.0117991992898396 [Eh]
	-----------------------------------------------------------

  Dipole Moment: [D]
     X:    -2.9383      Y:     1.2944      Z:     0.0000     Total:     3.2108

*** Psi4 exiting successfully. Buy a developer a beer!
