                               Psi4 1.3.2 release

  ==> Input File <==

--------------------------------------------------------------------------
#psi4
#
memory 32 gb

molecule  {
0 1
  O        2.8131859    -0.4296501    -0.0000619
  C        0.5303490     0.2197810    -0.0000320
  C       -0.3650130     1.2954270     0.0000030
  C        0.0536120    -1.0979650    -0.0000100
  C       -1.7392770     1.0552920     0.0000660
  C       -1.3183870    -1.3327110     0.0000480
  C       -2.2153620    -0.2579650     0.0000850
  C        1.9872980     0.4782480    -0.0000900
  H        0.0154570     2.3161290    -0.0000170
  H        0.7719840    -1.9138740    -0.0000340
  H       -2.4382530     1.8879220     0.0000950
  H       -1.6949380    -2.3526680     0.0000610
  H       -3.2864430    -0.4457910     0.0001330
  H        2.2779260     1.5498300    -0.0001490
units angstrom
no_reorient  #important for SAPT in psi4, default
symmetry c1  #important for SAPT in psi4, default
}

set PROPERTIES_ORIGIN ["COM"]
properties('MP2/aug-cc-pvtz', properties = ['dipole'])
--------------------------------------------------------------------------

    Molecular point group: c1
  Charge       = 0
  Multiplicity = 1
  Basis Set: AUG-CC-PVTZ
    Blend: AUG-CC-PVTZ
  Basis Set: (AUG-CC-PVTZ AUX)
    Blend: AUG-CC-PVTZ-JKFIT

    Orbital Energies [Eh]
    ---------------------

    Doubly Occupied:

       1A    -20.556391     2A    -11.339476     3A    -11.263286
       4A    -11.260608     5A    -11.255773     6A    -11.253869
       7A    -11.253479     8A    -11.251668     9A     -1.381935
      10A     -1.171503    11A     -1.050261    12A     -1.033449
      13A     -0.895132    14A     -0.846575    15A     -0.793123
      16A     -0.719890    17A     -0.678032    18A     -0.652143
      19A     -0.619574    20A     -0.614038    21A     -0.604469
      22A     -0.552103    23A     -0.529742    24A     -0.510406
      25A     -0.499884    26A     -0.431754    27A     -0.355908
      28A     -0.351866

  @DF-RHF Final Energy:  -343.54756354057503

   => Energetics <=

    Nuclear Repulsion Energy =            320.8439968437924676
    One-Electron Energy =               -1101.3304424906609711
    Two-Electron Energy =                 436.9388821062935335
    Total Energy =                       -343.5475635405750268
  Basis Set: (AUG-CC-PVTZ AUX)
    Blend: AUG-CC-PVTZ-RI
    Molecular point group: c1

    Geometry (in Angstrom), charge = 0, multiplicity = 1:

       Center              X                  Y                   Z               Mass
    ------------   -----------------  -----------------  -----------------  -----------------
         O            2.777285277104    -0.415493101519    -0.000061330519    15.994914619570
         C            0.494448377104     0.233937998481    -0.000031430519    12.000000000000
         C           -0.400913622896     1.309583998481     0.000003569481    12.000000000000
         C            0.017711377104    -1.083808001519    -0.000009430519    12.000000000000
         C           -1.775177622896     1.069448998481     0.000066569481    12.000000000000
         C           -1.354287622896    -1.318554001519     0.000048569481    12.000000000000
         C           -2.251262622896    -0.243808001519     0.000085569481    12.000000000000
         C            1.951397377104     0.492404998481    -0.000089430519    12.000000000000
         H           -0.020443622896     2.330285998481    -0.000016430519     1.007825032230
         H            0.736083377104    -1.899717001519    -0.000033430519     1.007825032230
         H           -2.474153622896     1.902078998481     0.000095569481     1.007825032230
         H           -1.730838622896    -2.338511001519     0.000061569481     1.007825032230
         H           -3.322343622896    -0.431634001519     0.000133569481     1.007825032230
         H            2.242025377104     1.563986998481    -0.000148430519     1.007825032230

  Basis Set: AUG-CC-PVTZ
    Blend: AUG-CC-PVTZ
  Basis Set: (AUG-CC-PVTZ AUX)
    Blend: AUG-CC-PVTZ-JKFIT
	 Reference Energy          =    -343.5475635405750268 [Eh]
	 Singles Energy            =      -0.0000000000000000 [Eh]
	 Same-Spin Energy          =      -0.3639819432266801 [Eh]
	 Opposite-Spin Energy      =      -1.1296896495379771 [Eh]
	 Correlation Energy        =      -1.4936715927646573 [Eh]
	 Total Energy              =    -345.0412351333396828 [Eh]

	 ================> DF-SCS-MP2 Energies <==================
	-----------------------------------------------------------
	 SCS Same-Spin Scale       =       0.3333333333333333 [-]
	 SCS Opposite-Spin Scale   =       1.2000000000000000 [-]
	 SCS Same-Spin Energy      =      -0.1213273144088934 [Eh]
	 SCS Opposite-Spin Energy  =      -1.3556275794455726 [Eh]
	 SCS Correlation Energy    =      -1.4769548938544659 [Eh]
	 SCS Total Energy          =    -345.0245184344294671 [Eh]
	-----------------------------------------------------------

  Dipole Moment: [D]
     X:    -2.9034      Y:     1.3041      Z:     0.0000     Total:     3.1829

*** Psi4 exiting successfully. Buy a developer a beer!
