                               Psi4 1.3.2 release

  ==> Input File <==

--------------------------------------------------------------------------
#psi4
#
memory 32 gb

molecule  {
0 1
  O        2.8443680    -0.4002740    -0.0000640
  C        0.5303490     0.2197810    -0.0000320
  C       -0.3650130     1.2954270     0.0000030
  C        0.0306868    -1.0894441    -0.0000091
  C       -1.7392770     1.0552920     0.0000660
  C       -1.3183870    -1.3327110     0.0000480
  C       -2.2153620    -0.2579650     0.0000850
  C        1.9872980     0.4782480    -0.0000900
  H        0.0154570     2.3161290    -0.0000170
  H        0.7719840    -1.9138740    -0.0000340
  H       -2.4382530     1.8879220     0.0000950
  H       -1.6949380    -2.3526680     0.0000610
  H       -3.2864430    -0.4457910     0.0001330
  H        2.2779260     1.5498300    -0.0001490
units angstrom
no_reorient  #important for SAPT in psi4, default
symmetry c1  #important for SAPT in psi4, default
}

set PROPERTIES_ORIGIN ["COM"]
properties('MP2/aug-cc-pvtz', properties = ['dipole'])
--------------------------------------------------------------------------

    Molecular point group: c1
  Charge       = 0
  Multiplicity = 1
  Basis Set: AUG-CC-PVTZ
    Blend: AUG-CC-PVTZ
  Basis Set: (AUG-CC-PVTZ AUX)
    Blend: AUG-CC-PVTZ-JKFIT

    Orbital Energies [Eh]
    ---------------------

    Doubly Occupied:

       1A    -20.556399     2A    -11.339434     3A    -11.264509
       4A    -11.261775     5A    -11.256003     6A    -11.254759
       7A    -11.253832     8A    -11.249876     9A     -1.381259
      10A     -1.174493    11A     -1.051634    12A     -1.035881
      13A     -0.895890    14A     -0.846249    15A     -0.794131
      16A     -0.720202    17A     -0.676763    18A     -0.652940
      19A     -0.620472    20A     -0.613901    21A     -0.604340
      22A     -0.552457    23A     -0.532608    24A     -0.506740
      25A     -0.501464    26A     -0.431519    27A     -0.358548
      28A     -0.352908

  @DF-RHF Final Energy:  -343.54743717359270

   => Energetics <=

    Nuclear Repulsion Energy =            320.7235136689865840
    One-Electron Energy =               -1101.0599326871229096
    Two-Electron Energy =                 436.7889818445436276
    Total Energy =                       -343.5474371735926979
  Basis Set: (AUG-CC-PVTZ AUX)
    Blend: AUG-CC-PVTZ-RI
    Molecular point group: c1

    Geometry (in Angstrom), charge = 0, multiplicity = 1:

       Center              X                  Y                   Z               Mass
    ------------   -----------------  -----------------  -----------------  -----------------
         O            2.806358279649    -0.391512219835    -0.000063215611    15.994914619570
         C            0.492339279649     0.228542780165    -0.000031215611    12.000000000000
         C           -0.403022720351     1.304188780165     0.000003784389    12.000000000000
         C           -0.007322920351    -1.080682319835    -0.000008315611    12.000000000000
         C           -1.777286720351     1.064053780165     0.000066784389    12.000000000000
         C           -1.356396720351    -1.323949219835     0.000048784389    12.000000000000
         C           -2.253371720351    -0.249203219835     0.000085784389    12.000000000000
         C            1.949288279649     0.487009780165    -0.000089215611    12.000000000000
         H           -0.022552720351     2.324890780165    -0.000016215611     1.007825032230
         H            0.733974279649    -1.905112219835    -0.000033215611     1.007825032230
         H           -2.476262720351     1.896683780165     0.000095784389     1.007825032230
         H           -1.732947720351    -2.343906219835     0.000061784389     1.007825032230
         H           -3.324452720351    -0.437029219835     0.000133784389     1.007825032230
         H            2.239916279649     1.558591780165    -0.000148215611     1.007825032230

  Basis Set: AUG-CC-PVTZ
    Blend: AUG-CC-PVTZ
  Basis Set: (AUG-CC-PVTZ AUX)
    Blend: AUG-CC-PVTZ-JKFIT
	 Reference Energy          =    -343.5474371735926979 [Eh]
	 Singles Energy            =      -0.0000000000000000 [Eh]
	 Same-Spin Energy          =      -0.3639140696851508 [Eh]
	 Opposite-Spin Energy      =      -1.1295841069238302 [Eh]
	 Correlation Energy        =      -1.4934981766089810 [Eh]
	 Total Energy              =    -345.0409353502016643 [Eh]

	 ================> DF-SCS-MP2 Energies <==================
	-----------------------------------------------------------
	 SCS Same-Spin Scale       =       0.3333333333333333 [-]
	 SCS Opposite-Spin Scale   =       1.2000000000000000 [-]
	 SCS Same-Spin Energy      =      -0.1213046898950502 [Eh]
	 SCS Opposite-Spin Energy  =      -1.3555009283085961 [Eh]
	 SCS Correlation Energy    =      -1.4768056182036464 [Eh]
	 SCS Total Energy          =    -345.0242427917963255 [Eh]
	-----------------------------------------------------------

  Dipole Moment: [D]
     X:    -3.0092      Y:     1.2578      Z:     0.0000     Total:     3.2615

*** Psi4 exiting successfully. Buy a developer a beer!
