                               Psi4 1.3.2 release

  ==> Input File <==

--------------------------------------------------------------------------
#psi4
#
memory 32 gb

molecule  {
0 1
  O        2.8443680    -0.4002740    -0.0000640
  C        0.5303490     0.2197810    -0.0000320
  C       -0.3650130     1.2954270     0.0000030
  C        0.1939656    -1.1405788    -0.0000154
  C       -1.7392770     1.0552920     0.0000660
  C       -1.3183870    -1.3327110     0.0000480
  C       -2.2153620    -0.2579650     0.0000850
  C        1.9872980     0.4782480    -0.0000900
  H        0.0154570     2.3161290    -0.0000170
  H        0.7719840    -1.9138740    -0.0000340
  H       -2.4382530     1.8879220     0.0000950
  H       -1.6949380    -2.3526680     0.0000610
  H       -3.2864430    -0.4457910     0.0001330
  H        2.2779260     1.5498300    -0.0001490
units angstrom
no_reorient  #important for SAPT in psi4, default
symmetry c1  #important for SAPT in psi4, default
}

set PROPERTIES_ORIGIN ["COM"]
properties('MP2/aug-cc-pvtz', properties = ['dipole'])
--------------------------------------------------------------------------

    Molecular point group: c1
  Charge       = 0
  Multiplicity = 1
  Basis Set: AUG-CC-PVTZ
    Blend: AUG-CC-PVTZ
  Basis Set: (AUG-CC-PVTZ AUX)
    Blend: AUG-CC-PVTZ-JKFIT

    Orbital Energies [Eh]
    ---------------------

    Doubly Occupied:

       1A    -20.554896     2A    -11.336120     3A    -11.266908
       4A    -11.264067     5A    -11.263585     6A    -11.260112
       7A    -11.258892     8A    -11.257306     9A     -1.380754
      10A     -1.163728    11A     -1.053766    12A     -1.024594
      13A     -0.894497    14A     -0.854492    15A     -0.790298
      16A     -0.721920    17A     -0.690894    18A     -0.654555
      19A     -0.631274    20A     -0.613661    21A     -0.594300
      22A     -0.550083    23A     -0.532949    24A     -0.510573
      25A     -0.495014    26A     -0.426943    27A     -0.359508
      28A     -0.342087

  @DF-RHF Final Energy:  -343.51733510537156

   => Energetics <=

    Nuclear Repulsion Energy =            319.2270733531132691
    One-Electron Energy =               -1097.9932647494110824
    Two-Electron Energy =                 435.2488562909262555
    Total Energy =                       -343.5173351053715578
  Basis Set: (AUG-CC-PVTZ AUX)
    Blend: AUG-CC-PVTZ-RI
    Molecular point group: c1

    Geometry (in Angstrom), charge = 0, multiplicity = 1:

       Center              X                  Y                   Z               Mass
    ------------   -----------------  -----------------  -----------------  -----------------
         O            2.787881184745    -0.385725671276    -0.000062502685    15.994914619570
         C            0.473862184745     0.234329328724    -0.000030502685    12.000000000000
         C           -0.421499815255     1.309975328724     0.000004497315    12.000000000000
         C            0.137478784745    -1.126030471276    -0.000013902685    12.000000000000
         C           -1.795763815255     1.069840328724     0.000067497315    12.000000000000
         C           -1.374873815255    -1.318162671276     0.000049497315    12.000000000000
         C           -2.271848815255    -0.243416671276     0.000086497315    12.000000000000
         C            1.930811184745     0.492796328724    -0.000088502685    12.000000000000
         H           -0.041029815255     2.330677328724    -0.000015502685     1.007825032230
         H            0.715497184745    -1.899325671276    -0.000032502685     1.007825032230
         H           -2.494739815255     1.902470328724     0.000096497315     1.007825032230
         H           -1.751424815255    -2.338119671276     0.000062497315     1.007825032230
         H           -3.342929815255    -0.431242671276     0.000134497315     1.007825032230
         H            2.221439184745     1.564378328724    -0.000147502685     1.007825032230

  Basis Set: AUG-CC-PVTZ
    Blend: AUG-CC-PVTZ
  Basis Set: (AUG-CC-PVTZ AUX)
    Blend: AUG-CC-PVTZ-JKFIT
	 Reference Energy          =    -343.5173351053715578 [Eh]
	 Singles Energy            =      -0.0000000000000000 [Eh]
	 Same-Spin Energy          =      -0.3642398077717037 [Eh]
	 Opposite-Spin Energy      =      -1.1318774783476691 [Eh]
	 Correlation Energy        =      -1.4961172861193728 [Eh]
	 Total Energy              =    -345.0134523914909437 [Eh]

	 ================> DF-SCS-MP2 Energies <==================
	-----------------------------------------------------------
	 SCS Same-Spin Scale       =       0.3333333333333333 [-]
	 SCS Opposite-Spin Scale   =       1.2000000000000000 [-]
	 SCS Same-Spin Energy      =      -0.1214132692572346 [Eh]
	 SCS Opposite-Spin Energy  =      -1.3582529740172029 [Eh]
	 SCS Correlation Energy    =      -1.4796662432744374 [Eh]
	 SCS Total Energy          =    -344.9970013486459948 [Eh]
	-----------------------------------------------------------

  Dipole Moment: [D]
     X:    -3.0319      Y:     1.2239      Z:     0.0000     Total:     3.2696

*** Psi4 exiting successfully. Buy a developer a beer!
