                               Psi4 1.3.2 release

  ==> Input File <==

--------------------------------------------------------------------------
#psi4
#
memory 32 gb

molecule  {
0 1
  O        2.8289051    -0.4150981    -0.0000630
  C        0.5303490     0.2197810    -0.0000320
  C       -0.3650130     1.2954270     0.0000030
  C        0.0536120    -1.0979650    -0.0000100
  C       -1.7392770     1.0552920     0.0000660
  C       -1.3183870    -1.3327110     0.0000480
  C       -2.2153620    -0.2579650     0.0000850
  C        1.9872980     0.4782480    -0.0000900
  H        0.0154570     2.3161290    -0.0000170
  H        0.7719840    -1.9138740    -0.0000340
  H       -2.4382530     1.8879220     0.0000950
  H       -1.6949380    -2.3526680     0.0000610
  H       -3.2864430    -0.4457910     0.0001330
  H        2.2779260     1.5498300    -0.0001490
units angstrom
no_reorient  #important for SAPT in psi4, default
symmetry c1  #important for SAPT in psi4, default
}

set PROPERTIES_ORIGIN ["COM"]
properties('MP2/aug-cc-pvtz', properties = ['dipole'])
--------------------------------------------------------------------------

    Molecular point group: c1
  Charge       = 0
  Multiplicity = 1
  Basis Set: AUG-CC-PVTZ
    Blend: AUG-CC-PVTZ
  Basis Set: (AUG-CC-PVTZ AUX)
    Blend: AUG-CC-PVTZ-JKFIT

    Orbital Energies [Eh]
    ---------------------

    Doubly Occupied:

       1A    -20.556302     2A    -11.339200     3A    -11.263805
       4A    -11.261067     5A    -11.256384     6A    -11.254556
       7A    -11.253881     8A    -11.252071     9A     -1.381542
      10A     -1.172023    11A     -1.050789    12A     -1.033915
      13A     -0.895238    14A     -0.846995    15A     -0.793152
      16A     -0.719964    17A     -0.678009    18A     -0.652619
      19A     -0.619884    20A     -0.613897    21A     -0.604852
      22A     -0.552016    23A     -0.530248    24A     -0.510893
      25A     -0.500124    26A     -0.431378    27A     -0.356323
      28A     -0.352421

  @DF-RHF Final Energy:  -343.54786106444033

   => Energetics <=

    Nuclear Repulsion Energy =            320.6579475195307509
    One-Electron Energy =               -1100.9445221874395884
    Two-Electron Energy =                 436.7387136034684545
    Total Energy =                       -343.5478610644403261
  Basis Set: (AUG-CC-PVTZ AUX)
    Blend: AUG-CC-PVTZ-RI
    Molecular point group: c1

    Geometry (in Angstrom), charge = 0, multiplicity = 1:

       Center              X                  Y                   Z               Mass
    ------------   -----------------  -----------------  -----------------  -----------------
         O            2.790633458239    -0.403136064781    -0.000062264600    15.994914619570
         C            0.492077358239     0.231743035219    -0.000031264600    12.000000000000
         C           -0.403284641761     1.307389035219     0.000003735400    12.000000000000
         C            0.015340358239    -1.086002964781    -0.000009264600    12.000000000000
         C           -1.777548641761     1.067254035219     0.000066735400    12.000000000000
         C           -1.356658641761    -1.320748964781     0.000048735400    12.000000000000
         C           -2.253633641761    -0.246002964781     0.000085735400    12.000000000000
         C            1.949026358239     0.490210035219    -0.000089264600    12.000000000000
         H           -0.022814641761     2.328091035219    -0.000016264600     1.007825032230
         H            0.733712358239    -1.901911964781    -0.000033264600     1.007825032230
         H           -2.476524641761     1.899884035219     0.000095735400     1.007825032230
         H           -1.733209641761    -2.340705964781     0.000061735400     1.007825032230
         H           -3.324714641761    -0.433828964781     0.000133735400     1.007825032230
         H            2.239654358239     1.561792035219    -0.000148264600     1.007825032230

  Basis Set: AUG-CC-PVTZ
    Blend: AUG-CC-PVTZ
  Basis Set: (AUG-CC-PVTZ AUX)
    Blend: AUG-CC-PVTZ-JKFIT
	 Reference Energy          =    -343.5478610644403261 [Eh]
	 Singles Energy            =      -0.0000000000000000 [Eh]
	 Same-Spin Energy          =      -0.3639402977560540 [Eh]
	 Opposite-Spin Energy      =      -1.1296613640741531 [Eh]
	 Correlation Energy        =      -1.4936016618302070 [Eh]
	 Total Energy              =    -345.0414627262705380 [Eh]

	 ================> DF-SCS-MP2 Energies <==================
	-----------------------------------------------------------
	 SCS Same-Spin Scale       =       0.3333333333333333 [-]
	 SCS Opposite-Spin Scale   =       1.2000000000000000 [-]
	 SCS Same-Spin Energy      =      -0.1213134325853513 [Eh]
	 SCS Opposite-Spin Energy  =      -1.3555936368889836 [Eh]
	 SCS Correlation Energy    =      -1.4769070694743349 [Eh]
	 SCS Total Energy          =    -345.0247681339146766 [Eh]
	-----------------------------------------------------------

  Dipole Moment: [D]
     X:    -2.9575      Y:     1.2758      Z:     0.0000     Total:     3.2210

*** Psi4 exiting successfully. Buy a developer a beer!
