                               Psi4 1.3.2 release

  ==> Input File <==

--------------------------------------------------------------------------
#psi4
#
memory 32 gb

molecule  {
0 1
  O        2.8443680    -0.4002740    -0.0000640
  C        0.5303490     0.2197810    -0.0000320
  C       -0.3650130     1.2954270     0.0000030
  C       -0.0815183    -1.0409137    -0.0000048
  C       -1.7392770     1.0552920     0.0000660
  C       -1.3183870    -1.3327110     0.0000480
  C       -2.2153620    -0.2579650     0.0000850
  C        1.9872980     0.4782480    -0.0000900
  H        0.0154570     2.3161290    -0.0000170
  H        0.7719840    -1.9138740    -0.0000340
  H       -2.4382530     1.8879220     0.0000950
  H       -1.6949380    -2.3526680     0.0000610
  H       -3.2864430    -0.4457910     0.0001330
  H        2.2779260     1.5498300    -0.0001490
units angstrom
no_reorient  #important for SAPT in psi4, default
symmetry c1  #important for SAPT in psi4, default
}

set PROPERTIES_ORIGIN ["COM"]
properties('MP2/aug-cc-pvtz', properties = ['dipole'])
--------------------------------------------------------------------------

    Molecular point group: c1
  Charge       = 0
  Multiplicity = 1
  Basis Set: AUG-CC-PVTZ
    Blend: AUG-CC-PVTZ
  Basis Set: (AUG-CC-PVTZ AUX)
    Blend: AUG-CC-PVTZ-JKFIT

    Orbital Energies [Eh]
    ---------------------

    Doubly Occupied:

       1A    -20.557243     2A    -11.342024     3A    -11.265875
       4A    -11.263528     5A    -11.255118     6A    -11.252041
       7A    -11.250340     8A    -11.236837     9A     -1.381667
      10A     -1.186928    11A     -1.059978    12A     -1.038901
      13A     -0.899099    14A     -0.841733    15A     -0.799574
      16A     -0.722324    17A     -0.673515    18A     -0.653492
      19A     -0.632200    20A     -0.613382    21A     -0.592269
      22A     -0.556296    23A     -0.540027    24A     -0.507986
      25A     -0.474881    26A     -0.434118    27A     -0.371315
      28A     -0.350566

  @DF-RHF Final Energy:  -343.51945399163185

   => Energetics <=

    Nuclear Repulsion Energy =            322.1125727578428837
    One-Electron Energy =               -1103.7575421421277042
    Two-Electron Energy =                 438.1255153926530284
    Total Energy =                       -343.5194539916318490
  Basis Set: (AUG-CC-PVTZ AUX)
    Blend: AUG-CC-PVTZ-RI
    Molecular point group: c1

    Geometry (in Angstrom), charge = 0, multiplicity = 1:

       Center              X                  Y                   Z               Mass
    ------------   -----------------  -----------------  -----------------  -----------------
         O            2.819055728929    -0.397004058375    -0.000063702211    15.994914619570
         C            0.505036728929     0.223050941625    -0.000031702211    12.000000000000
         C           -0.390325271071     1.298696941625     0.000003297789    12.000000000000
         C           -0.106830571071    -1.037643758375    -0.000004502211    12.000000000000
         C           -1.764589271071     1.058561941625     0.000066297789    12.000000000000
         C           -1.343699271071    -1.329441058375     0.000048297789    12.000000000000
         C           -2.240674271071    -0.254695058375     0.000085297789    12.000000000000
         C            1.961985728929     0.481517941625    -0.000089702211    12.000000000000
         H           -0.009855271071     2.319398941625    -0.000016702211     1.007825032230
         H            0.746671728929    -1.910604058375    -0.000033702211     1.007825032230
         H           -2.463565271071     1.891191941625     0.000095297789     1.007825032230
         H           -1.720250271071    -2.349398058375     0.000061297789     1.007825032230
         H           -3.311755271071    -0.442521058375     0.000133297789     1.007825032230
         H            2.252613728929     1.553099941625    -0.000148702211     1.007825032230

  Basis Set: AUG-CC-PVTZ
    Blend: AUG-CC-PVTZ
  Basis Set: (AUG-CC-PVTZ AUX)
    Blend: AUG-CC-PVTZ-JKFIT
	 Reference Energy          =    -343.5194539916318490 [Eh]
	 Singles Energy            =      -0.0000000000000000 [Eh]
	 Same-Spin Energy          =      -0.3642750991367838 [Eh]
	 Opposite-Spin Energy      =      -1.1305239576674246 [Eh]
	 Correlation Energy        =      -1.4947990568042084 [Eh]
	 Total Energy              =    -345.0142530484360464 [Eh]

	 ================> DF-SCS-MP2 Energies <==================
	-----------------------------------------------------------
	 SCS Same-Spin Scale       =       0.3333333333333333 [-]
	 SCS Opposite-Spin Scale   =       1.2000000000000000 [-]
	 SCS Same-Spin Energy      =      -0.1214250330455946 [Eh]
	 SCS Opposite-Spin Energy  =      -1.3566287492009095 [Eh]
	 SCS Correlation Energy    =      -1.4780537822465041 [Eh]
	 SCS Total Energy          =    -344.9975077738783398 [Eh]
	-----------------------------------------------------------

  Dipole Moment: [D]
     X:    -3.0239      Y:     1.3493      Z:     0.0000     Total:     3.3113

*** Psi4 exiting successfully. Buy a developer a beer!
