                               Psi4 1.4a3.dev225

  ==> Input File <==

--------------------------------------------------------------------------
#psi4
#
memory 32 gb

molecule  {
0 1
  O        2.8443490    -0.4002910    -0.0000960
  C        0.5303130     0.2198450    -0.0000250
  C       -0.3650130     1.2954800     0.0000070
  C        0.0536480    -1.0979670    -0.0000020
  C       -1.7393110     1.0553020     0.0000660
  C       -1.3183250    -1.3328010     0.0000550
  C       -2.2153260    -0.2579870     0.0000890
  C        1.9872740     0.4782630    -0.0000850
  H        0.0153590     2.3162280    -0.0000130
  H        0.7720410    -1.9138490    -0.0000260
  H       -2.4383560     1.8878700     0.0000920
  H       -1.6950010    -2.3527060     0.0000730
  H       -3.2864200    -0.4458710     0.0001340
  H        2.2727887     1.5305389    -0.0001213
units angstrom
no_reorient  #important for SAPT in psi4, default
symmetry c1  #important for SAPT in psi4, default
}

set PROPERTIES_ORIGIN ["COM"]
properties('MP2/aug-cc-pvtz', properties = ['dipole'])
--------------------------------------------------------------------------

    Molecular point group: c1
  Charge       = 0
  Multiplicity = 1
  Basis Set: AUG-CC-PVTZ
    Blend: AUG-CC-PVTZ
  Basis Set: (AUG-CC-PVTZ AUX)
    Blend: AUG-CC-PVTZ-JKFIT

    Orbital Energies [Eh]
    ---------------------

    Doubly Occupied:

       1A    -20.555733     2A    -11.336607     3A    -11.264249
       4A    -11.261406     5A    -11.256760     6A    -11.254911
       7A    -11.254220     8A    -11.252364     9A     -1.380878
      10A     -1.172408    11A     -1.051325    12A     -1.034261
      13A     -0.896648    14A     -0.847406    15A     -0.795061
      16A     -0.721092    17A     -0.678811    18A     -0.652896
      19A     -0.620232    20A     -0.614263    21A     -0.605270
      22A     -0.551688    23A     -0.530647    24A     -0.511271
      25A     -0.500119    26A     -0.431641    27A     -0.356634
      28A     -0.352797

  @DF-RHF Final Energy:  -343.54825588872336

   => Energetics <=

    Nuclear Repulsion Energy =            320.5691215015949638
    One-Electron Energy =               -1100.7515588029011724
    Two-Electron Energy =                 436.6341814125828478
    Total Energy =                       -343.5482558887233608
  Basis Set: (AUG-CC-PVTZ AUX)
    Blend: AUG-CC-PVTZ-RI
    Molecular point group: c1

    Geometry (in Angstrom), charge = 0, multiplicity = 1:

       Center              X                  Y                   Z               Mass
    ------------   -----------------  -----------------  -----------------  -----------------
         O            2.803793911763    -0.390381794456    -0.000094720067    15.994914619570
         C            0.489757911763     0.229754205544    -0.000023720067    12.000000000000
         C           -0.405568088237     1.305389205544     0.000008279933    12.000000000000
         C            0.013092911763    -1.088057794456    -0.000000720067    12.000000000000
         C           -1.779866088237     1.065211205544     0.000067279933    12.000000000000
         C           -1.358880088237    -1.322891794456     0.000056279933    12.000000000000
         C           -2.255881088237    -0.248077794456     0.000090279933    12.000000000000
         C            1.946718911763     0.488172205544    -0.000083720067    12.000000000000
         H           -0.025196088237     2.326137205544    -0.000011720067     1.007825032230
         H            0.731485911763    -1.903939794456    -0.000024720067     1.007825032230
         H           -2.478911088237     1.897779205544     0.000093279933     1.007825032230
         H           -1.735556088237    -2.342796794456     0.000074279933     1.007825032230
         H           -3.326975088237    -0.435961794456     0.000135279933     1.007825032230
         H            2.232233611763     1.540448105544    -0.000120020067     1.007825032230

  Basis Set: AUG-CC-PVTZ
    Blend: AUG-CC-PVTZ
  Basis Set: (AUG-CC-PVTZ AUX)
    Blend: AUG-CC-PVTZ-JKFIT
	 Reference Energy          =    -343.5482558887233608 [Eh]
	 Singles Energy            =      -0.0000000000000000 [Eh]
	 Same-Spin Energy          =      -0.3638171531910078 [Eh]
	 Opposite-Spin Energy      =      -1.1294596075771441 [Eh]
	 Correlation Energy        =      -1.4932767607681519 [Eh]
	 Total Energy              =    -345.0415326494915007 [Eh]

	 ================> DF-SCS-MP2 Energies <==================
	-----------------------------------------------------------
	 SCS Same-Spin Scale       =       0.3333333333333333 [-]
	 SCS Opposite-Spin Scale   =       1.2000000000000000 [-]
	 SCS Same-Spin Energy      =      -0.1212723843970026 [Eh]
	 SCS Opposite-Spin Energy  =      -1.3553515290925728 [Eh]
	 SCS Correlation Energy    =      -1.4766239134895753 [Eh]
	 SCS Total Energy          =    -345.0248798022129222 [Eh]
	-----------------------------------------------------------

  Dipole Moment: [D]
     X:    -3.0024      Y:     1.2680      Z:     0.0001     Total:     3.2592

*** Psi4 exiting successfully. Buy a developer a beer!
