                               Psi4 1.3.2 release

  ==> Input File <==

--------------------------------------------------------------------------
#psi4
#
memory 32 gb

molecule  {
0 1
  O        2.7382740    -0.7425350    -0.0126020
  N        0.6793120    -1.7266560     0.0061990
  C       -0.6027900     0.6893070    -0.0105920
  C        0.7782570     0.6611280     0.0035530
  C       -1.3671740    -0.5278470     0.0018860
  C        1.5049430    -0.6032750    -0.0044170
  C       -0.6863680    -1.7128580     0.0067460
  C       -1.3542970     1.9956390    -0.0048030
  C        1.6363160     1.8972900     0.0117510
  C       -2.8711540    -0.5219980    -0.0023590
  H       -1.1766380    -2.6823000     0.0159410
  H       -2.1333760     2.0016470    -0.7732430
  H       -0.6949600     2.8439520    -0.1887900
  H       -1.8505650     2.1568320     0.9594550
  H        1.1855660    -2.6081270     0.0055670
  H        1.5190430     2.4748580    -0.9113220
  H        2.6811620     1.5965790     0.0968200
  H        1.3890810     2.5538390     0.8512930
  H       -3.2566820    -1.5436220     0.0624630
  H       -3.2744260    -0.0723770    -0.9160080
  H       -3.2759870     0.0412750     0.8446610
units angstrom
no_reorient  #important for SAPT in psi4, default
symmetry c1  #important for SAPT in psi4, default
}

set PROPERTIES_ORIGIN ["COM"]
properties('MP2/aug-cc-pvtz', properties = ['dipole'])
--------------------------------------------------------------------------

    Molecular point group: c1
  Charge       = 0
  Multiplicity = 1
  Basis Set: AUG-CC-PVTZ
    Blend: AUG-CC-PVTZ
  Basis Set: (AUG-CC-PVTZ AUX)
    Blend: AUG-CC-PVTZ-JKFIT

    Orbital Energies [Eh]
    ---------------------

    Doubly Occupied:

       1A    -20.500224     2A    -15.615752     3A    -11.344136
       4A    -11.296784     5A    -11.269269     6A    -11.243004
       7A    -11.238495     8A    -11.237268     9A    -11.237003
      10A    -11.212828    11A     -1.361761    12A     -1.263156
      13A     -1.131527    14A     -1.062019    15A     -0.991188
      16A     -0.948833    17A     -0.934040    18A     -0.830307
      19A     -0.809734    20A     -0.726200    21A     -0.705491
      22A     -0.645444    23A     -0.620717    24A     -0.598189
      25A     -0.586309    26A     -0.582406    27A     -0.571469
      28A     -0.569297    29A     -0.561565    30A     -0.550216
      31A     -0.533814    32A     -0.505813    33A     -0.499486
      34A     -0.468599    35A     -0.415695    36A     -0.387891
      37A     -0.295617

  @DF-RHF Final Energy:  -438.82768608544114

   => Energetics <=

    Nuclear Repulsion Energy =            522.8179269856200335
    One-Electron Energy =               -1632.5881312666381291
    Two-Electron Energy =                 670.9425181955768949
    Total Energy =                       -438.8276860854412007
  Basis Set: (AUG-CC-PVTZ AUX)
    Blend: AUG-CC-PVTZ-RI
    Molecular point group: c1

    Geometry (in Angstrom), charge = 0, multiplicity = 1:

       Center              X                  Y                   Z               Mass
    ------------   -----------------  -----------------  -----------------  -----------------
         O            2.674033258904    -0.693578394383    -0.012263672146    15.994914619570
         N            0.615071258904    -1.677699394383     0.006537327854    14.003074004430
         C           -0.667030741096     0.738263605617    -0.010253672146    12.000000000000
         C            0.714016258904     0.710084605617     0.003891327854    12.000000000000
         C           -1.431414741096    -0.478890394383     0.002224327854    12.000000000000
         C            1.440702258904    -0.554318394383    -0.004078672146    12.000000000000
         C           -0.750608741096    -1.663901394383     0.007084327854    12.000000000000
         C           -1.418537741096     2.044595605617    -0.004464672146    12.000000000000
         C            1.572075258904     1.946246605617     0.012089327854    12.000000000000
         C           -2.935394741096    -0.473041394383    -0.002020672146    12.000000000000
         H           -1.240878741096    -2.633343394383     0.016279327854     1.007825032230
         H           -2.197616741096     2.050603605617    -0.772904672146     1.007825032230
         H           -0.759200741096     2.892908605617    -0.188451672146     1.007825032230
         H           -1.914805741096     2.205788605617     0.959793327854     1.007825032230
         H            1.121325258904    -2.559170394383     0.005905327854     1.007825032230
         H            1.454802258904     2.523814605617    -0.910983672146     1.007825032230
         H            2.616921258904     1.645535605617     0.097158327854     1.007825032230
         H            1.324840258904     2.602795605617     0.851631327854     1.007825032230
         H           -3.320922741096    -1.494665394383     0.062801327854     1.007825032230
         H           -3.338666741096    -0.023420394383    -0.915669672146     1.007825032230
         H           -3.340227741096     0.090231605617     0.844999327854     1.007825032230

  Basis Set: AUG-CC-PVTZ
    Blend: AUG-CC-PVTZ
  Basis Set: (AUG-CC-PVTZ AUX)
    Blend: AUG-CC-PVTZ-JKFIT
	 Reference Energy          =    -438.8276860854411439 [Eh]
	 Singles Energy            =      -0.0000000000000000 [Eh]
	 Same-Spin Energy          =      -0.4701498072369609 [Eh]
	 Opposite-Spin Energy      =      -1.4991639729925810 [Eh]
	 Correlation Energy        =      -1.9693137802295420 [Eh]
	 Total Energy              =    -440.7969998656706707 [Eh]

	 ================> DF-SCS-MP2 Energies <==================
	-----------------------------------------------------------
	 SCS Same-Spin Scale       =       0.3333333333333333 [-]
	 SCS Opposite-Spin Scale   =       1.2000000000000000 [-]
	 SCS Same-Spin Energy      =      -0.1567166024123203 [Eh]
	 SCS Opposite-Spin Energy  =      -1.7989967675910972 [Eh]
	 SCS Correlation Energy    =      -1.9557133700034175 [Eh]
	 SCS Total Energy          =    -440.7833994554445667 [Eh]
	-----------------------------------------------------------

  Dipole Moment: [D]
     X:    -4.4626      Y:    -0.2930      Z:     0.0417     Total:     4.4724

*** Psi4 exiting successfully. Buy a developer a beer!
