                               Psi4 1.3.2 release

  ==> Input File <==

--------------------------------------------------------------------------
#psi4
#
memory 32 gb

molecule  {
0 1
  O        2.7382740    -0.7425350    -0.0126020
  N        0.6793120    -1.7266560     0.0061990
  C       -0.6027900     0.6893070    -0.0105920
  C        0.7782570     0.6611280     0.0035530
  C       -1.3671740    -0.5278470     0.0018860
  C        1.5049430    -0.6032750    -0.0044170
  C       -0.6863680    -1.7128580     0.0067460
  C       -1.3542970     1.9956390    -0.0048030
  C        1.6363160     1.8972900     0.0117510
  C       -2.8711540    -0.5219980    -0.0023590
  H       -1.1766380    -2.6823000     0.0159410
  H       -2.1333760     2.0016470    -0.7732430
  H       -0.6949600     2.8439520    -0.1887900
  H       -1.8505650     2.1568320     0.9594550
  H        1.1858458    -2.6076736     0.1055656
  H        1.5190430     2.4748580    -0.9113220
  H        2.6811620     1.5965790     0.0968200
  H        1.3890810     2.5538390     0.8512930
  H       -3.2566820    -1.5436220     0.0624630
  H       -3.2744260    -0.0723770    -0.9160080
  H       -3.2759870     0.0412750     0.8446610
units angstrom
no_reorient  #important for SAPT in psi4, default
symmetry c1  #important for SAPT in psi4, default
}

set PROPERTIES_ORIGIN ["COM"]
properties('MP2/aug-cc-pvtz', properties = ['dipole'])
--------------------------------------------------------------------------

    Molecular point group: c1
  Charge       = 0
  Multiplicity = 1
  Basis Set: AUG-CC-PVTZ
    Blend: AUG-CC-PVTZ
  Basis Set: (AUG-CC-PVTZ AUX)
    Blend: AUG-CC-PVTZ-JKFIT

    Orbital Energies [Eh]
    ---------------------

    Doubly Occupied:

       1A    -20.500314     2A    -15.615927     3A    -11.344142
       4A    -11.296669     5A    -11.269299     6A    -11.243014
       7A    -11.238509     8A    -11.237262     9A    -11.237020
      10A    -11.212842    11A     -1.361681    12A     -1.262834
      13A     -1.131390    14A     -1.062006    15A     -0.991117
      16A     -0.948704    17A     -0.933970    18A     -0.829819
      19A     -0.809643    20A     -0.725714    21A     -0.705193
      22A     -0.645419    23A     -0.620510    24A     -0.598213
      25A     -0.586656    26A     -0.581851    27A     -0.571309
      28A     -0.569532    29A     -0.561562    30A     -0.550103
      31A     -0.533744    32A     -0.505811    33A     -0.499491
      34A     -0.468512    35A     -0.415715    36A     -0.387881
      37A     -0.295654

  @DF-RHF Final Energy:  -438.82718578457559

   => Energetics <=

    Nuclear Repulsion Energy =            522.7944140531761832
    One-Electron Energy =               -1632.5451359623243661
    Two-Electron Energy =                 670.9235361245724789
    Total Energy =                       -438.8271857845755903
  Basis Set: (AUG-CC-PVTZ AUX)
    Blend: AUG-CC-PVTZ-RI
    Molecular point group: c1

    Geometry (in Angstrom), charge = 0, multiplicity = 1:

       Center              X                  Y                   Z               Mass
    ------------   -----------------  -----------------  -----------------  -----------------
         O            2.674031201849    -0.693581727724    -0.012998849447    15.994914619570
         N            0.615069201849    -1.677702727724     0.005802150553    14.003074004430
         C           -0.667032798151     0.738260272276    -0.010988849447    12.000000000000
         C            0.714014201849     0.710081272276     0.003156150553    12.000000000000
         C           -1.431416798151    -0.478893727724     0.001489150553    12.000000000000
         C            1.440700201849    -0.554321727724    -0.004813849447    12.000000000000
         C           -0.750610798151    -1.663904727724     0.006349150553    12.000000000000
         C           -1.418539798151     2.044592272276    -0.005199849447    12.000000000000
         C            1.572073201849     1.946243272276     0.011354150553    12.000000000000
         C           -2.935396798151    -0.473044727724    -0.002755849447    12.000000000000
         H           -1.240880798151    -2.633346727724     0.015544150553     1.007825032230
         H           -2.197618798151     2.050600272276    -0.773639849447     1.007825032230
         H           -0.759202798151     2.892905272276    -0.189186849447     1.007825032230
         H           -1.914807798151     2.205785272276     0.959058150553     1.007825032230
         H            1.121603001849    -2.558720327724     0.105168750553     1.007825032230
         H            1.454800201849     2.523811272276    -0.911718849447     1.007825032230
         H            2.616919201849     1.645532272276     0.096423150553     1.007825032230
         H            1.324838201849     2.602792272276     0.850896150553     1.007825032230
         H           -3.320924798151    -1.494668727724     0.062066150553     1.007825032230
         H           -3.338668798151    -0.023423727724    -0.916404849447     1.007825032230
         H           -3.340229798151     0.090228272276     0.844264150553     1.007825032230

  Basis Set: AUG-CC-PVTZ
    Blend: AUG-CC-PVTZ
  Basis Set: (AUG-CC-PVTZ AUX)
    Blend: AUG-CC-PVTZ-JKFIT
	 Reference Energy          =    -438.8271857845755903 [Eh]
	 Singles Energy            =      -0.0000000000000000 [Eh]
	 Same-Spin Energy          =      -0.4701827001953107 [Eh]
	 Opposite-Spin Energy      =      -1.4992540598363340 [Eh]
	 Correlation Energy        =      -1.9694367600316447 [Eh]
	 Total Energy              =    -440.7966225446072599 [Eh]

	 ================> DF-SCS-MP2 Energies <==================
	-----------------------------------------------------------
	 SCS Same-Spin Scale       =       0.3333333333333333 [-]
	 SCS Opposite-Spin Scale   =       1.2000000000000000 [-]
	 SCS Same-Spin Energy      =      -0.1567275667317702 [Eh]
	 SCS Opposite-Spin Energy  =      -1.7991048718036007 [Eh]
	 SCS Correlation Energy    =      -1.9558324385353709 [Eh]
	 SCS Total Energy          =    -440.7830182231109575 [Eh]
	-----------------------------------------------------------

  Dipole Moment: [D]
     X:    -4.4604      Y:    -0.2870      Z:     0.1696     Total:     4.4728

*** Psi4 exiting successfully. Buy a developer a beer!
