                               Psi4 1.3.2 release

  ==> Input File <==

--------------------------------------------------------------------------
#psi4
#
memory 32 gb

molecule  {
0 1
  O        2.7382740    -0.7425350    -0.0126020
  N        0.6793120    -1.7266560     0.0061990
  C       -0.6027900     0.6893070    -0.0105920
  C        0.7773795     0.6610536    -0.0964431
  C       -1.3671740    -0.5278470     0.0018860
  C        1.5049430    -0.6032750    -0.0044170
  C       -0.6863680    -1.7128580     0.0067460
  C       -1.3542970     1.9956390    -0.0048030
  C        1.6363160     1.8972900     0.0117510
  C       -2.8711540    -0.5219980    -0.0023590
  H       -1.1766380    -2.6823000     0.0159410
  H       -2.1333760     2.0016470    -0.7732430
  H       -0.6949600     2.8439520    -0.1887900
  H       -1.8505650     2.1568320     0.9594550
  H        1.1855660    -2.6081270     0.0055670
  H        1.5190430     2.4748580    -0.9113220
  H        2.6811620     1.5965790     0.0968200
  H        1.3890810     2.5538390     0.8512930
  H       -3.2566820    -1.5436220     0.0624630
  H       -3.2744260    -0.0723770    -0.9160080
  H       -3.2759870     0.0412750     0.8446610
units angstrom
no_reorient  #important for SAPT in psi4, default
symmetry c1  #important for SAPT in psi4, default
}

set PROPERTIES_ORIGIN ["COM"]
properties('MP2/aug-cc-pvtz', properties = ['dipole'])
--------------------------------------------------------------------------

    Molecular point group: c1
  Charge       = 0
  Multiplicity = 1
  Basis Set: AUG-CC-PVTZ
    Blend: AUG-CC-PVTZ
  Basis Set: (AUG-CC-PVTZ AUX)
    Blend: AUG-CC-PVTZ-JKFIT

    Orbital Energies [Eh]
    ---------------------

    Doubly Occupied:

       1A    -20.500451     2A    -15.615756     3A    -11.344485
       4A    -11.297208     5A    -11.269899     6A    -11.243007
       7A    -11.238867     8A    -11.237333     9A    -11.237102
      10A    -11.212896    11A     -1.361805    12A     -1.263248
      13A     -1.131350    14A     -1.061585    15A     -0.990898
      16A     -0.948901    17A     -0.933450    18A     -0.829848
      19A     -0.809734    20A     -0.726308    21A     -0.704819
      22A     -0.645705    23A     -0.620571    24A     -0.598252
      25A     -0.586655    26A     -0.582208    27A     -0.572715
      28A     -0.567645    29A     -0.562337    30A     -0.548839
      31A     -0.533759    32A     -0.505918    33A     -0.498083
      34A     -0.468443    35A     -0.415450    36A     -0.387652
      37A     -0.295811

  @DF-RHF Final Energy:  -438.82475897562290

   => Energetics <=

    Nuclear Repulsion Energy =            522.7008677371105705
    One-Electron Energy =               -1632.3532669314859049
    Two-Electron Energy =                 670.8276402187525491
    Total Energy =                       -438.8247589756228990
  Basis Set: (AUG-CC-PVTZ AUX)
    Blend: AUG-CC-PVTZ-RI
    Molecular point group: c1

    Geometry (in Angstrom), charge = 0, multiplicity = 1:

       Center              X                  Y                   Z               Mass
    ------------   -----------------  -----------------  -----------------  -----------------
         O            2.674110073084    -0.693571881591    -0.003510260807    15.994914619570
         N            0.615148073084    -1.677692881591     0.015290739193    14.003074004430
         C           -0.666953926916     0.738270118409    -0.001500260807    12.000000000000
         C            0.713215573084     0.710016718409    -0.087351360807    12.000000000000
         C           -1.431337926916    -0.478883881591     0.010977739193    12.000000000000
         C            1.440779073084    -0.554311881591     0.004674739193    12.000000000000
         C           -0.750531926916    -1.663894881591     0.015837739193    12.000000000000
         C           -1.418460926916     2.044602118409     0.004288739193    12.000000000000
         C            1.572152073084     1.946253118409     0.020842739193    12.000000000000
         C           -2.935317926916    -0.473034881591     0.006732739193    12.000000000000
         H           -1.240801926916    -2.633336881591     0.025032739193     1.007825032230
         H           -2.197539926916     2.050610118409    -0.764151260807     1.007825032230
         H           -0.759123926916     2.892915118409    -0.179698260807     1.007825032230
         H           -1.914728926916     2.205795118409     0.968546739193     1.007825032230
         H            1.121402073084    -2.559163881591     0.014658739193     1.007825032230
         H            1.454879073084     2.523821118409    -0.902230260807     1.007825032230
         H            2.616998073084     1.645542118409     0.105911739193     1.007825032230
         H            1.324917073084     2.602802118409     0.860384739193     1.007825032230
         H           -3.320845926916    -1.494658881591     0.071554739193     1.007825032230
         H           -3.338589926916    -0.023413881591    -0.906916260807     1.007825032230
         H           -3.340150926916     0.090238118409     0.853752739193     1.007825032230

  Basis Set: AUG-CC-PVTZ
    Blend: AUG-CC-PVTZ
  Basis Set: (AUG-CC-PVTZ AUX)
    Blend: AUG-CC-PVTZ-JKFIT
	 Reference Energy          =    -438.8247589756228990 [Eh]
	 Singles Energy            =      -0.0000000000000000 [Eh]
	 Same-Spin Energy          =      -0.4702037544837755 [Eh]
	 Opposite-Spin Energy      =      -1.4994033920010335 [Eh]
	 Correlation Energy        =      -1.9696071464848091 [Eh]
	 Total Energy              =    -440.7943661221077036 [Eh]

	 ================> DF-SCS-MP2 Energies <==================
	-----------------------------------------------------------
	 SCS Same-Spin Scale       =       0.3333333333333333 [-]
	 SCS Opposite-Spin Scale   =       1.2000000000000000 [-]
	 SCS Same-Spin Energy      =      -0.1567345848279252 [Eh]
	 SCS Opposite-Spin Energy  =      -1.7992840704012401 [Eh]
	 SCS Correlation Energy    =      -1.9560186552291652 [Eh]
	 SCS Total Energy          =    -440.7807776308520715 [Eh]
	-----------------------------------------------------------

  Dipole Moment: [D]
     X:    -4.4657      Y:    -0.3082      Z:     0.0710     Total:     4.4769

*** Psi4 exiting successfully. Buy a developer a beer!
