                               Psi4 1.3.2 release

  ==> Input File <==

--------------------------------------------------------------------------
#psi4
#
memory 32 gb

molecule  {
0 1
  O        2.7382740    -0.7425350    -0.0126020
  N        0.6793120    -1.7266560     0.0061990
  C       -0.6027900     0.6893070    -0.0105920
  C        0.7778182     0.6610908    -0.0464451
  C       -1.3671740    -0.5278470     0.0018860
  C        1.5049430    -0.6032750    -0.0044170
  C       -0.6863680    -1.7128580     0.0067460
  C       -1.3542970     1.9956390    -0.0048030
  C        1.6363160     1.8972900     0.0117510
  C       -2.8711540    -0.5219980    -0.0023590
  H       -1.1766380    -2.6823000     0.0159410
  H       -2.1333760     2.0016470    -0.7732430
  H       -0.6949600     2.8439520    -0.1887900
  H       -1.8505650     2.1568320     0.9594550
  H        1.1855660    -2.6081270     0.0055670
  H        1.5190430     2.4748580    -0.9113220
  H        2.6811620     1.5965790     0.0968200
  H        1.3890810     2.5538390     0.8512930
  H       -3.2566820    -1.5436220     0.0624630
  H       -3.2744260    -0.0723770    -0.9160080
  H       -3.2759870     0.0412750     0.8446610
units angstrom
no_reorient  #important for SAPT in psi4, default
symmetry c1  #important for SAPT in psi4, default
}

set PROPERTIES_ORIGIN ["COM"]
properties('MP2/aug-cc-pvtz', properties = ['dipole'])
--------------------------------------------------------------------------

    Molecular point group: c1
  Charge       = 0
  Multiplicity = 1
  Basis Set: AUG-CC-PVTZ
    Blend: AUG-CC-PVTZ
  Basis Set: (AUG-CC-PVTZ AUX)
    Blend: AUG-CC-PVTZ-JKFIT

    Orbital Energies [Eh]
    ---------------------

    Doubly Occupied:

       1A    -20.500298     2A    -15.615742     3A    -11.344241
       4A    -11.296858     5A    -11.269333     6A    -11.242990
       7A    -11.238581     8A    -11.237274     9A    -11.237017
      10A    -11.212892    11A     -1.361785    12A     -1.263178
      13A     -1.131510    14A     -1.061911    15A     -0.991090
      16A     -0.948841    17A     -0.933907    18A     -0.830201
      19A     -0.809787    20A     -0.726225    21A     -0.705356
      22A     -0.645494    23A     -0.620696    24A     -0.598214
      25A     -0.586414    26A     -0.582354    27A     -0.571978
      28A     -0.568427    29A     -0.561915    30A     -0.549918
      31A     -0.533789    32A     -0.505983    33A     -0.499087
      34A     -0.468543    35A     -0.415652    36A     -0.387870
      37A     -0.295674

  @DF-RHF Final Energy:  -438.82706660945081

   => Energetics <=

    Nuclear Repulsion Energy =            522.7933978201081118
    One-Electron Energy =               -1632.5388833949766649
    Two-Electron Energy =                 670.9184189654177999
    Total Energy =                       -438.8270666094507533
  Basis Set: (AUG-CC-PVTZ AUX)
    Blend: AUG-CC-PVTZ-RI
    Molecular point group: c1

    Geometry (in Angstrom), charge = 0, multiplicity = 1:

       Center              X                  Y                   Z               Mass
    ------------   -----------------  -----------------  -----------------  -----------------
         O            2.674071670371    -0.693575137987    -0.007886962099    15.994914619570
         N            0.615109670371    -1.677696137987     0.010914037901    14.003074004430
         C           -0.666992329629     0.738266862013    -0.005876962099    12.000000000000
         C            0.713615870371     0.710050662013    -0.041730062099    12.000000000000
         C           -1.431376329629    -0.478887137987     0.006601037901    12.000000000000
         C            1.440740670371    -0.554315137987     0.000298037901    12.000000000000
         C           -0.750570329629    -1.663898137987     0.011461037901    12.000000000000
         C           -1.418499329629     2.044598862013    -0.000087962099    12.000000000000
         C            1.572113670371     1.946249862013     0.016466037901    12.000000000000
         C           -2.935356329629    -0.473038137987     0.002356037901    12.000000000000
         H           -1.240840329629    -2.633340137987     0.020656037901     1.007825032230
         H           -2.197578329629     2.050606862013    -0.768527962099     1.007825032230
         H           -0.759162329629     2.892911862013    -0.184074962099     1.007825032230
         H           -1.914767329629     2.205791862013     0.964170037901     1.007825032230
         H            1.121363670371    -2.559167137987     0.010282037901     1.007825032230
         H            1.454840670371     2.523817862013    -0.906606962099     1.007825032230
         H            2.616959670371     1.645538862013     0.101535037901     1.007825032230
         H            1.324878670371     2.602798862013     0.856008037901     1.007825032230
         H           -3.320884329629    -1.494662137987     0.067178037901     1.007825032230
         H           -3.338628329629    -0.023417137987    -0.911292962099     1.007825032230
         H           -3.340189329629     0.090234862013     0.849376037901     1.007825032230

  Basis Set: AUG-CC-PVTZ
    Blend: AUG-CC-PVTZ
  Basis Set: (AUG-CC-PVTZ AUX)
    Blend: AUG-CC-PVTZ-JKFIT
	 Reference Energy          =    -438.8270666094508101 [Eh]
	 Singles Energy            =      -0.0000000000000000 [Eh]
	 Same-Spin Energy          =      -0.4701501624944964 [Eh]
	 Opposite-Spin Energy      =      -1.4992183315969647 [Eh]
	 Correlation Energy        =      -1.9693684940914611 [Eh]
	 Total Energy              =    -440.7964351035422510 [Eh]

	 ================> DF-SCS-MP2 Energies <==================
	-----------------------------------------------------------
	 SCS Same-Spin Scale       =       0.3333333333333333 [-]
	 SCS Opposite-Spin Scale   =       1.2000000000000000 [-]
	 SCS Same-Spin Energy      =      -0.1567167208314988 [Eh]
	 SCS Opposite-Spin Energy  =      -1.7990619979163576 [Eh]
	 SCS Correlation Energy    =      -1.9557787187478564 [Eh]
	 SCS Total Energy          =    -440.7828453281986754 [Eh]
	-----------------------------------------------------------

  Dipole Moment: [D]
     X:    -4.4626      Y:    -0.2963      Z:     0.0561     Total:     4.4727

*** Psi4 exiting successfully. Buy a developer a beer!
