                               Psi4 1.3.2 release

  ==> Input File <==

--------------------------------------------------------------------------
#psi4
#
memory 32 gb

molecule  {
0 1
  O        2.7382740    -0.7425350    -0.0126020
  N        0.6793120    -1.7266560     0.0061990
  C       -0.6027900     0.6893070    -0.0105920
  C        0.7782570     0.6611280     0.0035530
  C       -1.3671740    -0.5278470     0.0018860
  C        1.5049430    -0.6032750    -0.0044170
  C       -0.6863680    -1.7128580     0.0067460
  C       -1.3542970     1.9956390    -0.0048030
  C        1.6363160     1.8972900     0.0117510
  C       -2.8711540    -0.5219980    -0.0023590
  H       -1.1766380    -2.6823000     0.0159410
  H       -2.1333760     2.0016470    -0.7732430
  H       -0.6949600     2.8439520    -0.1887900
  H       -1.8505650     2.1568320     0.9594550
  H        1.1859857    -2.6074469     0.1555649
  H        1.5190430     2.4748580    -0.9113220
  H        2.6811620     1.5965790     0.0968200
  H        1.3890810     2.5538390     0.8512930
  H       -3.2566820    -1.5436220     0.0624630
  H       -3.2744260    -0.0723770    -0.9160080
  H       -3.2759870     0.0412750     0.8446610
units angstrom
no_reorient  #important for SAPT in psi4, default
symmetry c1  #important for SAPT in psi4, default
}

set PROPERTIES_ORIGIN ["COM"]
properties('MP2/aug-cc-pvtz', properties = ['dipole'])
--------------------------------------------------------------------------

    Molecular point group: c1
  Charge       = 0
  Multiplicity = 1
  Basis Set: AUG-CC-PVTZ
    Blend: AUG-CC-PVTZ
  Basis Set: (AUG-CC-PVTZ AUX)
    Blend: AUG-CC-PVTZ-JKFIT

    Orbital Energies [Eh]
    ---------------------

    Doubly Occupied:

       1A    -20.500420     2A    -15.616151     3A    -11.344145
       4A    -11.296523     5A    -11.269345     6A    -11.243038
       7A    -11.238529     8A    -11.237261     9A    -11.237048
      10A    -11.212858    11A     -1.361579    12A     -1.262425
      13A     -1.131223    14A     -1.061992    15A     -0.991034
      16A     -0.948545    17A     -0.933883    18A     -0.829210
      19A     -0.809525    20A     -0.725098    21A     -0.704763
      22A     -0.645357    23A     -0.620280    24A     -0.598238
      25A     -0.586981    26A     -0.581317    27A     -0.571224
      28A     -0.569605    29A     -0.561566    30A     -0.550031
      31A     -0.533687    32A     -0.505766    33A     -0.499466
      34A     -0.468426    35A     -0.415744    36A     -0.387893
      37A     -0.295703

  @DF-RHF Final Energy:  -438.82651156190360

   => Energetics <=

    Nuclear Repulsion Energy =            522.7645161358994983
    One-Electron Energy =               -1632.4902972554255030
    Two-Electron Energy =                 670.8992695576223468
    Total Energy =                       -438.8265115619035441
  Basis Set: (AUG-CC-PVTZ AUX)
    Blend: AUG-CC-PVTZ-RI
    Molecular point group: c1

    Geometry (in Angstrom), charge = 0, multiplicity = 1:

       Center              X                  Y                   Z               Mass
    ------------   -----------------  -----------------  -----------------  -----------------
         O            2.674030173321    -0.693583394394    -0.013366438098    15.994914619570
         N            0.615068173321    -1.677704394394     0.005434561902    14.003074004430
         C           -0.667033826679     0.738258605606    -0.011356438098    12.000000000000
         C            0.714013173321     0.710079605606     0.002788561902    12.000000000000
         C           -1.431417826679    -0.478895394394     0.001121561902    12.000000000000
         C            1.440699173321    -0.554323394394    -0.005181438098    12.000000000000
         C           -0.750611826679    -1.663906394394     0.005981561902    12.000000000000
         C           -1.418540826679     2.044590605606    -0.005567438098    12.000000000000
         C            1.572072173321     1.946241605606     0.010986561902    12.000000000000
         C           -2.935397826679    -0.473046394394    -0.003123438098    12.000000000000
         H           -1.240881826679    -2.633348394394     0.015176561902     1.007825032230
         H           -2.197619826679     2.050598605606    -0.774007438098     1.007825032230
         H           -0.759203826679     2.892903605606    -0.189554438098     1.007825032230
         H           -1.914808826679     2.205783605606     0.958690561902     1.007825032230
         H            1.121741873321    -2.558495294394     0.154800461902     1.007825032230
         H            1.454799173321     2.523809605606    -0.912086438098     1.007825032230
         H            2.616918173321     1.645530605606     0.096055561902     1.007825032230
         H            1.324837173321     2.602790605606     0.850528561902     1.007825032230
         H           -3.320925826679    -1.494670394394     0.061698561902     1.007825032230
         H           -3.338669826679    -0.023425394394    -0.916772438098     1.007825032230
         H           -3.340230826679     0.090226605606     0.843896561902     1.007825032230

  Basis Set: AUG-CC-PVTZ
    Blend: AUG-CC-PVTZ
  Basis Set: (AUG-CC-PVTZ AUX)
    Blend: AUG-CC-PVTZ-JKFIT
	 Reference Energy          =    -438.8265115619036010 [Eh]
	 Singles Energy            =      -0.0000000000000000 [Eh]
	 Same-Spin Energy          =      -0.4702238491879454 [Eh]
	 Opposite-Spin Energy      =      -1.4993736205317469 [Eh]
	 Correlation Energy        =      -1.9695974697196923 [Eh]
	 Total Energy              =    -440.7961090316233026 [Eh]

	 ================> DF-SCS-MP2 Energies <==================
	-----------------------------------------------------------
	 SCS Same-Spin Scale       =       0.3333333333333333 [-]
	 SCS Opposite-Spin Scale   =       1.2000000000000000 [-]
	 SCS Same-Spin Energy      =      -0.1567412830626485 [Eh]
	 SCS Opposite-Spin Energy  =      -1.7992483446380962 [Eh]
	 SCS Correlation Energy    =      -1.9559896277007447 [Eh]
	 SCS Total Energy          =    -440.7825011896043179 [Eh]
	-----------------------------------------------------------

  Dipole Moment: [D]
     X:    -4.4588      Y:    -0.2794      Z:     0.2333     Total:     4.4737

*** Psi4 exiting successfully. Buy a developer a beer!
