                               Psi4 1.3.2 release

  ==> Input File <==

--------------------------------------------------------------------------
#psi4
#
memory 32 gb

molecule  {
0 1
  O        2.7382740    -0.7425350    -0.0126020
  N        0.6793120    -1.7266560     0.0061990
  C       -0.6027900     0.6893070    -0.0105920
  C        0.7782570     0.6611280     0.0035530
  C       -1.3671740    -0.5278470     0.0018860
  C        1.5049430    -0.6032750    -0.0044170
  C       -0.6863680    -1.7128580     0.0067460
  C       -1.3542970     1.9956390    -0.0048030
  C        1.6363160     1.8972900     0.0117510
  C       -2.8711540    -0.5219980    -0.0023590
  H       -1.1766380    -2.6823000     0.0159410
  H       -2.1333760     2.0016470    -0.7732430
  H       -0.6949600     2.8439520    -0.1887900
  H       -1.8505650     2.1568320     0.9594550
  H        1.1862656    -2.6069935     0.2555635
  H        1.5190430     2.4748580    -0.9113220
  H        2.6811620     1.5965790     0.0968200
  H        1.3890810     2.5538390     0.8512930
  H       -3.2566820    -1.5436220     0.0624630
  H       -3.2744260    -0.0723770    -0.9160080
  H       -3.2759870     0.0412750     0.8446610
units angstrom
no_reorient  #important for SAPT in psi4, default
symmetry c1  #important for SAPT in psi4, default
}

set PROPERTIES_ORIGIN ["COM"]
properties('MP2/aug-cc-pvtz', properties = ['dipole'])
--------------------------------------------------------------------------

    Molecular point group: c1
  Charge       = 0
  Multiplicity = 1
  Basis Set: AUG-CC-PVTZ
    Blend: AUG-CC-PVTZ
  Basis Set: (AUG-CC-PVTZ AUX)
    Blend: AUG-CC-PVTZ-JKFIT

    Orbital Energies [Eh]
    ---------------------

    Doubly Occupied:

       1A    -20.500738     2A    -15.616855     3A    -11.344147
       4A    -11.296072     5A    -11.269493     6A    -11.243124
       7A    -11.238595     8A    -11.237263     9A    -11.237140
      10A    -11.212906    11A     -1.361266    12A     -1.261165
      13A     -1.130713    14A     -1.061953    15A     -0.990792
      16A     -0.948068    17A     -0.933616    18A     -0.827397
      19A     -0.809142    20A     -0.723301    21A     -0.703221
      22A     -0.645069    23A     -0.619604    24A     -0.598308
      25A     -0.587689    26A     -0.580016    27A     -0.571066
      28A     -0.569617    29A     -0.561586    30A     -0.549859
      31A     -0.533526    32A     -0.505587    33A     -0.499344
      34A     -0.468170    35A     -0.415830    36A     -0.387948
      37A     -0.295853

  @DF-RHF Final Energy:  -438.82406379797470

   => Energetics <=

    Nuclear Repulsion Energy =            522.6707789754877922
    One-Electron Energy =               -1632.3176101526967159
    Two-Electron Energy =                 670.8227673792342785
    Total Energy =                       -438.8240637979746452
  Basis Set: (AUG-CC-PVTZ AUX)
    Blend: AUG-CC-PVTZ-RI
    Molecular point group: c1

    Geometry (in Angstrom), charge = 0, multiplicity = 1:

       Center              X                  Y                   Z               Mass
    ------------   -----------------  -----------------  -----------------  -----------------
         O            2.674028115531    -0.693586727734    -0.014101615400    15.994914619570
         N            0.615066115531    -1.677707727734     0.004699384600    14.003074004430
         C           -0.667035884469     0.738255272266    -0.012091615400    12.000000000000
         C            0.714011115531     0.710076272266     0.002053384600    12.000000000000
         C           -1.431419884469    -0.478898727734     0.000386384600    12.000000000000
         C            1.440697115531    -0.554326727734    -0.005916615400    12.000000000000
         C           -0.750613884469    -1.663909727734     0.005246384600    12.000000000000
         C           -1.418542884469     2.044587272266    -0.006302615400    12.000000000000
         C            1.572070115531     1.946238272266     0.010251384600    12.000000000000
         C           -2.935399884469    -0.473049727734    -0.003858615400    12.000000000000
         H           -1.240883884469    -2.633351727734     0.014441384600     1.007825032230
         H           -2.197621884469     2.050595272266    -0.774742615400     1.007825032230
         H           -0.759205884469     2.892900272266    -0.190289615400     1.007825032230
         H           -1.914810884469     2.205780272266     0.957955384600     1.007825032230
         H            1.122019715531    -2.558045227734     0.254063884600     1.007825032230
         H            1.454797115531     2.523806272266    -0.912821615400     1.007825032230
         H            2.616916115531     1.645527272266     0.095320384600     1.007825032230
         H            1.324835115531     2.602787272266     0.849793384600     1.007825032230
         H           -3.320927884469    -1.494673727734     0.060963384600     1.007825032230
         H           -3.338671884469    -0.023428727734    -0.917507615400     1.007825032230
         H           -3.340232884469     0.090223272266     0.843161384600     1.007825032230

  Basis Set: AUG-CC-PVTZ
    Blend: AUG-CC-PVTZ
  Basis Set: (AUG-CC-PVTZ AUX)
    Blend: AUG-CC-PVTZ-JKFIT
	 Reference Energy          =    -438.8240637979747021 [Eh]
	 Singles Energy            =      -0.0000000000000000 [Eh]
	 Same-Spin Energy          =      -0.4703550986224568 [Eh]
	 Opposite-Spin Energy      =      -1.4997690778339234 [Eh]
	 Correlation Energy        =      -1.9701241764563804 [Eh]
	 Total Energy              =    -440.7941879744311109 [Eh]

	 ================> DF-SCS-MP2 Energies <==================
	-----------------------------------------------------------
	 SCS Same-Spin Scale       =       0.3333333333333333 [-]
	 SCS Opposite-Spin Scale   =       1.2000000000000000 [-]
	 SCS Same-Spin Energy      =      -0.1567850328741523 [Eh]
	 SCS Opposite-Spin Energy  =      -1.7997228934007081 [Eh]
	 SCS Correlation Energy    =      -1.9565079262748604 [Eh]
	 SCS Total Energy          =    -440.7805717242495689 [Eh]
	-----------------------------------------------------------

  Dipole Moment: [D]
     X:    -4.4551      Y:    -0.2558      Z:     0.3598     Total:     4.4769

*** Psi4 exiting successfully. Buy a developer a beer!
