                               Psi4 1.3.2 release

  ==> Input File <==

--------------------------------------------------------------------------
#psi4
#
memory 32 gb

molecule  {
0 1
  O        2.7382740    -0.7425350    -0.0126020
  N        0.6793120    -1.7266560     0.0061990
  C       -0.6027900     0.6893070    -0.0105920
  C        0.7765020     0.6609791    -0.1964392
  C       -1.3671740    -0.5278470     0.0018860
  C        1.5049430    -0.6032750    -0.0044170
  C       -0.6863680    -1.7128580     0.0067460
  C       -1.3542970     1.9956390    -0.0048030
  C        1.6363160     1.8972900     0.0117510
  C       -2.8711540    -0.5219980    -0.0023590
  H       -1.1766380    -2.6823000     0.0159410
  H       -2.1333760     2.0016470    -0.7732430
  H       -0.6949600     2.8439520    -0.1887900
  H       -1.8505650     2.1568320     0.9594550
  H        1.1855660    -2.6081270     0.0055670
  H        1.5190430     2.4748580    -0.9113220
  H        2.6811620     1.5965790     0.0968200
  H        1.3890810     2.5538390     0.8512930
  H       -3.2566820    -1.5436220     0.0624630
  H       -3.2744260    -0.0723770    -0.9160080
  H       -3.2759870     0.0412750     0.8446610
units angstrom
no_reorient  #important for SAPT in psi4, default
symmetry c1  #important for SAPT in psi4, default
}

set PROPERTIES_ORIGIN ["COM"]
properties('MP2/aug-cc-pvtz', properties = ['dipole'])
--------------------------------------------------------------------------

    Molecular point group: c1
  Charge       = 0
  Multiplicity = 1
  Basis Set: AUG-CC-PVTZ
    Blend: AUG-CC-PVTZ
  Basis Set: (AUG-CC-PVTZ AUX)
    Blend: AUG-CC-PVTZ-JKFIT

    Orbital Energies [Eh]
    ---------------------

    Doubly Occupied:

       1A    -20.501009     2A    -15.615875     3A    -11.345355
       4A    -11.298762     5A    -11.272514     6A    -11.243154
       7A    -11.239984     8A    -11.237618     9A    -11.237488
      10A    -11.212699    11A     -1.361846    12A     -1.263548
      13A     -1.130650    14A     -1.060278    15A     -0.990216
      16A     -0.949193    17A     -0.931615    18A     -0.828481
      19A     -0.809309    20A     -0.726680    21A     -0.702537
      22A     -0.646605    23A     -0.620064    24A     -0.598382
      25A     -0.587259    26A     -0.581889    27A     -0.574318
      28A     -0.566676    29A     -0.563037    30A     -0.545252
      31A     -0.533693    32A     -0.505130    33A     -0.494018
      34A     -0.468120    35A     -0.414535    36A     -0.386648
      37A     -0.296358

  @DF-RHF Final Energy:  -438.81509116571749

   => Energetics <=

    Nuclear Repulsion Energy =            522.3154846053439542
    One-Electron Energy =               -1631.5795633062332399
    Two-Electron Energy =                 670.4489875351717956
    Total Energy =                       -438.8150911657174902
  Basis Set: (AUG-CC-PVTZ AUX)
    Blend: AUG-CC-PVTZ-RI
    Molecular point group: c1

    Geometry (in Angstrom), charge = 0, multiplicity = 1:

       Center              X                  Y                   Z               Mass
    ------------   -----------------  -----------------  -----------------  -----------------
         O            2.674186887264    -0.693565360045     0.005243150532    15.994914619570
         N            0.615224887264    -1.677686360045     0.024044150532    14.003074004430
         C           -0.666877112736     0.738276639955     0.007253150532    12.000000000000
         C            0.712414887264     0.709948739955    -0.178594049468    12.000000000000
         C           -1.431261112736    -0.478877360045     0.019731150532    12.000000000000
         C            1.440855887264    -0.554305360045     0.013428150532    12.000000000000
         C           -0.750455112736    -1.663888360045     0.024591150532    12.000000000000
         C           -1.418384112736     2.044608639955     0.013042150532    12.000000000000
         C            1.572228887264     1.946259639955     0.029596150532    12.000000000000
         C           -2.935241112736    -0.473028360045     0.015486150532    12.000000000000
         H           -1.240725112736    -2.633330360045     0.033786150532     1.007825032230
         H           -2.197463112736     2.050616639955    -0.755397849468     1.007825032230
         H           -0.759047112736     2.892921639955    -0.170944849468     1.007825032230
         H           -1.914652112736     2.205801639955     0.977300150532     1.007825032230
         H            1.121478887264    -2.559157360045     0.023412150532     1.007825032230
         H            1.454955887264     2.523827639955    -0.893476849468     1.007825032230
         H            2.617074887264     1.645548639955     0.114665150532     1.007825032230
         H            1.324993887264     2.602808639955     0.869138150532     1.007825032230
         H           -3.320769112736    -1.494652360045     0.080308150532     1.007825032230
         H           -3.338513112736    -0.023407360045    -0.898162849468     1.007825032230
         H           -3.340074112736     0.090244639955     0.862506150532     1.007825032230

  Basis Set: AUG-CC-PVTZ
    Blend: AUG-CC-PVTZ
  Basis Set: (AUG-CC-PVTZ AUX)
    Blend: AUG-CC-PVTZ-JKFIT
	 Reference Energy          =    -438.8150911657174902 [Eh]
	 Singles Energy            =      -0.0000000000000000 [Eh]
	 Same-Spin Energy          =      -0.4704847420398418 [Eh]
	 Opposite-Spin Energy      =      -1.5002712502715181 [Eh]
	 Correlation Energy        =      -1.9707559923113598 [Eh]
	 Total Energy              =    -440.7858471580288438 [Eh]

	 ================> DF-SCS-MP2 Energies <==================
	-----------------------------------------------------------
	 SCS Same-Spin Scale       =       0.3333333333333333 [-]
	 SCS Opposite-Spin Scale   =       1.2000000000000000 [-]
	 SCS Same-Spin Energy      =      -0.1568282473466139 [Eh]
	 SCS Opposite-Spin Energy  =      -1.8003255003258216 [Eh]
	 SCS Correlation Energy    =      -1.9571537476724354 [Eh]
	 SCS Total Energy          =    -440.7722449133898976 [Eh]
	-----------------------------------------------------------

  Dipole Moment: [D]
     X:    -4.4813      Y:    -0.3581      Z:     0.1041     Total:     4.4968

*** Psi4 exiting successfully. Buy a developer a beer!
