                               Psi4 1.3.2 release

  ==> Input File <==

--------------------------------------------------------------------------
#psi4
#
memory 32 gb

molecule  {
0 1
  O        2.7382740    -0.7425350    -0.0126020
  N        0.6793120    -1.7266560     0.0061990
  C       -0.6027900     0.6893070    -0.0105920
  C        0.7782570     0.6611280     0.0035530
  C       -1.3671740    -0.5278470     0.0018860
  C        1.5049430    -0.6032750    -0.0044170
  C       -0.6863680    -1.7128580     0.0067460
  C       -1.3542970     1.9956390    -0.0048030
  C        1.6363160     1.8972900     0.0117510
  C       -2.8711540    -0.5219980    -0.0023590
  H       -1.1766380    -2.6823000     0.0159410
  H       -2.1333760     2.0016470    -0.7732430
  H       -0.6949600     2.8439520    -0.1887900
  H       -1.8505650     2.1568320     0.9594550
  H        1.1857059    -2.6079003     0.0555663
  H        1.5190430     2.4748580    -0.9113220
  H        2.6811620     1.5965790     0.0968200
  H        1.3890810     2.5538390     0.8512930
  H       -3.2566820    -1.5436220     0.0624630
  H       -3.2744260    -0.0723770    -0.9160080
  H       -3.2759870     0.0412750     0.8446610
units angstrom
no_reorient  #important for SAPT in psi4, default
symmetry c1  #important for SAPT in psi4, default
}

set PROPERTIES_ORIGIN ["COM"]
properties('MP2/aug-cc-pvtz', properties = ['dipole'])
--------------------------------------------------------------------------

    Molecular point group: c1
  Charge       = 0
  Multiplicity = 1
  Basis Set: AUG-CC-PVTZ
    Blend: AUG-CC-PVTZ
  Basis Set: (AUG-CC-PVTZ AUX)
    Blend: AUG-CC-PVTZ-JKFIT

    Orbital Energies [Eh]
    ---------------------

    Doubly Occupied:

       1A    -20.500247     2A    -15.615794     3A    -11.344139
       4A    -11.296757     5A    -11.269274     6A    -11.243002
       7A    -11.238497     8A    -11.237264     9A    -11.237005
      10A    -11.212832    11A     -1.361743    12A     -1.263080
      13A     -1.131493    14A     -1.062015    15A     -0.991169
      16A     -0.948802    17A     -0.934023    18A     -0.830190
      19A     -0.809712    20A     -0.726088    21A     -0.705431
      22A     -0.645445    23A     -0.620657    24A     -0.598197
      25A     -0.586411    26A     -0.582237    27A     -0.571391
      28A     -0.569429    29A     -0.561561    30A     -0.550164
      31A     -0.533787    32A     -0.505827    33A     -0.499497
      34A     -0.468569    35A     -0.415699    36A     -0.387880
      37A     -0.295625

  @DF-RHF Final Energy:  -438.82756633498747

   => Energetics <=

    Nuclear Repulsion Energy =            522.8123142600151141
    One-Electron Energy =               -1632.5778979253962007
    Two-Electron Energy =                 670.9380173303936772
    Total Energy =                       -438.8275663349875231
  Basis Set: (AUG-CC-PVTZ AUX)
    Blend: AUG-CC-PVTZ-RI
    Molecular point group: c1

    Geometry (in Angstrom), charge = 0, multiplicity = 1:

       Center              X                  Y                   Z               Mass
    ------------   -----------------  -----------------  -----------------  -----------------
         O            2.674032230376    -0.693580061053    -0.012631260796    15.994914619570
         N            0.615070230376    -1.677701061053     0.006169739204    14.003074004430
         C           -0.667031769624     0.738261938947    -0.010621260796    12.000000000000
         C            0.714015230376     0.710082938947     0.003523739204    12.000000000000
         C           -1.431415769624    -0.478892061053     0.001856739204    12.000000000000
         C            1.440701230376    -0.554320061053    -0.004446260796    12.000000000000
         C           -0.750609769624    -1.663903061053     0.006716739204    12.000000000000
         C           -1.418538769624     2.044593938947    -0.004832260796    12.000000000000
         C            1.572074230376     1.946244938947     0.011721739204    12.000000000000
         C           -2.935395769624    -0.473043061053    -0.002388260796    12.000000000000
         H           -1.240879769624    -2.633345061053     0.015911739204     1.007825032230
         H           -2.197617769624     2.050601938947    -0.773272260796     1.007825032230
         H           -0.759201769624     2.892906938947    -0.188819260796     1.007825032230
         H           -1.914806769624     2.205786938947     0.959425739204     1.007825032230
         H            1.121464130376    -2.558945361053     0.055537039204     1.007825032230
         H            1.454801230376     2.523812938947    -0.911351260796     1.007825032230
         H            2.616920230376     1.645533938947     0.096790739204     1.007825032230
         H            1.324839230376     2.602793938947     0.851263739204     1.007825032230
         H           -3.320923769624    -1.494667061053     0.062433739204     1.007825032230
         H           -3.338667769624    -0.023422061053    -0.916037260796     1.007825032230
         H           -3.340228769624     0.090229938947     0.844631739204     1.007825032230

  Basis Set: AUG-CC-PVTZ
    Blend: AUG-CC-PVTZ
  Basis Set: (AUG-CC-PVTZ AUX)
    Blend: AUG-CC-PVTZ-JKFIT
	 Reference Energy          =    -438.8275663349874662 [Eh]
	 Singles Energy            =      -0.0000000000000000 [Eh]
	 Same-Spin Energy          =      -0.4701580097831578 [Eh]
	 Opposite-Spin Energy      =      -1.4991846190036680 [Eh]
	 Correlation Energy        =      -1.9693426287868259 [Eh]
	 Total Energy              =    -440.7969089637742854 [Eh]

	 ================> DF-SCS-MP2 Energies <==================
	-----------------------------------------------------------
	 SCS Same-Spin Scale       =       0.3333333333333333 [-]
	 SCS Opposite-Spin Scale   =       1.2000000000000000 [-]
	 SCS Same-Spin Energy      =      -0.1567193365943859 [Eh]
	 SCS Opposite-Spin Energy  =      -1.7990215428044014 [Eh]
	 SCS Correlation Energy    =      -1.9557408793987874 [Eh]
	 SCS Total Energy          =    -440.7833072143862410 [Eh]
	-----------------------------------------------------------

  Dipole Moment: [D]
     X:    -4.4617      Y:    -0.2916      Z:     0.1057     Total:     4.4724

*** Psi4 exiting successfully. Buy a developer a beer!
