                               Psi4 1.3.2 release

  ==> Input File <==

--------------------------------------------------------------------------
#psi4
#
memory 32 gb

molecule  {
0 1
  O        2.7382740    -0.7425350    -0.0126020
  N        0.6793120    -1.7266560     0.0061990
  C       -0.6027900     0.6893070    -0.0105920
  C        0.7782570     0.6611280     0.0035530
  C       -1.3671740    -0.5278470     0.0018860
  C        1.5049430    -0.6032750    -0.0044170
  C       -0.6863680    -1.7128580     0.0067460
  C       -1.3542970     1.9956390    -0.0048030
  C        1.6346462     1.8957614     0.2617407
  C       -2.8711540    -0.5219980    -0.0023590
  H       -1.1766380    -2.6823000     0.0159410
  H       -2.1333760     2.0016470    -0.7732430
  H       -0.6949600     2.8439520    -0.1887900
  H       -1.8505650     2.1568320     0.9594550
  H        1.1855660    -2.6081270     0.0055670
  H        1.5190430     2.4748580    -0.9113220
  H        2.6811620     1.5965790     0.0968200
  H        1.3890810     2.5538390     0.8512930
  H       -3.2566820    -1.5436220     0.0624630
  H       -3.2744260    -0.0723770    -0.9160080
  H       -3.2759870     0.0412750     0.8446610
units angstrom
no_reorient  #important for SAPT in psi4, default
symmetry c1  #important for SAPT in psi4, default
}

set PROPERTIES_ORIGIN ["COM"]
properties('MP2/aug-cc-pvtz', properties = ['dipole'])
--------------------------------------------------------------------------

    Molecular point group: c1
  Charge       = 0
  Multiplicity = 1
  Basis Set: AUG-CC-PVTZ
    Blend: AUG-CC-PVTZ
  Basis Set: (AUG-CC-PVTZ AUX)
    Blend: AUG-CC-PVTZ-JKFIT

    Orbital Energies [Eh]
    ---------------------

    Doubly Occupied:

       1A    -20.501895     2A    -15.616846     3A    -11.346009
       4A    -11.297001     5A    -11.269420     6A    -11.244025
       7A    -11.243736     8A    -11.237588     9A    -11.236924
      10A    -11.223173    11A     -1.363248    12A     -1.264218
      13A     -1.131988    14A     -1.062583    15A     -0.991968
      16A     -0.949443    17A     -0.940086    18A     -0.833471
      19A     -0.813796    20A     -0.727246    21A     -0.711399
      22A     -0.649918    23A     -0.621961    24A     -0.609747
      25A     -0.598949    26A     -0.582476    27A     -0.580051
      28A     -0.568113    29A     -0.567404    30A     -0.549590
      31A     -0.522350    32A     -0.500975    33A     -0.480825
      34A     -0.463342    35A     -0.417416    36A     -0.381680
      37A     -0.293631

  @DF-RHF Final Energy:  -438.76661992555432

   => Energetics <=

    Nuclear Repulsion Energy =            522.5289628927376953
    One-Electron Energy =               -1631.8021845097698588
    Two-Electron Energy =                 670.5066016914777265
    Total Energy =                       -438.7666199255543233
  Basis Set: (AUG-CC-PVTZ AUX)
    Blend: AUG-CC-PVTZ-RI
    Molecular point group: c1

    Geometry (in Angstrom), charge = 0, multiplicity = 1:

       Center              X                  Y                   Z               Mass
    ------------   -----------------  -----------------  -----------------  -----------------
         O            2.674179429067    -0.693444584519    -0.034147152347    15.994914619570
         N            0.615217429067    -1.677565584519    -0.015346152347    14.003074004430
         C           -0.666884570933     0.738397415481    -0.032137152347    12.000000000000
         C            0.714162429067     0.710218415481    -0.017992152347    12.000000000000
         C           -1.431268570933    -0.478756584519    -0.019659152347    12.000000000000
         C            1.440848429067    -0.554184584519    -0.025962152347    12.000000000000
         C           -0.750462570933    -1.663767584519    -0.014799152347    12.000000000000
         C           -1.418391570933     2.044729415481    -0.026348152347    12.000000000000
         C            1.570551629067     1.944851815481     0.240195547653    12.000000000000
         C           -2.935248570933    -0.472907584519    -0.023904152347    12.000000000000
         H           -1.240732570933    -2.633209584519    -0.005604152347     1.007825032230
         H           -2.197470570933     2.050737415481    -0.794788152347     1.007825032230
         H           -0.759054570933     2.893042415481    -0.210335152347     1.007825032230
         H           -1.914659570933     2.205922415481     0.937909847653     1.007825032230
         H            1.121471429067    -2.559036584519    -0.015978152347     1.007825032230
         H            1.454948429067     2.523948415481    -0.932867152347     1.007825032230
         H            2.617067429067     1.645669415481     0.075274847653     1.007825032230
         H            1.324986429067     2.602929415481     0.829747847653     1.007825032230
         H           -3.320776570933    -1.494531584519     0.040917847653     1.007825032230
         H           -3.338520570933    -0.023286584519    -0.937553152347     1.007825032230
         H           -3.340081570933     0.090365415481     0.823115847653     1.007825032230

  Basis Set: AUG-CC-PVTZ
    Blend: AUG-CC-PVTZ
  Basis Set: (AUG-CC-PVTZ AUX)
    Blend: AUG-CC-PVTZ-JKFIT
	 Reference Energy          =    -438.7666199255543233 [Eh]
	 Singles Energy            =      -0.0000000000000000 [Eh]
	 Same-Spin Energy          =      -0.4710450949961229 [Eh]
	 Opposite-Spin Energy      =      -1.5018371185822341 [Eh]
	 Correlation Energy        =      -1.9728822135783570 [Eh]
	 Total Energy              =    -440.7395021391326964 [Eh]

	 ================> DF-SCS-MP2 Energies <==================
	-----------------------------------------------------------
	 SCS Same-Spin Scale       =       0.3333333333333333 [-]
	 SCS Opposite-Spin Scale   =       1.2000000000000000 [-]
	 SCS Same-Spin Energy      =      -0.1570150316653743 [Eh]
	 SCS Opposite-Spin Energy  =      -1.8022045422986808 [Eh]
	 SCS Correlation Energy    =      -1.9592195739640550 [Eh]
	 SCS Total Energy          =    -440.7258394995183721 [Eh]
	-----------------------------------------------------------

  Dipole Moment: [D]
     X:    -4.4434      Y:    -0.3563      Z:     0.1526     Total:     4.4603

*** Psi4 exiting successfully. Buy a developer a beer!
