                               Psi4 1.3.2 release

  ==> Input File <==

--------------------------------------------------------------------------
#psi4
#
memory 32 gb

molecule  {
0 1
  O        2.7382740    -0.7425350    -0.0126020
  N        0.6793120    -1.7266560     0.0061990
  C       -0.6027900     0.6893070    -0.0105920
  C        0.7769407     0.6610163    -0.1464412
  C       -1.3671740    -0.5278470     0.0018860
  C        1.5049430    -0.6032750    -0.0044170
  C       -0.6863680    -1.7128580     0.0067460
  C       -1.3542970     1.9956390    -0.0048030
  C        1.6363160     1.8972900     0.0117510
  C       -2.8711540    -0.5219980    -0.0023590
  H       -1.1766380    -2.6823000     0.0159410
  H       -2.1333760     2.0016470    -0.7732430
  H       -0.6949600     2.8439520    -0.1887900
  H       -1.8505650     2.1568320     0.9594550
  H        1.1855660    -2.6081270     0.0055670
  H        1.5190430     2.4748580    -0.9113220
  H        2.6811620     1.5965790     0.0968200
  H        1.3890810     2.5538390     0.8512930
  H       -3.2566820    -1.5436220     0.0624630
  H       -3.2744260    -0.0723770    -0.9160080
  H       -3.2759870     0.0412750     0.8446610
units angstrom
no_reorient  #important for SAPT in psi4, default
symmetry c1  #important for SAPT in psi4, default
}

set PROPERTIES_ORIGIN ["COM"]
properties('MP2/aug-cc-pvtz', properties = ['dipole'])
--------------------------------------------------------------------------

    Molecular point group: c1
  Charge       = 0
  Multiplicity = 1
  Basis Set: AUG-CC-PVTZ
    Blend: AUG-CC-PVTZ
  Basis Set: (AUG-CC-PVTZ AUX)
    Blend: AUG-CC-PVTZ-JKFIT

    Orbital Energies [Eh]
    ---------------------

    Doubly Occupied:

       1A    -20.500685     2A    -15.615799     3A    -11.344861
       4A    -11.297840     5A    -11.270963     6A    -11.243060
       7A    -11.239342     8A    -11.237447     9A    -11.237259
      10A    -11.212835    11A     -1.361824    12A     -1.263369
      13A     -1.131058    14A     -1.061041    15A     -0.990609
      16A     -0.949016    17A     -0.932680    18A     -0.829264
      19A     -0.809575    20A     -0.726456    21A     -0.703881
      22A     -0.646076    23A     -0.620354    24A     -0.598306
      25A     -0.586961    26A     -0.582033    27A     -0.573526
      28A     -0.567064    29A     -0.562727    30A     -0.547199
      31A     -0.533727    32A     -0.505629    33A     -0.496419
      34A     -0.468302    35A     -0.415082    36A     -0.387241
      37A     -0.296036

  @DF-RHF Final Energy:  -438.82076523019418

   => Energetics <=

    Nuclear Repulsion Energy =            522.5411195120849470
    One-Electron Energy =               -1632.0326793083700068
    Two-Electron Energy =                 670.6707945660907626
    Total Energy =                       -438.8207652301941835
  Basis Set: (AUG-CC-PVTZ AUX)
    Blend: AUG-CC-PVTZ-RI
    Molecular point group: c1

    Geometry (in Angstrom), charge = 0, multiplicity = 1:

       Center              X                  Y                   Z               Mass
    ------------   -----------------  -----------------  -----------------  -----------------
         O            2.674148484551    -0.693568616441     0.000866449240    15.994914619570
         N            0.615186484551    -1.677689616441     0.019667449240    14.003074004430
         C           -0.666915515449     0.738273383559     0.002876449240    12.000000000000
         C            0.712815184551     0.709982683559    -0.132972750760    12.000000000000
         C           -1.431299515449    -0.478880616441     0.015354449240    12.000000000000
         C            1.440817484551    -0.554308616441     0.009051449240    12.000000000000
         C           -0.750493515449    -1.663891616441     0.020214449240    12.000000000000
         C           -1.418422515449     2.044605383559     0.008665449240    12.000000000000
         C            1.572190484551     1.946256383559     0.025219449240    12.000000000000
         C           -2.935279515449    -0.473031616441     0.011109449240    12.000000000000
         H           -1.240763515449    -2.633333616441     0.029409449240     1.007825032230
         H           -2.197501515449     2.050613383559    -0.759774550760     1.007825032230
         H           -0.759085515449     2.892918383559    -0.175321550760     1.007825032230
         H           -1.914690515449     2.205798383559     0.972923449240     1.007825032230
         H            1.121440484551    -2.559160616441     0.019035449240     1.007825032230
         H            1.454917484551     2.523824383559    -0.897853550760     1.007825032230
         H            2.617036484551     1.645545383559     0.110288449240     1.007825032230
         H            1.324955484551     2.602805383559     0.864761449240     1.007825032230
         H           -3.320807515449    -1.494655616441     0.075931449240     1.007825032230
         H           -3.338551515449    -0.023410616441    -0.902539550760     1.007825032230
         H           -3.340112515449     0.090241383559     0.858129449240     1.007825032230

  Basis Set: AUG-CC-PVTZ
    Blend: AUG-CC-PVTZ
  Basis Set: (AUG-CC-PVTZ AUX)
    Blend: AUG-CC-PVTZ-JKFIT
	 Reference Energy          =    -438.8207652301941835 [Eh]
	 Singles Energy            =      -0.0000000000000000 [Eh]
	 Same-Spin Energy          =      -0.4703147222371502 [Eh]
	 Opposite-Spin Energy      =      -1.4997507498929152 [Eh]
	 Correlation Energy        =      -1.9700654721300654 [Eh]
	 Total Energy              =    -440.7908307023242287 [Eh]

	 ================> DF-SCS-MP2 Energies <==================
	-----------------------------------------------------------
	 SCS Same-Spin Scale       =       0.3333333333333333 [-]
	 SCS Opposite-Spin Scale   =       1.2000000000000000 [-]
	 SCS Same-Spin Energy      =      -0.1567715740790501 [Eh]
	 SCS Opposite-Spin Energy  =      -1.7997008998714983 [Eh]
	 SCS Correlation Energy    =      -1.9564724739505484 [Eh]
	 SCS Total Energy          =    -440.7772377041447385 [Eh]
	-----------------------------------------------------------

  Dipole Moment: [D]
     X:    -4.4720      Y:    -0.3288      Z:     0.0868     Total:     4.4849

*** Psi4 exiting successfully. Buy a developer a beer!
