                               Psi4 1.3.2 release

  ==> Input File <==

--------------------------------------------------------------------------
#psi4
#
memory 32 gb

molecule  {
0 1
  O        2.7382740    -0.7425350    -0.0126020
  N        0.6793120    -1.7266560     0.0061990
  C       -0.6027900     0.6893070    -0.0105920
  C        0.7782570     0.6611280     0.0035530
  C       -1.3671740    -0.5278470     0.0018860
  C        1.5049430    -0.6032750    -0.0044170
  C       -0.6863680    -1.7128580     0.0067460
  C       -1.3542970     1.9956390    -0.0048030
  C        1.6359820     1.8969843     0.0617489
  C       -2.8711540    -0.5219980    -0.0023590
  H       -1.1766380    -2.6823000     0.0159410
  H       -2.1333760     2.0016470    -0.7732430
  H       -0.6949600     2.8439520    -0.1887900
  H       -1.8505650     2.1568320     0.9594550
  H        1.1855660    -2.6081270     0.0055670
  H        1.5190430     2.4748580    -0.9113220
  H        2.6811620     1.5965790     0.0968200
  H        1.3890810     2.5538390     0.8512930
  H       -3.2566820    -1.5436220     0.0624630
  H       -3.2744260    -0.0723770    -0.9160080
  H       -3.2759870     0.0412750     0.8446610
units angstrom
no_reorient  #important for SAPT in psi4, default
symmetry c1  #important for SAPT in psi4, default
}

set PROPERTIES_ORIGIN ["COM"]
properties('MP2/aug-cc-pvtz', properties = ['dipole'])
--------------------------------------------------------------------------

    Molecular point group: c1
  Charge       = 0
  Multiplicity = 1
  Basis Set: AUG-CC-PVTZ
    Blend: AUG-CC-PVTZ
  Basis Set: (AUG-CC-PVTZ AUX)
    Blend: AUG-CC-PVTZ-JKFIT

    Orbital Energies [Eh]
    ---------------------

    Doubly Occupied:

       1A    -20.500352     2A    -15.615806     3A    -11.344267
       4A    -11.296724     5A    -11.269208     6A    -11.243038
       7A    -11.238816     8A    -11.237275     9A    -11.237014
      10A    -11.213404    11A     -1.361866    12A     -1.263207
      13A     -1.131553    14A     -1.062071    15A     -0.991255
      16A     -0.948848    17A     -0.934329    18A     -0.830451
      19A     -0.809920    20A     -0.726237    21A     -0.705889
      22A     -0.645603    23A     -0.620569    24A     -0.598322
      25A     -0.587137    26A     -0.582297    27A     -0.571447
      28A     -0.570050    29A     -0.563773    30A     -0.549164
      31A     -0.531945    32A     -0.506065    33A     -0.499193
      34A     -0.468452    35A     -0.415832    36A     -0.387463
      37A     -0.295421

  @DF-RHF Final Energy:  -438.82518481017161

   => Energetics <=

    Nuclear Repulsion Energy =            522.8074426635178042
    One-Electron Energy =               -1632.5567247773294639
    Two-Electron Energy =                 670.9240973036401101
    Total Energy =                       -438.8251848101715495
  Basis Set: (AUG-CC-PVTZ AUX)
    Blend: AUG-CC-PVTZ-RI
    Molecular point group: c1

    Geometry (in Angstrom), charge = 0, multiplicity = 1:

       Center              X                  Y                   Z               Mass
    ------------   -----------------  -----------------  -----------------  -----------------
         O            2.674062496438    -0.693551634161    -0.016640364684    15.994914619570
         N            0.615100496438    -1.677672634161     0.002160635316    14.003074004430
         C           -0.667001503562     0.738290365839    -0.014630364684    12.000000000000
         C            0.714045496438     0.710111365839    -0.000485364684    12.000000000000
         C           -1.431385503562    -0.478863634161    -0.002152364684    12.000000000000
         C            1.440731496438    -0.554291634161    -0.008455364684    12.000000000000
         C           -0.750579503562    -1.663874634161     0.002707635316    12.000000000000
         C           -1.418508503562     2.044622365839    -0.008841364684    12.000000000000
         C            1.571770496438     1.945967665839     0.057710535316    12.000000000000
         C           -2.935365503562    -0.473014634161    -0.006397364684    12.000000000000
         H           -1.240849503562    -2.633316634161     0.011902635316     1.007825032230
         H           -2.197587503562     2.050630365839    -0.777281364684     1.007825032230
         H           -0.759171503562     2.892935365839    -0.192828364684     1.007825032230
         H           -1.914776503562     2.205815365839     0.955416635316     1.007825032230
         H            1.121354496438    -2.559143634161     0.001528635316     1.007825032230
         H            1.454831496438     2.523841365839    -0.915360364684     1.007825032230
         H            2.616950496438     1.645562365839     0.092781635316     1.007825032230
         H            1.324869496438     2.602822365839     0.847254635316     1.007825032230
         H           -3.320893503562    -1.494638634161     0.058424635316     1.007825032230
         H           -3.338637503562    -0.023393634161    -0.920046364684     1.007825032230
         H           -3.340198503562     0.090258365839     0.840622635316     1.007825032230

  Basis Set: AUG-CC-PVTZ
    Blend: AUG-CC-PVTZ
  Basis Set: (AUG-CC-PVTZ AUX)
    Blend: AUG-CC-PVTZ-JKFIT
	 Reference Energy          =    -438.8251848101716064 [Eh]
	 Singles Energy            =      -0.0000000000000000 [Eh]
	 Same-Spin Energy          =      -0.4701918219843487 [Eh]
	 Opposite-Spin Energy      =      -1.4992571615915780 [Eh]
	 Correlation Energy        =      -1.9694489835759266 [Eh]
	 Total Energy              =    -440.7946337937475505 [Eh]

	 ================> DF-SCS-MP2 Energies <==================
	-----------------------------------------------------------
	 SCS Same-Spin Scale       =       0.3333333333333333 [-]
	 SCS Opposite-Spin Scale   =       1.2000000000000000 [-]
	 SCS Same-Spin Energy      =      -0.1567306073281162 [Eh]
	 SCS Opposite-Spin Energy  =      -1.7991085939098934 [Eh]
	 SCS Correlation Energy    =      -1.9558392012380097 [Eh]
	 SCS Total Energy          =    -440.7810240114096132 [Eh]
	-----------------------------------------------------------

  Dipole Moment: [D]
     X:    -4.4600      Y:    -0.2929      Z:     0.0660     Total:     4.4701

*** Psi4 exiting successfully. Buy a developer a beer!
