                               Psi4 1.3.2 release

  ==> Input File <==

--------------------------------------------------------------------------
#psi4
#
memory 32 gb

molecule  {
0 1
  O        2.7382740    -0.7425350    -0.0126020
  N        0.6793120    -1.7266560     0.0061990
  C       -0.6027900     0.6893070    -0.0105920
  C        0.7760632     0.6609419    -0.2464373
  C       -1.3671740    -0.5278470     0.0018860
  C        1.5049430    -0.6032750    -0.0044170
  C       -0.6863680    -1.7128580     0.0067460
  C       -1.3542970     1.9956390    -0.0048030
  C        1.6363160     1.8972900     0.0117510
  C       -2.8711540    -0.5219980    -0.0023590
  H       -1.1766380    -2.6823000     0.0159410
  H       -2.1333760     2.0016470    -0.7732430
  H       -0.6949600     2.8439520    -0.1887900
  H       -1.8505650     2.1568320     0.9594550
  H        1.1855660    -2.6081270     0.0055670
  H        1.5190430     2.4748580    -0.9113220
  H        2.6811620     1.5965790     0.0968200
  H        1.3890810     2.5538390     0.8512930
  H       -3.2566820    -1.5436220     0.0624630
  H       -3.2744260    -0.0723770    -0.9160080
  H       -3.2759870     0.0412750     0.8446610
units angstrom
no_reorient  #important for SAPT in psi4, default
symmetry c1  #important for SAPT in psi4, default
}

set PROPERTIES_ORIGIN ["COM"]
properties('MP2/aug-cc-pvtz', properties = ['dipole'])
--------------------------------------------------------------------------

    Molecular point group: c1
  Charge       = 0
  Multiplicity = 1
  Basis Set: AUG-CC-PVTZ
    Blend: AUG-CC-PVTZ
  Basis Set: (AUG-CC-PVTZ AUX)
    Blend: AUG-CC-PVTZ-JKFIT

    Orbital Energies [Eh]
    ---------------------

    Doubly Occupied:

       1A    -20.501431     2A    -15.615994     3A    -11.345952
       4A    -11.299984     5A    -11.274531     6A    -11.243296
       7A    -11.240764     8A    -11.237852     9A    -11.237788
      10A    -11.212473    11A     -1.361878    12A     -1.263792
      13A     -1.130150    14A     -1.059297    15A     -0.989709
      16A     -0.949438    17A     -0.930279    18A     -0.827536
      19A     -0.808936    20A     -0.726991    21A     -0.700790
      22A     -0.647291    23A     -0.619726    24A     -0.598488
      25A     -0.587484    26A     -0.581826    27A     -0.575017
      28A     -0.566441    29A     -0.563270    30A     -0.543226
      31A     -0.533657    32A     -0.504434    33A     -0.490800
      34A     -0.467897    35A     -0.413790    36A     -0.385888
      37A     -0.296791

  @DF-RHF Final Energy:  -438.80774688518829

   => Energetics <=

    Nuclear Repulsion Energy =            522.0258142230115936
    One-Electron Energy =               -1630.9973444856457263
    Two-Electron Energy =                 670.1637833774458386
    Total Energy =                       -438.8077468851882941
  Basis Set: (AUG-CC-PVTZ AUX)
    Blend: AUG-CC-PVTZ-RI
    Molecular point group: c1

    Geometry (in Angstrom), charge = 0, multiplicity = 1:

       Center              X                  Y                   Z               Mass
    ------------   -----------------  -----------------  -----------------  -----------------
         O            2.674225298731    -0.693562103649     0.009619860578    15.994914619570
         N            0.615263298731    -1.677683103649     0.028420860578    14.003074004430
         C           -0.666838701269     0.738279896351     0.011629860578    12.000000000000
         C            0.712014498731     0.709914796351    -0.224215439422    12.000000000000
         C           -1.431222701269    -0.478874103649     0.024107860578    12.000000000000
         C            1.440894298731    -0.554302103649     0.017804860578    12.000000000000
         C           -0.750416701269    -1.663885103649     0.028967860578    12.000000000000
         C           -1.418345701269     2.044611896351     0.017418860578    12.000000000000
         C            1.572267298731     1.946262896351     0.033972860578    12.000000000000
         C           -2.935202701269    -0.473025103649     0.019862860578    12.000000000000
         H           -1.240686701269    -2.633327103649     0.038162860578     1.007825032230
         H           -2.197424701269     2.050619896351    -0.751021139422     1.007825032230
         H           -0.759008701269     2.892924896351    -0.166568139422     1.007825032230
         H           -1.914613701269     2.205804896351     0.981676860578     1.007825032230
         H            1.121517298731    -2.559154103649     0.027788860578     1.007825032230
         H            1.454994298731     2.523830896351    -0.889100139422     1.007825032230
         H            2.617113298731     1.645551896351     0.119041860578     1.007825032230
         H            1.325032298731     2.602811896351     0.873514860578     1.007825032230
         H           -3.320730701269    -1.494649103649     0.084684860578     1.007825032230
         H           -3.338474701269    -0.023404103649    -0.893786139422     1.007825032230
         H           -3.340035701269     0.090247896351     0.866882860578     1.007825032230

  Basis Set: AUG-CC-PVTZ
    Blend: AUG-CC-PVTZ
  Basis Set: (AUG-CC-PVTZ AUX)
    Blend: AUG-CC-PVTZ-JKFIT
	 Reference Energy          =    -438.8077468851882941 [Eh]
	 Singles Energy            =      -0.0000000000000000 [Eh]
	 Same-Spin Energy          =      -0.4707125930262386 [Eh]
	 Opposite-Spin Energy      =      -1.5009661985326983 [Eh]
	 Correlation Energy        =      -1.9716787915589369 [Eh]
	 Total Energy              =    -440.7794256767472234 [Eh]

	 ================> DF-SCS-MP2 Energies <==================
	-----------------------------------------------------------
	 SCS Same-Spin Scale       =       0.3333333333333333 [-]
	 SCS Opposite-Spin Scale   =       1.2000000000000000 [-]
	 SCS Same-Spin Energy      =      -0.1569041976754129 [Eh]
	 SCS Opposite-Spin Energy  =      -1.8011594382392380 [Eh]
	 SCS Correlation Energy    =      -1.9580636359146508 [Eh]
	 SCS Total Energy          =    -440.7658105211029351 [Eh]
	-----------------------------------------------------------

  Dipole Moment: [D]
     X:    -4.4933      Y:    -0.3960      Z:     0.1232     Total:     4.5124

*** Psi4 exiting successfully. Buy a developer a beer!
