                               Psi4 1.3.2 release

  ==> Input File <==

--------------------------------------------------------------------------
#psi4
#
memory 32 gb

molecule  {
0 1
  O        2.7382740    -0.7425350    -0.0126020
  N        0.6793120    -1.7266560     0.0061990
  C       -0.6027900     0.6893070    -0.0105920
  C        0.7782570     0.6611280     0.0035530
  C       -1.3671740    -0.5278470     0.0018860
  C        1.5049430    -0.6032750    -0.0044170
  C       -0.6863680    -1.7128580     0.0067460
  C       -1.3542970     1.9956390    -0.0048030
  C        1.6353141     1.8963728     0.1617448
  C       -2.8711540    -0.5219980    -0.0023590
  H       -1.1766380    -2.6823000     0.0159410
  H       -2.1333760     2.0016470    -0.7732430
  H       -0.6949600     2.8439520    -0.1887900
  H       -1.8505650     2.1568320     0.9594550
  H        1.1855660    -2.6081270     0.0055670
  H        1.5190430     2.4748580    -0.9113220
  H        2.6811620     1.5965790     0.0968200
  H        1.3890810     2.5538390     0.8512930
  H       -3.2566820    -1.5436220     0.0624630
  H       -3.2744260    -0.0723770    -0.9160080
  H       -3.2759870     0.0412750     0.8446610
units angstrom
no_reorient  #important for SAPT in psi4, default
symmetry c1  #important for SAPT in psi4, default
}

set PROPERTIES_ORIGIN ["COM"]
properties('MP2/aug-cc-pvtz', properties = ['dipole'])
--------------------------------------------------------------------------

    Molecular point group: c1
  Charge       = 0
  Multiplicity = 1
  Basis Set: AUG-CC-PVTZ
    Blend: AUG-CC-PVTZ
  Basis Set: (AUG-CC-PVTZ AUX)
    Blend: AUG-CC-PVTZ-JKFIT

    Orbital Energies [Eh]
    ---------------------

    Doubly Occupied:

       1A    -20.500930     2A    -15.616171     3A    -11.344910
       4A    -11.296766     5A    -11.269231     6A    -11.243283
       7A    -11.240675     8A    -11.237378     9A    -11.236990
      10A    -11.216816    11A     -1.362377    12A     -1.263561
      13A     -1.131711    14A     -1.062270    15A     -0.991509
      16A     -0.949040    17A     -0.936265    18A     -0.831443
      19A     -0.811322    20A     -0.726551    21A     -0.707940
      22A     -0.646927    23A     -0.620784    24A     -0.598981
      25A     -0.595303    26A     -0.582397    27A     -0.577840
      28A     -0.568984    29A     -0.566702    30A     -0.549630
      31A     -0.524612    32A     -0.502629    33A     -0.493027
      34A     -0.467525    35A     -0.416455    36A     -0.385394
      37A     -0.294752

  @DF-RHF Final Energy:  -438.80544764050859

   => Energetics <=

    Nuclear Repulsion Energy =            522.7161485784487240
    One-Electron Energy =               -1632.3050274055929094
    Two-Electron Energy =                 670.7834311866355392
    Total Energy =                       -438.8054476405085325
  Basis Set: (AUG-CC-PVTZ AUX)
    Blend: AUG-CC-PVTZ-RI
    Molecular point group: c1

    Geometry (in Angstrom), charge = 0, multiplicity = 1:

       Center              X                  Y                   Z               Mass
    ------------   -----------------  -----------------  -----------------  -----------------
         O            2.674120962752    -0.693498104963    -0.025393758516    15.994914619570
         N            0.615158962752    -1.677619104963    -0.006592758516    14.003074004430
         C           -0.666943037248     0.738343895037    -0.023383758516    12.000000000000
         C            0.714103962752     0.710164895037    -0.009238758516    12.000000000000
         C           -1.431327037248    -0.478810104963    -0.010905758516    12.000000000000
         C            1.440789962752    -0.554238104963    -0.017208758516    12.000000000000
         C           -0.750521037248    -1.663821104963    -0.006045758516    12.000000000000
         C           -1.418450037248     2.044675895037    -0.017594758516    12.000000000000
         C            1.571161062752     1.945409695037     0.148953041484    12.000000000000
         C           -2.935307037248    -0.472961104963    -0.015150758516    12.000000000000
         H           -1.240791037248    -2.633263104963     0.003149241484     1.007825032230
         H           -2.197529037248     2.050683895037    -0.786034758516     1.007825032230
         H           -0.759113037248     2.892988895037    -0.201581758516     1.007825032230
         H           -1.914718037248     2.205868895037     0.946663241484     1.007825032230
         H            1.121412962752    -2.559090104963    -0.007224758516     1.007825032230
         H            1.454889962752     2.523894895037    -0.924113758516     1.007825032230
         H            2.617008962752     1.645615895037     0.084028241484     1.007825032230
         H            1.324927962752     2.602875895037     0.838501241484     1.007825032230
         H           -3.320835037248    -1.494585104963     0.049671241484     1.007825032230
         H           -3.338579037248    -0.023340104963    -0.928799758516     1.007825032230
         H           -3.340140037248     0.090311895037     0.831869241484     1.007825032230

  Basis Set: AUG-CC-PVTZ
    Blend: AUG-CC-PVTZ
  Basis Set: (AUG-CC-PVTZ AUX)
    Blend: AUG-CC-PVTZ-JKFIT
	 Reference Energy          =    -438.8054476405085893 [Eh]
	 Singles Energy            =      -0.0000000000000000 [Eh]
	 Same-Spin Energy          =      -0.4704800432878683 [Eh]
	 Opposite-Spin Energy      =      -1.5000850348091590 [Eh]
	 Correlation Energy        =      -1.9705650780970272 [Eh]
	 Total Energy              =    -440.7760127186056138 [Eh]

	 ================> DF-SCS-MP2 Energies <==================
	-----------------------------------------------------------
	 SCS Same-Spin Scale       =       0.3333333333333333 [-]
	 SCS Opposite-Spin Scale   =       1.2000000000000000 [-]
	 SCS Same-Spin Energy      =      -0.1568266810959561 [Eh]
	 SCS Opposite-Spin Energy  =      -1.8001020417709908 [Eh]
	 SCS Correlation Energy    =      -1.9569287228669467 [Eh]
	 SCS Total Energy          =    -440.7623763633755516 [Eh]
	-----------------------------------------------------------

  Dipole Moment: [D]
     X:    -4.4527      Y:    -0.3140      Z:     0.1135     Total:     4.4652

*** Psi4 exiting successfully. Buy a developer a beer!
