                               Psi4 1.3.2 release

  ==> Input File <==

--------------------------------------------------------------------------
#psi4
#
memory 32 gb

molecule  {
0 1
  O        2.7382740    -0.7425350    -0.0126020
  N        0.6793120    -1.7266560     0.0061990
  C       -0.6027900     0.6893070    -0.0105920
  C        0.7782570     0.6611280     0.0035530
  C       -1.3671740    -0.5278470     0.0018860
  C        1.5049430    -0.6032750    -0.0044170
  C       -0.6863680    -1.7128580     0.0067460
  C       -1.3542970     1.9956390    -0.0048030
  C        1.6349801     1.8960671     0.2117428
  C       -2.8711540    -0.5219980    -0.0023590
  H       -1.1766380    -2.6823000     0.0159410
  H       -2.1333760     2.0016470    -0.7732430
  H       -0.6949600     2.8439520    -0.1887900
  H       -1.8505650     2.1568320     0.9594550
  H        1.1855660    -2.6081270     0.0055670
  H        1.5190430     2.4748580    -0.9113220
  H        2.6811620     1.5965790     0.0968200
  H        1.3890810     2.5538390     0.8512930
  H       -3.2566820    -1.5436220     0.0624630
  H       -3.2744260    -0.0723770    -0.9160080
  H       -3.2759870     0.0412750     0.8446610
units angstrom
no_reorient  #important for SAPT in psi4, default
symmetry c1  #important for SAPT in psi4, default
}

set PROPERTIES_ORIGIN ["COM"]
properties('MP2/aug-cc-pvtz', properties = ['dipole'])
--------------------------------------------------------------------------

    Molecular point group: c1
  Charge       = 0
  Multiplicity = 1
  Basis Set: AUG-CC-PVTZ
    Blend: AUG-CC-PVTZ
  Basis Set: (AUG-CC-PVTZ AUX)
    Blend: AUG-CC-PVTZ-JKFIT

    Orbital Energies [Eh]
    ---------------------

    Doubly Occupied:

       1A    -20.501368     2A    -15.616474     3A    -11.345407
       4A    -11.296862     5A    -11.269307     6A    -11.243487
       7A    -11.242177     8A    -11.237471     9A    -11.236960
      10A    -11.219637    11A     -1.362772    12A     -1.263855
      13A     -1.131837    14A     -1.062414    15A     -0.991707
      16A     -0.949214    17A     -0.937932    18A     -0.832318
      19A     -0.812456    20A     -0.726842    21A     -0.709532
      22A     -0.648184    23A     -0.621203    24A     -0.603205
      25A     -0.598492    26A     -0.582447    27A     -0.579339
      28A     -0.568555    29A     -0.567147    30A     -0.549709
      31A     -0.523043    32A     -0.501676    33A     -0.486549
      34A     -0.466181    35A     -0.416906    36A     -0.383741
      37A     -0.294255

  @DF-RHF Final Energy:  -438.78838592187003

   => Energetics <=

    Nuclear Repulsion Energy =            522.6346557529636812
    One-Electron Energy =               -1632.0847643782760770
    Two-Electron Energy =                 670.6617227034423649
    Total Energy =                       -438.7883859218700309
  Basis Set: (AUG-CC-PVTZ AUX)
    Blend: AUG-CC-PVTZ-RI
    Molecular point group: c1

    Geometry (in Angstrom), charge = 0, multiplicity = 1:

       Center              X                  Y                   Z               Mass
    ------------   -----------------  -----------------  -----------------  -----------------
         O            2.674150200286    -0.693471344741    -0.029770459808    15.994914619570
         N            0.615188200286    -1.677592344741    -0.010969459808    14.003074004430
         C           -0.666913799714     0.738370655259    -0.027760459808    12.000000000000
         C            0.714133200286     0.710191655259    -0.013615459808    12.000000000000
         C           -1.431297799714    -0.478783344741    -0.015282459808    12.000000000000
         C            1.440819200286    -0.554211344741    -0.021585459808    12.000000000000
         C           -0.750491799714    -1.663794344741    -0.010422459808    12.000000000000
         C           -1.418420799714     2.044702655259    -0.021971459808    12.000000000000
         C            1.570856300286     1.945130755259     0.194574340192    12.000000000000
         C           -2.935277799714    -0.472934344741    -0.019527459808    12.000000000000
         H           -1.240761799714    -2.633236344741    -0.001227459808     1.007825032230
         H           -2.197499799714     2.050710655259    -0.790411459808     1.007825032230
         H           -0.759083799714     2.893015655259    -0.205958459808     1.007825032230
         H           -1.914688799714     2.205895655259     0.942286540192     1.007825032230
         H            1.121442200286    -2.559063344741    -0.011601459808     1.007825032230
         H            1.454919200286     2.523921655259    -0.928490459808     1.007825032230
         H            2.617038200286     1.645642655259     0.079651540192     1.007825032230
         H            1.324957200286     2.602902655259     0.834124540192     1.007825032230
         H           -3.320805799714    -1.494558344741     0.045294540192     1.007825032230
         H           -3.338549799714    -0.023313344741    -0.933176459808     1.007825032230
         H           -3.340110799714     0.090338655259     0.827492540192     1.007825032230

  Basis Set: AUG-CC-PVTZ
    Blend: AUG-CC-PVTZ
  Basis Set: (AUG-CC-PVTZ AUX)
    Blend: AUG-CC-PVTZ-JKFIT
	 Reference Energy          =    -438.7883859218700309 [Eh]
	 Singles Energy            =      -0.0000000000000000 [Eh]
	 Same-Spin Energy          =      -0.4707273666810559 [Eh]
	 Opposite-Spin Energy      =      -1.5008401390266797 [Eh]
	 Correlation Energy        =      -1.9715675057077355 [Eh]
	 Total Energy              =    -440.7599534275777842 [Eh]

	 ================> DF-SCS-MP2 Energies <==================
	-----------------------------------------------------------
	 SCS Same-Spin Scale       =       0.3333333333333333 [-]
	 SCS Opposite-Spin Scale   =       1.2000000000000000 [-]
	 SCS Same-Spin Energy      =      -0.1569091222270186 [Eh]
	 SCS Opposite-Spin Energy  =      -1.8010081668320155 [Eh]
	 SCS Correlation Energy    =      -1.9579172890590342 [Eh]
	 SCS Total Energy          =    -440.7463032109290566 [Eh]
	-----------------------------------------------------------

  Dipole Moment: [D]
     X:    -4.4482      Y:    -0.3332      Z:     0.1347     Total:     4.4627

*** Psi4 exiting successfully. Buy a developer a beer!
