                               Psi4 1.3.2 release

  ==> Input File <==

--------------------------------------------------------------------------
#psi4
#
memory 32 gb

molecule  {
0 1
  O        2.7382740    -0.7425350    -0.0126020
  N        0.6793120    -1.7266560     0.0061990
  C       -0.6027900     0.6893070    -0.0105920
  C        0.7782570     0.6611280     0.0035530
  C       -1.3671740    -0.5278470     0.0018860
  C        1.5049430    -0.6032750    -0.0044170
  C       -0.6863680    -1.7128580     0.0067460
  C       -1.3542970     1.9956390    -0.0048030
  C        1.6356481     1.8966785     0.1117469
  C       -2.8711540    -0.5219980    -0.0023590
  H       -1.1766380    -2.6823000     0.0159410
  H       -2.1333760     2.0016470    -0.7732430
  H       -0.6949600     2.8439520    -0.1887900
  H       -1.8505650     2.1568320     0.9594550
  H        1.1855660    -2.6081270     0.0055670
  H        1.5190430     2.4748580    -0.9113220
  H        2.6811620     1.5965790     0.0968200
  H        1.3890810     2.5538390     0.8512930
  H       -3.2566820    -1.5436220     0.0624630
  H       -3.2744260    -0.0723770    -0.9160080
  H       -3.2759870     0.0412750     0.8446610
units angstrom
no_reorient  #important for SAPT in psi4, default
symmetry c1  #important for SAPT in psi4, default
}

set PROPERTIES_ORIGIN ["COM"]
properties('MP2/aug-cc-pvtz', properties = ['dipole'])
--------------------------------------------------------------------------

    Molecular point group: c1
  Charge       = 0
  Multiplicity = 1
  Basis Set: AUG-CC-PVTZ
    Blend: AUG-CC-PVTZ
  Basis Set: (AUG-CC-PVTZ AUX)
    Blend: AUG-CC-PVTZ-JKFIT

    Orbital Energies [Eh]
    ---------------------

    Doubly Occupied:

       1A    -20.500589     2A    -15.615947     3A    -11.344527
       4A    -11.296718     5A    -11.269196     6A    -11.243132
       7A    -11.239548     8A    -11.237312     9A    -11.237009
      10A    -11.214734    11A     -1.362073    12A     -1.263343
      13A     -1.131615    14A     -1.062155    15A     -0.991361
      16A     -0.948917    17A     -0.935069    18A     -0.830827
      19A     -0.810462    20A     -0.726354    21A     -0.706711
      22A     -0.646088    23A     -0.620587    24A     -0.598525
      25A     -0.589940    26A     -0.582322    27A     -0.574881
      28A     -0.569460    29A     -0.565788    30A     -0.549353
      31A     -0.527707    32A     -0.504375    33A     -0.497545
      34A     -0.468148    35A     -0.416090    36A     -0.386634
      37A     -0.295136

  @DF-RHF Final Energy:  -438.81773702677924

   => Energetics <=

    Nuclear Repulsion Energy =            522.7736510043498583
    One-Electron Energy =               -1632.4624149335083985
    Two-Electron Energy =                 670.8710269023792989
    Total Energy =                       -438.8177370267792412
  Basis Set: (AUG-CC-PVTZ AUX)
    Blend: AUG-CC-PVTZ-RI
    Molecular point group: c1

    Geometry (in Angstrom), charge = 0, multiplicity = 1:

       Center              X                  Y                   Z               Mass
    ------------   -----------------  -----------------  -----------------  -----------------
         O            2.674091725218    -0.693524865185    -0.021017065977    15.994914619570
         N            0.615129725218    -1.677645865185    -0.002216065977    14.003074004430
         C           -0.666972274782     0.738317134815    -0.019007065977    12.000000000000
         C            0.714074725218     0.710138134815    -0.004862065977    12.000000000000
         C           -1.431356274782    -0.478836865185    -0.006529065977    12.000000000000
         C            1.440760725218    -0.554264865185    -0.012832065977    12.000000000000
         C           -0.750550274782    -1.663847865185    -0.001669065977    12.000000000000
         C           -1.418479274782     2.044649134815    -0.013218065977    12.000000000000
         C            1.571465825218     1.945688634815     0.103331834023    12.000000000000
         C           -2.935336274782    -0.472987865185    -0.010774065977    12.000000000000
         H           -1.240820274782    -2.633289865185     0.007525934023     1.007825032230
         H           -2.197558274782     2.050657134815    -0.781658065977     1.007825032230
         H           -0.759142274782     2.892962134815    -0.197205065977     1.007825032230
         H           -1.914747274782     2.205842134815     0.951039934023     1.007825032230
         H            1.121383725218    -2.559116865185    -0.002848065977     1.007825032230
         H            1.454860725218     2.523868134815    -0.919737065977     1.007825032230
         H            2.616979725218     1.645589134815     0.088404934023     1.007825032230
         H            1.324898725218     2.602849134815     0.842877934023     1.007825032230
         H           -3.320864274782    -1.494611865185     0.054047934023     1.007825032230
         H           -3.338608274782    -0.023366865185    -0.924423065977     1.007825032230
         H           -3.340169274782     0.090285134815     0.836245934023     1.007825032230

  Basis Set: AUG-CC-PVTZ
    Blend: AUG-CC-PVTZ
  Basis Set: (AUG-CC-PVTZ AUX)
    Blend: AUG-CC-PVTZ-JKFIT
	 Reference Energy          =    -438.8177370267792412 [Eh]
	 Singles Energy            =      -0.0000000000000000 [Eh]
	 Same-Spin Energy          =      -0.4703018202996187 [Eh]
	 Opposite-Spin Energy      =      -1.4995610619841844 [Eh]
	 Correlation Energy        =      -1.9698628822838031 [Eh]
	 Total Energy              =    -440.7875999090630330 [Eh]

	 ================> DF-SCS-MP2 Energies <==================
	-----------------------------------------------------------
	 SCS Same-Spin Scale       =       0.3333333333333333 [-]
	 SCS Opposite-Spin Scale   =       1.2000000000000000 [-]
	 SCS Same-Spin Energy      =      -0.1567672734332062 [Eh]
	 SCS Opposite-Spin Energy  =      -1.7994732743810211 [Eh]
	 SCS Correlation Energy    =      -1.9562405478142273 [Eh]
	 SCS Total Energy          =    -440.7739775745934594 [Eh]
	-----------------------------------------------------------

  Dipole Moment: [D]
     X:    -4.4567      Y:    -0.3001      Z:     0.0902     Total:     4.4677

*** Psi4 exiting successfully. Buy a developer a beer!
