                               Psi4 1.3.2 release

  ==> Input File <==

--------------------------------------------------------------------------
#psi4
#
memory 32 gb

molecule  {
0 1
  O        2.7382740    -0.7425350    -0.0126020
  N        0.6793120    -1.7266560     0.0061990
  C       -0.6027900     0.6893070    -0.0105920
  C        0.7782570     0.6611280     0.0035530
  C       -1.3671740    -0.5278470     0.0018860
  C        1.5049430    -0.6032750    -0.0044170
  C       -0.6863680    -1.7128580     0.0067460
  C       -1.3542970     1.9956390    -0.0048030
  C        1.6363160     1.8972900     0.0117510
  C       -2.8711540    -0.5219980    -0.0023590
  H       -1.1766380    -2.6823000     0.0159410
  H       -2.1333760     2.0016470    -0.7732430
  H       -0.6949600     2.8439520    -0.1887900
  H       -1.8505650     2.1568320     0.9594550
  H        1.1861257    -2.6072202     0.2055642
  H        1.5190430     2.4748580    -0.9113220
  H        2.6811620     1.5965790     0.0968200
  H        1.3890810     2.5538390     0.8512930
  H       -3.2566820    -1.5436220     0.0624630
  H       -3.2744260    -0.0723770    -0.9160080
  H       -3.2759870     0.0412750     0.8446610
units angstrom
no_reorient  #important for SAPT in psi4, default
symmetry c1  #important for SAPT in psi4, default
}

set PROPERTIES_ORIGIN ["COM"]
properties('MP2/aug-cc-pvtz', properties = ['dipole'])
--------------------------------------------------------------------------

    Molecular point group: c1
  Charge       = 0
  Multiplicity = 1
  Basis Set: AUG-CC-PVTZ
    Blend: AUG-CC-PVTZ
  Basis Set: (AUG-CC-PVTZ AUX)
    Blend: AUG-CC-PVTZ-JKFIT

    Orbital Energies [Eh]
    ---------------------

    Doubly Occupied:

       1A    -20.500563     2A    -15.616462     3A    -11.344146
       4A    -11.296323     5A    -11.269410     6A    -11.243075
       7A    -11.238558     8A    -11.237261     9A    -11.237088
      10A    -11.212879    11A     -1.361439    12A     -1.261864
      13A     -1.130995    14A     -1.061974    15A     -0.990924
      16A     -0.948331    17A     -0.933764    18A     -0.828391
      19A     -0.809358    20A     -0.724277    21A     -0.704117
      22A     -0.645247    23A     -0.619975    24A     -0.598270
      25A     -0.587336    26A     -0.580691    27A     -0.571141
      28A     -0.569637    29A     -0.561574    30A     -0.549950
      31A     -0.533614    32A     -0.505691    33A     -0.499419
      34A     -0.468312    35A     -0.415783    36A     -0.387915
      37A     -0.295770

  @DF-RHF Final Energy:  -438.82549218831787

   => Energetics <=

    Nuclear Repulsion Energy =            522.7230936331635576
    One-Electron Energy =               -1632.4141227289715061
    Two-Electron Energy =                 670.8655369074901955
    Total Energy =                       -438.8254921883178667
  Basis Set: (AUG-CC-PVTZ AUX)
    Blend: AUG-CC-PVTZ-RI
    Molecular point group: c1

    Geometry (in Angstrom), charge = 0, multiplicity = 1:

       Center              X                  Y                   Z               Mass
    ------------   -----------------  -----------------  -----------------  -----------------
         O            2.674029144059    -0.693585061064    -0.013734026749    15.994914619570
         N            0.615067144059    -1.677706061064     0.005066973251    14.003074004430
         C           -0.667034855941     0.738256938936    -0.011724026749    12.000000000000
         C            0.714012144059     0.710077938936     0.002420973251    12.000000000000
         C           -1.431418855941    -0.478897061064     0.000753973251    12.000000000000
         C            1.440698144059    -0.554325061064    -0.005549026749    12.000000000000
         C           -0.750612855941    -1.663908061064     0.005613973251    12.000000000000
         C           -1.418541855941     2.044588938936    -0.005935026749    12.000000000000
         C            1.572071144059     1.946239938936     0.010618973251    12.000000000000
         C           -2.935398855941    -0.473048061064    -0.003491026749    12.000000000000
         H           -1.240882855941    -2.633350061064     0.014808973251     1.007825032230
         H           -2.197620855941     2.050596938936    -0.774375026749     1.007825032230
         H           -0.759204855941     2.892901938936    -0.189922026749     1.007825032230
         H           -1.914809855941     2.205781938936     0.958322973251     1.007825032230
         H            1.121880844059    -2.558270261064     0.204432173251     1.007825032230
         H            1.454798144059     2.523807938936    -0.912454026749     1.007825032230
         H            2.616917144059     1.645528938936     0.095687973251     1.007825032230
         H            1.324836144059     2.602788938936     0.850160973251     1.007825032230
         H           -3.320926855941    -1.494672061064     0.061330973251     1.007825032230
         H           -3.338670855941    -0.023427061064    -0.917140026749     1.007825032230
         H           -3.340231855941     0.090224938936     0.843528973251     1.007825032230

  Basis Set: AUG-CC-PVTZ
    Blend: AUG-CC-PVTZ
  Basis Set: (AUG-CC-PVTZ AUX)
    Blend: AUG-CC-PVTZ-JKFIT
	 Reference Energy          =    -438.8254921883178667 [Eh]
	 Singles Energy            =      -0.0000000000000000 [Eh]
	 Same-Spin Energy          =      -0.4702813754329075 [Eh]
	 Opposite-Spin Energy      =      -1.4995448753447320 [Eh]
	 Correlation Energy        =      -1.9698262507776394 [Eh]
	 Total Energy              =    -440.7953184390955244 [Eh]

	 ================> DF-SCS-MP2 Energies <==================
	-----------------------------------------------------------
	 SCS Same-Spin Scale       =       0.3333333333333333 [-]
	 SCS Opposite-Spin Scale   =       1.2000000000000000 [-]
	 SCS Same-Spin Energy      =      -0.1567604584776358 [Eh]
	 SCS Opposite-Spin Energy  =      -1.7994538504136783 [Eh]
	 SCS Correlation Energy    =      -1.9562143088913142 [Eh]
	 SCS Total Energy          =    -440.7817064972091998 [Eh]
	-----------------------------------------------------------

  Dipole Moment: [D]
     X:    -4.4571      Y:    -0.2690      Z:     0.2967     Total:     4.4750

*** Psi4 exiting successfully. Buy a developer a beer!
