                               Psi4 1.4a3.dev225

  ==> Input File <==

--------------------------------------------------------------------------
#psi4
#
memory 32 gb

molecule  {
0 1
 Cl       -3.3762460     0.4715730     0.0000400
 Cl        3.3762460    -0.4715730    -0.0000500
  O       -1.8662040    -1.6703800    -0.0002000
  O        1.8662050     1.6703810     0.0002060
  C       -0.6363830     0.4167610     0.0000530
  C        0.6363830    -0.4167600    -0.0000420
  C       -1.8539110    -0.4669460    -0.0000590
  C        1.8539110     0.4669460     0.0000630
  H       -0.6849470     1.0764100    -0.8725500
  H       -0.6849540     1.0761990     0.8728160
  H        0.6760798    -0.9557513    -0.7133876
  H        0.6849480    -1.0764060     0.8725640
units angstrom
no_reorient  #important for SAPT in psi4, default
symmetry c1  #important for SAPT in psi4, default
}

set PROPERTIES_ORIGIN ["COM"]
properties('MP2/aug-cc-pvtz', properties = ['dipole'])
--------------------------------------------------------------------------

    Molecular point group: c1
  Charge       = 0
  Multiplicity = 1
  Basis Set: AUG-CC-PVTZ
    Blend: AUG-CC-PVTZ
  Basis Set: (AUG-CC-PVTZ AUX)
    Blend: AUG-CC-PVTZ-JKFIT

    Orbital Energies [Eh]
    ---------------------

    Doubly Occupied:

       1A   -104.866060     2A   -104.865141     3A    -20.608123
       4A    -20.608078     5A    -11.427594     6A    -11.427254
       7A    -11.290741     8A    -11.269342     9A    -10.590487
      10A    -10.589576    11A     -8.057131    12A     -8.056224
      13A     -8.055394    14A     -8.055235    15A     -8.054485
      16A     -8.054326    17A     -1.452535    18A     -1.450957
      19A     -1.166644    20A     -1.151203    21A     -1.114123
      22A     -0.987045    23A     -0.802693    24A     -0.791371
      25A     -0.720052    26A     -0.710505    27A     -0.690415
      28A     -0.659834    29A     -0.654513    30A     -0.628132
      31A     -0.583640    32A     -0.572360    33A     -0.547181
      34A     -0.493738    35A     -0.481470    36A     -0.480629
      37A     -0.478374    38A     -0.468736    39A     -0.466217

  @DF-RHF Final Energy: -1222.65477814699716

   => Energetics <=

    Nuclear Repulsion Energy =            471.4828607783444454
    One-Electron Energy =               -2621.4201672147073623
    Two-Electron Energy =                 927.2825282893659278
    Total Energy =                      -1222.6547781469971596
  Basis Set: (AUG-CC-PVTZ AUX)
    Blend: AUG-CC-PVTZ-RI
    Molecular point group: c1

    Geometry (in Angstrom), charge = 0, multiplicity = 1:

       Center              X                  Y                   Z               Mass
    ------------   -----------------  -----------------  -----------------  -----------------
         CL          -3.376188019318     0.470784333123    -0.001003242001    34.968852682000
         CL           3.376303980682    -0.472361666877    -0.001093242001    34.968852682000
         O           -1.866146019318    -1.671168666877    -0.001243242001    15.994914619570
         O            1.866262980682     1.669592333123    -0.000837242001    15.994914619570
         C           -0.636325019318     0.415972333123    -0.000990242001    12.000000000000
         C            0.636440980682    -0.417548666877    -0.001085242001    12.000000000000
         C           -1.853853019318    -0.467734666877    -0.001102242001    12.000000000000
         C            1.853968980682     0.466157333123    -0.000980242001    12.000000000000
         H           -0.684889019318     1.075621333123    -0.873593242001     1.007825032230
         H           -0.684896019318     1.075410333123     0.871772757999     1.007825032230
         H            0.676137780682    -0.956539966877    -0.714430842001     1.007825032230
         H            0.685005980682    -1.077194666877     0.871520757999     1.007825032230

  Basis Set: AUG-CC-PVTZ
    Blend: AUG-CC-PVTZ
  Basis Set: (AUG-CC-PVTZ AUX)
    Blend: AUG-CC-PVTZ-JKFIT
	 Reference Energy          =   -1222.6547781469971596 [Eh]
	 Singles Energy            =      -0.0000000000000000 [Eh]
	 Same-Spin Energy          =      -0.4254993978829685 [Eh]
	 Opposite-Spin Energy      =      -1.2684333069477991 [Eh]
	 Correlation Energy        =      -1.6939327048307677 [Eh]
	 Total Energy              =   -1224.3487108518279456 [Eh]

	 ================> DF-SCS-MP2 Energies <==================
	-----------------------------------------------------------
	 SCS Same-Spin Scale       =       0.3333333333333333 [-]
	 SCS Opposite-Spin Scale   =       1.2000000000000000 [-]
	 SCS Same-Spin Energy      =      -0.1418331326276562 [Eh]
	 SCS Opposite-Spin Energy  =      -1.5221199683373590 [Eh]
	 SCS Correlation Energy    =      -1.6639531009650150 [Eh]
	 SCS Total Energy          =   -1224.3187312479622051 [Eh]
	-----------------------------------------------------------

  Dipole Moment: [D]
     X:     0.0387      Y:     0.0247      Z:     0.0251     Total:     0.0523

*** Psi4 exiting successfully. Buy a developer a beer!
