                               Psi4 1.4a3.dev225

  ==> Input File <==

--------------------------------------------------------------------------
#psi4
#
memory 32 gb

molecule  {
0 1
 Cl       -3.3762460     0.4715730     0.0000400
 Cl        3.3762460    -0.4715730    -0.0000500
  O       -1.8662040    -1.6703800    -0.0002000
  O        1.8662050     1.6703810     0.0002060
  C       -0.6363830     0.4167610     0.0000530
  C        0.6363830    -0.4167600    -0.0000420
  C       -1.8541153    -0.4869450    -0.0000613
  C        1.8539110     0.4669460     0.0000630
  H       -0.6849470     1.0764100    -0.8725500
  H       -0.6849540     1.0761990     0.8728160
  H        0.6849510    -1.0762020    -0.8728020
  H        0.6849480    -1.0764060     0.8725640
units angstrom
no_reorient  #important for SAPT in psi4, default
symmetry c1  #important for SAPT in psi4, default
}

set PROPERTIES_ORIGIN ["COM"]
properties('MP2/aug-cc-pvtz', properties = ['dipole'])
--------------------------------------------------------------------------

    Molecular point group: c1
  Charge       = 0
  Multiplicity = 1
  Basis Set: AUG-CC-PVTZ
    Blend: AUG-CC-PVTZ
  Basis Set: (AUG-CC-PVTZ AUX)
    Blend: AUG-CC-PVTZ-JKFIT

    Orbital Energies [Eh]
    ---------------------

    Doubly Occupied:

       1A   -104.865245     2A   -104.861352     3A    -20.611069
       4A    -20.607969     5A    -11.427559     6A    -11.426185
       7A    -11.292073     8A    -11.291373     9A    -10.589684
      10A    -10.585835    11A     -8.056332    12A     -8.054593
      13A     -8.054435    14A     -8.052461    15A     -8.050753
      16A     -8.050603    17A     -1.467242    18A     -1.451558
      19A     -1.160294    20A     -1.147888    21A     -1.105129
      22A     -0.973707    23A     -0.793812    24A     -0.784568
      25A     -0.718606    26A     -0.699940    27A     -0.691612
      28A     -0.659173    29A     -0.655370    30A     -0.626765
      31A     -0.575956    32A     -0.575025    33A     -0.541690
      34A     -0.492216    35A     -0.481045    36A     -0.479539
      37A     -0.477114    38A     -0.468209    39A     -0.463434

  @DF-RHF Final Energy: -1222.68986563502472

   => Energetics <=

    Nuclear Repulsion Energy =            470.3982004996177011
    One-Electron Energy =               -2619.4413146971232891
    Two-Electron Energy =                 926.3532485624809851
    Total Energy =                      -1222.6898656350244892
  Basis Set: (AUG-CC-PVTZ AUX)
    Blend: AUG-CC-PVTZ-RI
    Molecular point group: c1

    Geometry (in Angstrom), charge = 0, multiplicity = 1:

       Center              X                  Y                   Z               Mass
    ------------   -----------------  -----------------  -----------------  -----------------
         CL          -3.376230167062     0.473131591929     0.000040474802    34.968852682000
         CL           3.376261832938    -0.470014408071    -0.000049525198    34.968852682000
         O           -1.866188167062    -1.668821408071    -0.000199525198    15.994914619570
         O            1.866220832938     1.671939591929     0.000206474802    15.994914619570
         C           -0.636367167062     0.418319591929     0.000053474802    12.000000000000
         C            0.636398832938    -0.415201408071    -0.000041525198    12.000000000000
         C           -1.854099467062    -0.485386408071    -0.000060825198    12.000000000000
         C            1.853926832938     0.468504591929     0.000063474802    12.000000000000
         H           -0.684931167062     1.077968591929    -0.872549525198     1.007825032230
         H           -0.684938167062     1.077757591929     0.872816474802     1.007825032230
         H            0.684966832938    -1.074643408071    -0.872801525198     1.007825032230
         H            0.684963832938    -1.074847408071     0.872564474802     1.007825032230

  Basis Set: AUG-CC-PVTZ
    Blend: AUG-CC-PVTZ
  Basis Set: (AUG-CC-PVTZ AUX)
    Blend: AUG-CC-PVTZ-JKFIT
	 Reference Energy          =   -1222.6898656350247165 [Eh]
	 Singles Energy            =      -0.0000000000000000 [Eh]
	 Same-Spin Energy          =      -0.4251040251884378 [Eh]
	 Opposite-Spin Energy      =      -1.2679038181621745 [Eh]
	 Correlation Energy        =      -1.6930078433506122 [Eh]
	 Total Energy              =   -1224.3828734783753589 [Eh]

	 ================> DF-SCS-MP2 Energies <==================
	-----------------------------------------------------------
	 SCS Same-Spin Scale       =       0.3333333333333333 [-]
	 SCS Opposite-Spin Scale   =       1.2000000000000000 [-]
	 SCS Same-Spin Energy      =      -0.1417013417294793 [Eh]
	 SCS Opposite-Spin Energy  =      -1.5214845817946092 [Eh]
	 SCS Correlation Energy    =      -1.6631859235240884 [Eh]
	 SCS Total Energy          =   -1224.3530515585487137 [Eh]
	-----------------------------------------------------------

  Dipole Moment: [D]
     X:     0.0742      Y:    -0.1340      Z:    -0.0000     Total:     0.1532

*** Psi4 exiting successfully. Buy a developer a beer!
