                               Psi4 1.4a3.dev225

  ==> Input File <==

--------------------------------------------------------------------------
#psi4
#
memory 32 gb

molecule  {
0 1
 Cl       -3.3762460     0.4715730     0.0000400
 Cl        3.3762460    -0.4715730    -0.0000500
  O       -1.8872049    -1.6699822    -0.0002001
  O        1.8662050     1.6703810     0.0002060
  C       -0.6363830     0.4167610     0.0000530
  C        0.6363830    -0.4167600    -0.0000420
  C       -1.8539110    -0.4669460    -0.0000590
  C        1.8539110     0.4669460     0.0000630
  H       -0.6849470     1.0764100    -0.8725500
  H       -0.6849540     1.0761990     0.8728160
  H        0.6849510    -1.0762020    -0.8728020
  H        0.6849480    -1.0764060     0.8725640
units angstrom
no_reorient  #important for SAPT in psi4, default
symmetry c1  #important for SAPT in psi4, default
}

set PROPERTIES_ORIGIN ["COM"]
properties('MP2/aug-cc-pvtz', properties = ['dipole'])
--------------------------------------------------------------------------

    Molecular point group: c1
  Charge       = 0
  Multiplicity = 1
  Basis Set: AUG-CC-PVTZ
    Blend: AUG-CC-PVTZ
  Basis Set: (AUG-CC-PVTZ AUX)
    Blend: AUG-CC-PVTZ-JKFIT

    Orbital Energies [Eh]
    ---------------------

    Doubly Occupied:

       1A   -104.865576     2A   -104.863786     3A    -20.608333
       4A    -20.607870     5A    -11.427966     6A    -11.427593
       7A    -11.292738     8A    -11.292026     9A    -10.590006
      10A    -10.588294    11A     -8.056654    12A     -8.054940
      13A     -8.054913    14A     -8.054755    15A     -8.053203
      16A     -8.053047    17A     -1.452519    18A     -1.450960
      19A     -1.161871    20A     -1.150132    21A     -1.106870
      22A     -0.976818    23A     -0.793920    24A     -0.784308
      25A     -0.716374    26A     -0.700257    27A     -0.690058
      28A     -0.656893    29A     -0.653819    30A     -0.624526
      31A     -0.575686    32A     -0.571733    33A     -0.540757
      34A     -0.493769    35A     -0.481152    36A     -0.479451
      37A     -0.477432    38A     -0.468105    39A     -0.466198

  @DF-RHF Final Energy: -1222.68815265362491

   => Energetics <=

    Nuclear Repulsion Energy =            470.2580310849294278
    One-Electron Energy =               -2619.1617524624571161
    Two-Electron Energy =                 926.2155687239029476
    Total Energy =                      -1222.6881526536249112
  Basis Set: (AUG-CC-PVTZ AUX)
    Blend: AUG-CC-PVTZ-RI
    Molecular point group: c1

    Geometry (in Angstrom), charge = 0, multiplicity = 1:

       Center              X                  Y                   Z               Mass
    ------------   -----------------  -----------------  -----------------  -----------------
         CL          -3.374064289390     0.471531483839     0.000040305922    34.968852682000
         CL           3.378427710610    -0.471614516161    -0.000049694078    34.968852682000
         O           -1.885023189390    -1.670023716161    -0.000199794078    15.994914619570
         O            1.868386710610     1.670339483839     0.000206305922    15.994914619570
         C           -0.634201289390     0.416719483839     0.000053305922    12.000000000000
         C            0.638564710610    -0.416801516161    -0.000041694078    12.000000000000
         C           -1.851729289390    -0.466987516161    -0.000058694078    12.000000000000
         C            1.856092710610     0.466904483839     0.000063305922    12.000000000000
         H           -0.682765289390     1.076368483839    -0.872549694078     1.007825032230
         H           -0.682772289390     1.076157483839     0.872816305922     1.007825032230
         H            0.687132710610    -1.076243516161    -0.872801694078     1.007825032230
         H            0.687129710610    -1.076447516161     0.872564305922     1.007825032230

  Basis Set: AUG-CC-PVTZ
    Blend: AUG-CC-PVTZ
  Basis Set: (AUG-CC-PVTZ AUX)
    Blend: AUG-CC-PVTZ-JKFIT
	 Reference Energy          =   -1222.6881526536249112 [Eh]
	 Singles Energy            =      -0.0000000000000000 [Eh]
	 Same-Spin Energy          =      -0.4256494465916452 [Eh]
	 Opposite-Spin Energy      =      -1.2690660615380014 [Eh]
	 Correlation Energy        =      -1.6947155081296466 [Eh]
	 Total Energy              =   -1224.3828681617544589 [Eh]

	 ================> DF-SCS-MP2 Energies <==================
	-----------------------------------------------------------
	 SCS Same-Spin Scale       =       0.3333333333333333 [-]
	 SCS Opposite-Spin Scale   =       1.2000000000000000 [-]
	 SCS Same-Spin Energy      =      -0.1418831488638817 [Eh]
	 SCS Opposite-Spin Energy  =      -1.5228792738456016 [Eh]
	 SCS Correlation Energy    =      -1.6647624227094833 [Eh]
	 SCS Total Energy          =   -1224.3529150763342841 [Eh]
	-----------------------------------------------------------

  Dipole Moment: [D]
     X:     0.0658      Y:    -0.0057      Z:     0.0000     Total:     0.0661

*** Psi4 exiting successfully. Buy a developer a beer!
