                               Psi4 1.4a3.dev225

  ==> Input File <==

--------------------------------------------------------------------------
#psi4
#
memory 32 gb

molecule  {
0 1
 Cl       -3.3762460     0.4715730     0.0000400
 Cl        3.3762460    -0.4715730    -0.0000500
  O       -1.8662040    -1.6703800    -0.0002000
  O        1.8662050     1.6703810     0.0002060
  C       -0.6363830     0.4167610     0.0000530
  C        0.6436895    -0.4051828     0.0227101
  C       -1.8539110    -0.4669460    -0.0000590
  C        1.8539110     0.4669460     0.0000630
  H       -0.6849470     1.0764100    -0.8725500
  H       -0.6849540     1.0761990     0.8728160
  H        0.6849510    -1.0762020    -0.8728020
  H        0.6849480    -1.0764060     0.8725640
units angstrom
no_reorient  #important for SAPT in psi4, default
symmetry c1  #important for SAPT in psi4, default
}

set PROPERTIES_ORIGIN ["COM"]
properties('MP2/aug-cc-pvtz', properties = ['dipole'])
--------------------------------------------------------------------------

    Molecular point group: c1
  Charge       = 0
  Multiplicity = 1
  Basis Set: AUG-CC-PVTZ
    Blend: AUG-CC-PVTZ
  Basis Set: (AUG-CC-PVTZ AUX)
    Blend: AUG-CC-PVTZ-JKFIT

    Orbital Energies [Eh]
    ---------------------

    Doubly Occupied:

       1A   -104.865455     2A   -104.865363     3A    -20.607983
       4A    -20.607531     5A    -11.427748     6A    -11.427170
       7A    -11.292005     8A    -11.291355     9A    -10.589878
      10A    -10.589787    11A     -8.056527    12A     -8.056438
      13A     -8.054784    14A     -8.054695    15A     -8.054626
      16A     -8.054538    17A     -1.452395    18A     -1.450865
      19A     -1.162235    20A     -1.150816    21A     -1.106717
      22A     -0.977650    23A     -0.794580    24A     -0.783425
      25A     -0.716836    26A     -0.698946    27A     -0.690374
      28A     -0.656947    29A     -0.654626    30A     -0.624331
      31A     -0.574268    32A     -0.570203    33A     -0.537518
      34A     -0.493984    35A     -0.481250    36A     -0.480316
      37A     -0.477884    38A     -0.468608    39A     -0.467277

  @DF-RHF Final Energy: -1222.68728507121955

   => Energetics <=

    Nuclear Repulsion Energy =            470.4657575299526115
    One-Electron Energy =               -2619.5702116589559409
    Two-Electron Energy =                 926.4171690577838945
    Total Energy =                      -1222.6872850712195486
  Basis Set: (AUG-CC-PVTZ AUX)
    Blend: AUG-CC-PVTZ-RI
    Molecular point group: c1

    Geometry (in Angstrom), charge = 0, multiplicity = 1:

       Center              X                  Y                   Z               Mass
    ------------   -----------------  -----------------  -----------------  -----------------
         CL          -3.376815580690     0.470670450932    -0.001733069409    34.968852682000
         CL           3.375676419310    -0.472475549068    -0.001823069409    34.968852682000
         O           -1.866773580690    -1.671282549068    -0.001973069409    15.994914619570
         O            1.865635419310     1.669478450932    -0.001567069409    15.994914619570
         C           -0.636952580690     0.415858450932    -0.001720069409    12.000000000000
         C            0.643119919310    -0.406085349068     0.020937030591    12.000000000000
         C           -1.854480580690    -0.467848549068    -0.001832069409    12.000000000000
         C            1.853341419310     0.466043450932    -0.001710069409    12.000000000000
         H           -0.685516580690     1.075507450932    -0.874323069409     1.007825032230
         H           -0.685523580690     1.075296450932     0.871042930591     1.007825032230
         H            0.684381419310    -1.077104549068    -0.874575069409     1.007825032230
         H            0.684378419310    -1.077308549068     0.870790930591     1.007825032230

  Basis Set: AUG-CC-PVTZ
    Blend: AUG-CC-PVTZ
  Basis Set: (AUG-CC-PVTZ AUX)
    Blend: AUG-CC-PVTZ-JKFIT
	 Reference Energy          =   -1222.6872850712195486 [Eh]
	 Singles Energy            =      -0.0000000000000000 [Eh]
	 Same-Spin Energy          =      -0.4257759006926389 [Eh]
	 Opposite-Spin Energy      =      -1.2692581671072030 [Eh]
	 Correlation Energy        =      -1.6950340677998419 [Eh]
	 Total Energy              =   -1224.3823191390195007 [Eh]

	 ================> DF-SCS-MP2 Energies <==================
	-----------------------------------------------------------
	 SCS Same-Spin Scale       =       0.3333333333333333 [-]
	 SCS Opposite-Spin Scale   =       1.2000000000000000 [-]
	 SCS Same-Spin Energy      =      -0.1419253002308796 [Eh]
	 SCS Opposite-Spin Energy  =      -1.5231098005286434 [Eh]
	 SCS Correlation Energy    =      -1.6650351007595230 [Eh]
	 SCS Total Energy          =   -1224.3523201719790450 [Eh]
	-----------------------------------------------------------

  Dipole Moment: [D]
     X:    -0.0161      Y:    -0.0103      Z:     0.0107     Total:     0.0219

*** Psi4 exiting successfully. Buy a developer a beer!
