                               Psi4 1.4a3.dev225

  ==> Input File <==

--------------------------------------------------------------------------
#psi4
#
memory 32 gb

molecule  {
0 1
 Cl       -3.3762460     0.4715730     0.0000400
 Cl        3.3762460    -0.4715730    -0.0000500
  O       -1.9919298    -1.6625025    -0.0002000
  O        1.8662050     1.6703810     0.0002060
  C       -0.6363830     0.4167610     0.0000530
  C        0.6363830    -0.4167600    -0.0000420
  C       -1.8539110    -0.4669460    -0.0000590
  C        1.8539110     0.4669460     0.0000630
  H       -0.6849470     1.0764100    -0.8725500
  H       -0.6849540     1.0761990     0.8728160
  H        0.6849510    -1.0762020    -0.8728020
  H        0.6849480    -1.0764060     0.8725640
units angstrom
no_reorient  #important for SAPT in psi4, default
symmetry c1  #important for SAPT in psi4, default
}

set PROPERTIES_ORIGIN ["COM"]
properties('MP2/aug-cc-pvtz', properties = ['dipole'])
--------------------------------------------------------------------------

    Molecular point group: c1
  Charge       = 0
  Multiplicity = 1
  Basis Set: AUG-CC-PVTZ
    Blend: AUG-CC-PVTZ
  Basis Set: (AUG-CC-PVTZ AUX)
    Blend: AUG-CC-PVTZ-JKFIT

    Orbital Energies [Eh]
    ---------------------

    Doubly Occupied:

       1A   -104.867338     2A   -104.856418     3A    -20.610470
       4A    -20.607606     5A    -11.430149     6A    -11.428122
       7A    -11.297385     8A    -11.295282     9A    -10.591751
      10A    -10.581322    11A     -8.058399    12A     -8.056654
      13A     -8.056496    14A     -8.047955    15A     -8.046230
      16A     -8.046088    17A     -1.454218    18A     -1.451473
      19A     -1.162960    20A     -1.147865    21A     -1.108114
      22A     -0.979538    23A     -0.794308    24A     -0.786991
      25A     -0.717256    26A     -0.702691    27A     -0.690484
      28A     -0.656968    29A     -0.656127    30A     -0.626141
      31A     -0.579163    32A     -0.573853    33A     -0.543126
      34A     -0.495148    35A     -0.482719    36A     -0.476674
      37A     -0.473973    38A     -0.467854    39A     -0.462025

  @DF-RHF Final Energy: -1222.68589904233068

   => Energetics <=

    Nuclear Repulsion Energy =            469.8796159875171270
    One-Electron Energy =               -2618.3963667217785769
    Two-Electron Energy =                 925.8308516919305475
    Total Energy =                      -1222.6858990423306750
  Basis Set: (AUG-CC-PVTZ AUX)
    Blend: AUG-CC-PVTZ-RI
    Molecular point group: c1

    Geometry (in Angstrom), charge = 0, multiplicity = 1:

       Center              X                  Y                   Z               Mass
    ------------   -----------------  -----------------  -----------------  -----------------
         CL          -3.363184330232     0.470754411428     0.000040295533    34.968852682000
         CL           3.389307669768    -0.472391588572    -0.000049704467    34.968852682000
         O           -1.978868130232    -1.663321088572    -0.000199704467    15.994914619570
         O            1.879266669768     1.669562411428     0.000206295533    15.994914619570
         C           -0.623321330232     0.415942411428     0.000053295533    12.000000000000
         C            0.649444669768    -0.417578588572    -0.000041704467    12.000000000000
         C           -1.840849330232    -0.467764588572    -0.000058704467    12.000000000000
         C            1.866972669768     0.466127411428     0.000063295533    12.000000000000
         H           -0.671885330232     1.075591411428    -0.872549704467     1.007825032230
         H           -0.671892330232     1.075380411428     0.872816295533     1.007825032230
         H            0.698012669768    -1.077020588572    -0.872801704467     1.007825032230
         H            0.698009669768    -1.077224588572     0.872564295533     1.007825032230

  Basis Set: AUG-CC-PVTZ
    Blend: AUG-CC-PVTZ
  Basis Set: (AUG-CC-PVTZ AUX)
    Blend: AUG-CC-PVTZ-JKFIT
	 Reference Energy          =   -1222.6858990423306750 [Eh]
	 Singles Energy            =      -0.0000000000000000 [Eh]
	 Same-Spin Energy          =      -0.4256222815732337 [Eh]
	 Opposite-Spin Energy      =      -1.2689819096537471 [Eh]
	 Correlation Energy        =      -1.6946041912269809 [Eh]
	 Total Energy              =   -1224.3805032335576470 [Eh]

	 ================> DF-SCS-MP2 Energies <==================
	-----------------------------------------------------------
	 SCS Same-Spin Scale       =       0.3333333333333333 [-]
	 SCS Opposite-Spin Scale   =       1.2000000000000000 [-]
	 SCS Same-Spin Energy      =      -0.1418740938577445 [Eh]
	 SCS Opposite-Spin Energy  =      -1.5227782915844965 [Eh]
	 SCS Correlation Energy    =      -1.6646523854422410 [Eh]
	 SCS Total Energy          =   -1224.3505514277728707 [Eh]
	-----------------------------------------------------------

  Dipole Moment: [D]
     X:     0.3945      Y:    -0.0498      Z:     0.0000     Total:     0.3976

*** Psi4 exiting successfully. Buy a developer a beer!
