                               Psi4 1.4a3.dev225

  ==> Input File <==

--------------------------------------------------------------------------
#psi4
#
memory 32 gb

molecule  {
0 1
 Cl       -3.3762460     0.4715730     0.0000400
 Cl        3.3762460    -0.4715730    -0.0000500
  O       -1.8662040    -1.6703800    -0.0002000
  O        1.8662050     1.6703810     0.0002060
  C       -0.6363830     0.4167610     0.0000530
  C        0.6033040    -0.4604958    -0.0909810
  C       -1.8539110    -0.4669460    -0.0000590
  C        1.8539110     0.4669460     0.0000630
  H       -0.6849470     1.0764100    -0.8725500
  H       -0.6849540     1.0761990     0.8728160
  H        0.6849510    -1.0762020    -0.8728020
  H        0.6849480    -1.0764060     0.8725640
units angstrom
no_reorient  #important for SAPT in psi4, default
symmetry c1  #important for SAPT in psi4, default
}

set PROPERTIES_ORIGIN ["COM"]
properties('MP2/aug-cc-pvtz', properties = ['dipole'])
--------------------------------------------------------------------------

    Molecular point group: c1
  Charge       = 0
  Multiplicity = 1
  Basis Set: AUG-CC-PVTZ
    Blend: AUG-CC-PVTZ
  Basis Set: (AUG-CC-PVTZ AUX)
    Blend: AUG-CC-PVTZ-JKFIT

    Orbital Energies [Eh]
    ---------------------

    Doubly Occupied:

       1A   -104.864546     2A   -104.864440     3A    -20.608852
       4A    -20.607794     5A    -11.428838     6A    -11.426832
       7A    -11.292863     8A    -11.292221     9A    -10.589000
      10A    -10.588918    11A     -8.055640    12A     -8.055563
      13A     -8.053908    14A     -8.053832    15A     -8.053744
      16A     -8.053672    17A     -1.452112    18A     -1.450420
      19A     -1.160247    20A     -1.149064    21A     -1.106317
      22A     -0.972038    23A     -0.791853    24A     -0.788058
      25A     -0.715422    26A     -0.702367    27A     -0.688792
      28A     -0.657166    29A     -0.647073    30A     -0.625615
      31A     -0.588344    32A     -0.570860    33A     -0.539196
      34A     -0.491955    35A     -0.480717    36A     -0.479966
      37A     -0.477534    38A     -0.467397    39A     -0.460147

  @DF-RHF Final Energy: -1222.67553434600541

   => Energetics <=

    Nuclear Repulsion Energy =            469.8886744150639174
    One-Electron Energy =               -2618.4217688519893272
    Two-Electron Energy =                 925.8575600909199466
    Total Energy =                      -1222.6755343460054064
  Basis Set: (AUG-CC-PVTZ AUX)
    Blend: AUG-CC-PVTZ-RI
    Molecular point group: c1

    Geometry (in Angstrom), charge = 0, multiplicity = 1:

       Center              X                  Y                   Z               Mass
    ------------   -----------------  -----------------  -----------------  -----------------
         CL          -3.373667817193     0.474981707257     0.007128346062    34.968852682000
         CL           3.378824182807    -0.468164292743     0.007038346062    34.968852682000
         O           -1.863625817193    -1.666971292743     0.006888346062    15.994914619570
         O            1.868783182807     1.673789707257     0.007294346062    15.994914619570
         C           -0.633804817193     0.420169707257     0.007141346062    12.000000000000
         C            0.605882182807    -0.457087092743    -0.083892653938    12.000000000000
         C           -1.851332817193    -0.463537292743     0.007029346062    12.000000000000
         C            1.856489182807     0.470354707257     0.007151346062    12.000000000000
         H           -0.682368817193     1.079818707257    -0.865461653938     1.007825032230
         H           -0.682375817193     1.079607707257     0.879904346062     1.007825032230
         H            0.687529182807    -1.072793292743    -0.865713653938     1.007825032230
         H            0.687526182807    -1.072997292743     0.879652346062     1.007825032230

  Basis Set: AUG-CC-PVTZ
    Blend: AUG-CC-PVTZ
  Basis Set: (AUG-CC-PVTZ AUX)
    Blend: AUG-CC-PVTZ-JKFIT
	 Reference Energy          =   -1222.6755343460054064 [Eh]
	 Singles Energy            =      -0.0000000000000000 [Eh]
	 Same-Spin Energy          =      -0.4255959005119106 [Eh]
	 Opposite-Spin Energy      =      -1.2694157058965405 [Eh]
	 Correlation Energy        =      -1.6950116064084511 [Eh]
	 Total Energy              =   -1224.3705459524137495 [Eh]

	 ================> DF-SCS-MP2 Energies <==================
	-----------------------------------------------------------
	 SCS Same-Spin Scale       =       0.3333333333333333 [-]
	 SCS Opposite-Spin Scale   =       1.2000000000000000 [-]
	 SCS Same-Spin Energy      =      -0.1418653001706369 [Eh]
	 SCS Opposite-Spin Energy  =      -1.5232988470758486 [Eh]
	 SCS Correlation Energy    =      -1.6651641472464855 [Eh]
	 SCS Total Energy          =   -1224.3406984932519208 [Eh]
	-----------------------------------------------------------

  Dipole Moment: [D]
     X:     0.0438      Y:     0.0442      Z:    -0.0403     Total:     0.0741

*** Psi4 exiting successfully. Buy a developer a beer!
