                               Psi4 1.4a3.dev225

  ==> Input File <==

--------------------------------------------------------------------------
#psi4
#
memory 32 gb

molecule  {
0 1
 Cl       -3.3762460     0.4715730     0.0000400
 Cl        3.3762460    -0.4715730    -0.0000500
  O       -1.8662040    -1.6703800    -0.0002000
  O        1.8662050     1.6703810     0.0002060
  C       -0.6363830     0.4167610     0.0000530
  C        0.6363830    -0.4167600    -0.0000420
  C       -2.0241579    -0.3619889    -0.0000479
  C        1.8539110     0.4669460     0.0000630
  H       -0.6849470     1.0764100    -0.8725500
  H       -0.6849540     1.0761990     0.8728160
  H        0.6849510    -1.0762020    -0.8728020
  H        0.6849480    -1.0764060     0.8725640
units angstrom
no_reorient  #important for SAPT in psi4, default
symmetry c1  #important for SAPT in psi4, default
}

set PROPERTIES_ORIGIN ["COM"]
properties('MP2/aug-cc-pvtz', properties = ['dipole'])
--------------------------------------------------------------------------

    Molecular point group: c1
  Charge       = 0
  Multiplicity = 1
  Basis Set: AUG-CC-PVTZ
    Blend: AUG-CC-PVTZ
  Basis Set: (AUG-CC-PVTZ AUX)
    Blend: AUG-CC-PVTZ-JKFIT

    Orbital Energies [Eh]
    ---------------------

    Doubly Occupied:

       1A   -104.905708     2A   -104.860160     3A    -20.601382
       4A    -20.579196     5A    -11.425754     6A    -11.421546
       7A    -11.286210     8A    -11.282917     9A    -10.633347
      10A    -10.584610    11A     -8.100510    12A     -8.098049
      13A     -8.097695    14A     -8.051262    15A     -8.049523
      16A     -8.049366    17A     -1.445313    18A     -1.369189
      19A     -1.226302    20A     -1.149837    21A     -1.093244
      22A     -0.958137    23A     -0.800524    24A     -0.773459
      25A     -0.704876    26A     -0.685622    27A     -0.674300
      28A     -0.654135    29A     -0.638530    30A     -0.616569
      31A     -0.570419    32A     -0.561865    33A     -0.530551
      34A     -0.506998    35A     -0.476719    36A     -0.475678
      37A     -0.468835    38A     -0.462495    39A     -0.455614

  @DF-RHF Final Energy: -1222.63958602215030

   => Energetics <=

    Nuclear Repulsion Energy =            470.3247799557789790
    One-Electron Energy =               -2619.2758400123370848
    Two-Electron Energy =                 926.3114740344076381
    Total Energy =                      -1222.6395860221505245
  Basis Set: (AUG-CC-PVTZ AUX)
    Blend: AUG-CC-PVTZ-RI
    Molecular point group: c1

    Geometry (in Angstrom), charge = 0, multiplicity = 1:

       Center              X                  Y                   Z               Mass
    ------------   -----------------  -----------------  -----------------  -----------------
         CL          -3.362976551551     0.463392149548     0.000039430367    34.968852682000
         CL           3.389515448449    -0.479753850452    -0.000050569633    34.968852682000
         O           -1.852934551551    -1.678560850452    -0.000200569633    15.994914619570
         O            1.879474448449     1.662200149548     0.000205430367    15.994914619570
         C           -0.623113551551     0.408580149548     0.000052430367    12.000000000000
         C            0.649652448449    -0.424940850452    -0.000042569633    12.000000000000
         C           -2.010888451551    -0.370169750452    -0.000048469633    12.000000000000
         C            1.867180448449     0.458765149548     0.000062430367    12.000000000000
         H           -0.671677551551     1.068229149548    -0.872550569633     1.007825032230
         H           -0.671684551551     1.068018149548     0.872815430367     1.007825032230
         H            0.698220448449    -1.084382850452    -0.872802569633     1.007825032230
         H            0.698217448449    -1.084586850452     0.872563430367     1.007825032230

  Basis Set: AUG-CC-PVTZ
    Blend: AUG-CC-PVTZ
  Basis Set: (AUG-CC-PVTZ AUX)
    Blend: AUG-CC-PVTZ-JKFIT
	 Reference Energy          =   -1222.6395860221502971 [Eh]
	 Singles Energy            =      -0.0000000000000000 [Eh]
	 Same-Spin Energy          =      -0.4294298731554232 [Eh]
	 Opposite-Spin Energy      =      -1.2765691653750200 [Eh]
	 Correlation Energy        =      -1.7059990385304431 [Eh]
	 Total Energy              =   -1224.3455850606808326 [Eh]

	 ================> DF-SCS-MP2 Energies <==================
	-----------------------------------------------------------
	 SCS Same-Spin Scale       =       0.3333333333333333 [-]
	 SCS Opposite-Spin Scale   =       1.2000000000000000 [-]
	 SCS Same-Spin Energy      =      -0.1431432910518077 [Eh]
	 SCS Opposite-Spin Energy  =      -1.5318829984500240 [Eh]
	 SCS Correlation Energy    =      -1.6750262895018317 [Eh]
	 SCS Total Energy          =   -1224.3146123116521267 [Eh]
	-----------------------------------------------------------

  Dipole Moment: [D]
     X:    -1.6628      Y:     0.9264      Z:     0.0001     Total:     1.9035

*** Psi4 exiting successfully. Buy a developer a beer!
