                               Psi4 1.4a3.dev225

  ==> Input File <==

--------------------------------------------------------------------------
#psi4
#
memory 32 gb

molecule  {
0 1
 Cl       -3.3762460     0.4715730     0.0000400
 Cl        3.3762460    -0.4715730    -0.0000500
  O       -1.8662040    -1.6703800    -0.0002000
  O        1.8662050     1.6703810     0.0002060
  C       -0.6363830     0.4167610     0.0000530
  C        0.6363830    -0.4167600    -0.0000420
  C       -1.7687876    -0.5194246    -0.0000645
  C        1.8539110     0.4669460     0.0000630
  H       -0.6849470     1.0764100    -0.8725500
  H       -0.6849540     1.0761990     0.8728160
  H        0.6849510    -1.0762020    -0.8728020
  H        0.6849480    -1.0764060     0.8725640
units angstrom
no_reorient  #important for SAPT in psi4, default
symmetry c1  #important for SAPT in psi4, default
}

set PROPERTIES_ORIGIN ["COM"]
properties('MP2/aug-cc-pvtz', properties = ['dipole'])
--------------------------------------------------------------------------

    Molecular point group: c1
  Charge       = 0
  Multiplicity = 1
  Basis Set: AUG-CC-PVTZ
    Blend: AUG-CC-PVTZ
  Basis Set: (AUG-CC-PVTZ AUX)
    Blend: AUG-CC-PVTZ-JKFIT

    Orbital Energies [Eh]
    ---------------------

    Doubly Occupied:

       1A   -104.868767     2A   -104.838548     3A    -20.625567
       4A    -20.612302     5A    -11.431688     6A    -11.431234
       7A    -11.298380     8A    -11.297644     9A    -10.593182
      10A    -10.562772    11A     -8.059828    12A     -8.058084
      13A     -8.057926    14A     -8.029254    15A     -8.027774
      16A     -8.027673    17A     -1.497848    18A     -1.455777
      19A     -1.165194    20A     -1.139371    21A     -1.097106
      22A     -0.984732    23A     -0.797651    24A     -0.794349
      25A     -0.730401    26A     -0.710805    27A     -0.697757
      28A     -0.664336    29A     -0.660246    30A     -0.637329
      31A     -0.585158    32A     -0.583771    33A     -0.549804
      34A     -0.492380    35A     -0.484224    36A     -0.475432
      37A     -0.464597    38A     -0.459396    39A     -0.456411

  @DF-RHF Final Energy: -1222.68541561460597

   => Energetics <=

    Nuclear Repulsion Energy =            470.6250641989619226
    One-Electron Energy =               -2619.8115544072379635
    Two-Electron Energy =                 926.5010745936701824
    Total Energy =                      -1222.6854156146059722
  Basis Set: (AUG-CC-PVTZ AUX)
    Blend: AUG-CC-PVTZ-RI
    Molecular point group: c1

    Geometry (in Angstrom), charge = 0, multiplicity = 1:

       Center              X                  Y                   Z               Mass
    ------------   -----------------  -----------------  -----------------  -----------------
         CL          -3.382880856525     0.475663146554     0.000040724219    34.968852682000
         CL           3.369611143475    -0.467482853446    -0.000049275781    34.968852682000
         O           -1.872838856525    -1.666289853446    -0.000199275781    15.994914619570
         O            1.859570143475     1.674471146554     0.000206724219    15.994914619570
         C           -0.643017856525     0.420851146554     0.000053724219    12.000000000000
         C            0.629748143475    -0.412669853446    -0.000041275781    12.000000000000
         C           -1.775422456525    -0.515334453446    -0.000063775781    12.000000000000
         C            1.847276143475     0.471036146554     0.000063724219    12.000000000000
         H           -0.691581856525     1.080500146554    -0.872549275781     1.007825032230
         H           -0.691588856525     1.080289146554     0.872816724219     1.007825032230
         H            0.678316143475    -1.072111853446    -0.872801275781     1.007825032230
         H            0.678313143475    -1.072315853446     0.872564724219     1.007825032230

  Basis Set: AUG-CC-PVTZ
    Blend: AUG-CC-PVTZ
  Basis Set: (AUG-CC-PVTZ AUX)
    Blend: AUG-CC-PVTZ-JKFIT
	 Reference Energy          =   -1222.6854156146059722 [Eh]
	 Singles Energy            =      -0.0000000000000000 [Eh]
	 Same-Spin Energy          =      -0.4250589747082582 [Eh]
	 Opposite-Spin Energy      =      -1.2673572162548981 [Eh]
	 Correlation Energy        =      -1.6924161909631563 [Eh]
	 Total Energy              =   -1224.3778318055690306 [Eh]

	 ================> DF-SCS-MP2 Energies <==================
	-----------------------------------------------------------
	 SCS Same-Spin Scale       =       0.3333333333333333 [-]
	 SCS Opposite-Spin Scale   =       1.2000000000000000 [-]
	 SCS Same-Spin Energy      =      -0.1416863249027527 [Eh]
	 SCS Opposite-Spin Energy  =      -1.5208286595058775 [Eh]
	 SCS Correlation Energy    =      -1.6625149844086302 [Eh]
	 SCS Total Energy          =   -1224.3479305990144894 [Eh]
	-----------------------------------------------------------

  Dipole Moment: [D]
     X:     1.0070      Y:    -0.5598      Z:    -0.0000     Total:     1.1521

*** Psi4 exiting successfully. Buy a developer a beer!
