                               Psi4 1.4a3.dev225

  ==> Input File <==

--------------------------------------------------------------------------
#psi4
#
memory 32 gb

molecule  {
0 1
 Cl       -3.3762460     0.4715730     0.0000400
 Cl        3.3762460    -0.4715730    -0.0000500
  O       -1.8662040    -1.6703800    -0.0002000
  O        1.8662050     1.6703810     0.0002060
  C       -0.6363830     0.4167610     0.0000530
  C        0.6363830    -0.4167600    -0.0000420
  C       -1.8534003    -0.4169486    -0.0000531
  C        1.8539110     0.4669460     0.0000630
  H       -0.6849470     1.0764100    -0.8725500
  H       -0.6849540     1.0761990     0.8728160
  H        0.6849510    -1.0762020    -0.8728020
  H        0.6849480    -1.0764060     0.8725640
units angstrom
no_reorient  #important for SAPT in psi4, default
symmetry c1  #important for SAPT in psi4, default
}

set PROPERTIES_ORIGIN ["COM"]
properties('MP2/aug-cc-pvtz', properties = ['dipole'])
--------------------------------------------------------------------------

    Molecular point group: c1
  Charge       = 0
  Multiplicity = 1
  Basis Set: AUG-CC-PVTZ
    Blend: AUG-CC-PVTZ
  Basis Set: (AUG-CC-PVTZ AUX)
    Blend: AUG-CC-PVTZ-JKFIT

    Orbital Energies [Eh]
    ---------------------

    Doubly Occupied:

       1A   -104.874155     2A   -104.865216     3A    -20.607786
       4A    -20.600105     5A    -11.430426     6A    -11.427485
       7A    -11.291866     8A    -11.290889     9A    -10.598510
      10A    -10.589636    11A     -8.065214    12A     -8.063396
      13A     -8.063214    14A     -8.056285    15A     -8.054543
      16A     -8.054384    17A     -1.451557    18A     -1.415054
      19A     -1.168027    20A     -1.154114    21A     -1.110008
      22A     -0.982784    23A     -0.794732    24A     -0.782081
      25A     -0.712242    26A     -0.700072    27A     -0.686570
      28A     -0.650728    29A     -0.648790    30A     -0.620980
      31A     -0.571918    32A     -0.564251    33A     -0.535671
      34A     -0.497864    35A     -0.480598    36A     -0.479591
      37A     -0.479168    38A     -0.471721    39A     -0.467290

  @DF-RHF Final Energy: -1222.67848532697008

   => Energetics <=

    Nuclear Repulsion Energy =            470.2959559191654648
    One-Electron Energy =               -2619.2310350519728672
    Two-Electron Energy =                 926.2565938058374968
    Total Energy =                      -1222.6784853269700761
  Basis Set: (AUG-CC-PVTZ AUX)
    Blend: AUG-CC-PVTZ-RI
    Molecular point group: c1

    Geometry (in Angstrom), charge = 0, multiplicity = 1:

       Center              X                  Y                   Z               Mass
    ------------   -----------------  -----------------  -----------------  -----------------
         CL          -3.376285896244     0.467675868642     0.000039835670    34.968852682000
         CL           3.376206103756    -0.475470131358    -0.000050164330    34.968852682000
         O           -1.866243896244    -1.674277131358    -0.000200164330    15.994914619570
         O            1.866165103756     1.666483868642     0.000205835670    15.994914619570
         C           -0.636422896244     0.412863868642     0.000052835670    12.000000000000
         C            0.636343103756    -0.420657131358    -0.000042164330    12.000000000000
         C           -1.853440196244    -0.420845731358    -0.000053264330    12.000000000000
         C            1.853871103756     0.463048868642     0.000062835670    12.000000000000
         H           -0.684986896244     1.072512868642    -0.872550164330     1.007825032230
         H           -0.684993896244     1.072301868642     0.872815835670     1.007825032230
         H            0.684911103756    -1.080099131358    -0.872802164330     1.007825032230
         H            0.684908103756    -1.080303131358     0.872563835670     1.007825032230

  Basis Set: AUG-CC-PVTZ
    Blend: AUG-CC-PVTZ
  Basis Set: (AUG-CC-PVTZ AUX)
    Blend: AUG-CC-PVTZ-JKFIT
	 Reference Energy          =   -1222.6784853269700761 [Eh]
	 Singles Energy            =      -0.0000000000000000 [Eh]
	 Same-Spin Energy          =      -0.4271789869741738 [Eh]
	 Opposite-Spin Energy      =      -1.2723091136413927 [Eh]
	 Correlation Energy        =      -1.6994881006155664 [Eh]
	 Total Energy              =   -1224.3779734275856299 [Eh]

	 ================> DF-SCS-MP2 Energies <==================
	-----------------------------------------------------------
	 SCS Same-Spin Scale       =       0.3333333333333333 [-]
	 SCS Opposite-Spin Scale   =       1.2000000000000000 [-]
	 SCS Same-Spin Energy      =      -0.1423929956580579 [Eh]
	 SCS Opposite-Spin Energy  =      -1.5267709363696711 [Eh]
	 SCS Correlation Energy    =      -1.6691639320277289 [Eh]
	 SCS Total Energy          =   -1224.3476492589977624 [Eh]
	-----------------------------------------------------------

  Dipole Moment: [D]
     X:    -0.1693      Y:     0.3092      Z:     0.0000     Total:     0.3525

*** Psi4 exiting successfully. Buy a developer a beer!
