                               Psi4 1.4a3.dev225

  ==> Input File <==

--------------------------------------------------------------------------
#psi4
#
memory 32 gb

molecule  {
0 1
 Cl       -3.3762460     0.4715730     0.0000400
 Cl        3.3762460    -0.4715730    -0.0000500
  O       -1.8662040    -1.6703800    -0.0002000
  O        1.8662050     1.6703810     0.0002060
  C       -0.6363830     0.4167610     0.0000530
  C        0.5844884    -0.4807735    -0.1363118
  C       -1.8539110    -0.4669460    -0.0000590
  C        1.8539110     0.4669460     0.0000630
  H       -0.6849470     1.0764100    -0.8725500
  H       -0.6849540     1.0761990     0.8728160
  H        0.6849510    -1.0762020    -0.8728020
  H        0.6849480    -1.0764060     0.8725640
units angstrom
no_reorient  #important for SAPT in psi4, default
symmetry c1  #important for SAPT in psi4, default
}

set PROPERTIES_ORIGIN ["COM"]
properties('MP2/aug-cc-pvtz', properties = ['dipole'])
--------------------------------------------------------------------------

    Molecular point group: c1
  Charge       = 0
  Multiplicity = 1
  Basis Set: AUG-CC-PVTZ
    Blend: AUG-CC-PVTZ
  Basis Set: (AUG-CC-PVTZ AUX)
    Blend: AUG-CC-PVTZ-JKFIT

    Orbital Energies [Eh]
    ---------------------

    Doubly Occupied:

       1A   -104.864185     2A   -104.864182     3A    -20.609102
       4A    -20.607906     5A    -11.429438     6A    -11.426660
       7A    -11.294293     8A    -11.293470     9A    -10.588680
      10A    -10.588637    11A     -8.055324    12A     -8.055275
      13A     -8.053596    14A     -8.053544    15A     -8.053436
      16A     -8.053376    17A     -1.452213    18A     -1.450114
      19A     -1.159759    20A     -1.148257    21A     -1.106651
      22A     -0.971287    23A     -0.793467    24A     -0.789747
      25A     -0.715893    26A     -0.703297    27A     -0.688371
      28A     -0.657318    29A     -0.644294    30A     -0.627717
      31A     -0.594500    32A     -0.570476    33A     -0.534372
      34A     -0.491161    35A     -0.480550    36A     -0.479951
      37A     -0.477127    38A     -0.467011    39A     -0.456218

  @DF-RHF Final Energy: -1222.65813793580287

   => Energetics <=

    Nuclear Repulsion Energy =            469.6450594416237436
    One-Electron Energy =               -2617.9046905984828300
    Two-Electron Energy =                 925.6014932210559891
    Total Energy =                      -1222.6581379358030972
  Basis Set: (AUG-CC-PVTZ AUX)
    Blend: AUG-CC-PVTZ-RI
    Molecular point group: c1

    Geometry (in Angstrom), charge = 0, multiplicity = 1:

       Center              X                  Y                   Z               Mass
    ------------   -----------------  -----------------  -----------------  -----------------
         CL          -3.372201274526     0.476562210256     0.010661560645    34.968852682000
         CL           3.380290725474    -0.466583789744     0.010571560645    34.968852682000
         O           -1.862159274526    -1.665390789744     0.010421560645    15.994914619570
         O            1.870249725474     1.675370210256     0.010827560645    15.994914619570
         C           -0.632338274526     0.421750210256     0.010674560645    12.000000000000
         C            0.588533125474    -0.475784289744    -0.125690239355    12.000000000000
         C           -1.849866274526    -0.461956789744     0.010562560645    12.000000000000
         C            1.857955725474     0.471935210256     0.010684560645    12.000000000000
         H           -0.680902274526     1.081399210256    -0.861928439355     1.007825032230
         H           -0.680909274526     1.081188210256     0.883437560645     1.007825032230
         H            0.688995725474    -1.071212789744    -0.862180439355     1.007825032230
         H            0.688992725474    -1.071416789744     0.883185560645     1.007825032230

  Basis Set: AUG-CC-PVTZ
    Blend: AUG-CC-PVTZ
  Basis Set: (AUG-CC-PVTZ AUX)
    Blend: AUG-CC-PVTZ-JKFIT
	 Reference Energy          =   -1222.6581379358028698 [Eh]
	 Singles Energy            =      -0.0000000000000000 [Eh]
	 Same-Spin Energy          =      -0.4257775162746881 [Eh]
	 Opposite-Spin Energy      =      -1.2701407952230044 [Eh]
	 Correlation Energy        =      -1.6959183114976923 [Eh]
	 Total Energy              =   -1224.3540562473006048 [Eh]

	 ================> DF-SCS-MP2 Energies <==================
	-----------------------------------------------------------
	 SCS Same-Spin Scale       =       0.3333333333333333 [-]
	 SCS Opposite-Spin Scale   =       1.2000000000000000 [-]
	 SCS Same-Spin Energy      =      -0.1419258387582293 [Eh]
	 SCS Opposite-Spin Energy  =      -1.5241689542676051 [Eh]
	 SCS Correlation Energy    =      -1.6660947930258345 [Eh]
	 SCS Total Energy          =   -1224.3242327288287470 [Eh]
	-----------------------------------------------------------

  Dipole Moment: [D]
     X:     0.0543      Y:     0.0696      Z:    -0.0586     Total:     0.1060

*** Psi4 exiting successfully. Buy a developer a beer!
