                               Psi4 1.4a3.dev225

  ==> Input File <==

--------------------------------------------------------------------------
#psi4
#
memory 32 gb

molecule  {
0 1
 Cl       -3.3762460     0.4715730     0.0000400
 Cl        3.3762460    -0.4715730    -0.0000500
  O       -1.8662040    -1.6703800    -0.0002000
  O        1.8662050     1.6703810     0.0002060
  C       -0.6363830     0.4167610     0.0000530
  C        0.6363830    -0.4167600    -0.0000420
  C       -1.8539110    -0.4669460    -0.0000590
  C        2.0157700     0.5844265     0.0000770
  H       -0.6849470     1.0764100    -0.8725500
  H       -0.6849540     1.0761990     0.8728160
  H        0.6849510    -1.0762020    -0.8728020
  H        0.6849480    -1.0764060     0.8725640
units angstrom
no_reorient  #important for SAPT in psi4, default
symmetry c1  #important for SAPT in psi4, default
}

set PROPERTIES_ORIGIN ["COM"]
properties('MP2/aug-cc-pvtz', properties = ['dipole'])
--------------------------------------------------------------------------

    Molecular point group: c1
  Charge       = 0
  Multiplicity = 1
  Basis Set: AUG-CC-PVTZ
    Blend: AUG-CC-PVTZ
  Basis Set: (AUG-CC-PVTZ AUX)
    Blend: AUG-CC-PVTZ-JKFIT

    Orbital Energies [Eh]
    ---------------------

    Doubly Occupied:

       1A   -104.872049     2A   -104.859245     3A    -20.613234
       4A    -20.600749     5A    -11.420493     6A    -11.413188
       7A    -11.281158     8A    -11.278019     9A    -10.597832
      10A    -10.583770    11A     -8.064589    12A     -8.062598
      13A     -8.062418    14A     -8.050419    15A     -8.048692
      16A     -8.048536    17A     -1.532104    18A     -1.444289
      19A     -1.171637    20A     -1.148808    21A     -1.086377
      22A     -0.935108    23A     -0.794242    24A     -0.775476
      25A     -0.722542    26A     -0.704454    27A     -0.688397
      28A     -0.664899    29A     -0.658709    30A     -0.646832
      31A     -0.579370    32A     -0.566622    33A     -0.532478
      34A     -0.496716    35A     -0.494593    36A     -0.478700
      37A     -0.474876    38A     -0.463109    39A     -0.426034

  @DF-RHF Final Energy: -1222.65670634241928

   => Energetics <=

    Nuclear Repulsion Energy =            470.4788553046281550
    One-Electron Energy =               -2619.5844031330543658
    Two-Electron Energy =                 926.4488414860068133
    Total Energy =                      -1222.6567063424192838
  Basis Set: (AUG-CC-PVTZ AUX)
    Blend: AUG-CC-PVTZ-RI
    Molecular point group: c1

    Geometry (in Angstrom), charge = 0, multiplicity = 1:

       Center              X                  Y                   Z               Mass
    ------------   -----------------  -----------------  -----------------  -----------------
         CL          -3.388861852690     0.462416039276     0.000039204332    34.968852682000
         CL           3.363630147310    -0.480729960724    -0.000050795668    34.968852682000
         O           -1.878819852690    -1.679536960724    -0.000200795668    15.994914619570
         O            1.853589147310     1.661224039276     0.000205204332    15.994914619570
         C           -0.648998852690     0.407604039276     0.000052204332    12.000000000000
         C            0.623767147310    -0.425916960724    -0.000042795668    12.000000000000
         C           -1.866526852690    -0.476102960724    -0.000059795668    12.000000000000
         C            2.003154147310     0.575269539276     0.000076204332    12.000000000000
         H           -0.697562852690     1.067253039276    -0.872550795668     1.007825032230
         H           -0.697569852690     1.067042039276     0.872815204332     1.007825032230
         H            0.672335147310    -1.085358960724    -0.872802795668     1.007825032230
         H            0.672332147310    -1.085562960724     0.872563204332     1.007825032230

  Basis Set: AUG-CC-PVTZ
    Blend: AUG-CC-PVTZ
  Basis Set: (AUG-CC-PVTZ AUX)
    Blend: AUG-CC-PVTZ-JKFIT
	 Reference Energy          =   -1222.6567063424192838 [Eh]
	 Singles Energy            =      -0.0000000000000000 [Eh]
	 Same-Spin Energy          =      -0.4231776904898223 [Eh]
	 Opposite-Spin Energy      =      -1.2638926194446172 [Eh]
	 Correlation Energy        =      -1.6870703099344395 [Eh]
	 Total Energy              =   -1224.3437766523536538 [Eh]

	 ================> DF-SCS-MP2 Energies <==================
	-----------------------------------------------------------
	 SCS Same-Spin Scale       =       0.3333333333333333 [-]
	 SCS Opposite-Spin Scale   =       1.2000000000000000 [-]
	 SCS Same-Spin Energy      =      -0.1410592301632741 [Eh]
	 SCS Opposite-Spin Energy  =      -1.5166711433335405 [Eh]
	 SCS Correlation Energy    =      -1.6577303734968145 [Eh]
	 SCS Total Energy          =   -1224.3144367159161447 [Eh]
	-----------------------------------------------------------

  Dipole Moment: [D]
     X:     1.0723      Y:     0.4930      Z:     0.0001     Total:     1.1802

*** Psi4 exiting successfully. Buy a developer a beer!
