                               Psi4 1.4a3.dev225

  ==> Input File <==

--------------------------------------------------------------------------
#psi4
#
memory 32 gb

molecule  {
0 1
 Cl       -3.3762460     0.4715730     0.0000400
 Cl        3.3762460    -0.4715730    -0.0000500
  O       -1.8662040    -1.6703800    -0.0002000
  O        1.8662050     1.6703810     0.0002060
  C       -0.6363830     0.4167610     0.0000530
  C        0.6363830    -0.4167600    -0.0000420
  C       -1.8539110    -0.4669460    -0.0000590
  C        1.8539110     0.4669460     0.0000630
  H       -0.6849470     1.0764100    -0.8725500
  H       -0.6849540     1.0761990     0.8728160
  H        0.6849510    -1.0762020    -0.8728020
  H        0.6871657    -1.1065280     0.9124106
units angstrom
no_reorient  #important for SAPT in psi4, default
symmetry c1  #important for SAPT in psi4, default
}

set PROPERTIES_ORIGIN ["COM"]
properties('MP2/aug-cc-pvtz', properties = ['dipole'])
--------------------------------------------------------------------------

    Molecular point group: c1
  Charge       = 0
  Multiplicity = 1
  Basis Set: AUG-CC-PVTZ
    Blend: AUG-CC-PVTZ
  Basis Set: (AUG-CC-PVTZ AUX)
    Blend: AUG-CC-PVTZ-JKFIT

    Orbital Energies [Eh]
    ---------------------

    Doubly Occupied:

       1A   -104.865242     2A   -104.865020     3A    -20.607924
       4A    -20.607835     5A    -11.427670     6A    -11.427497
       7A    -11.296847     8A    -11.291875     9A    -10.589676
      10A    -10.589453    11A     -8.056324    12A     -8.056102
      13A     -8.054584    14A     -8.054426    15A     -8.054361
      16A     -8.054203    17A     -1.452286    18A     -1.450777
      19A     -1.161164    20A     -1.150322    21A     -1.105318
      22A     -0.974458    23A     -0.793670    24A     -0.781458
      25A     -0.716001    26A     -0.697064    27A     -0.689801
      28A     -0.656602    29A     -0.652642    30A     -0.623158
      31A     -0.574019    32A     -0.569958    33A     -0.537142
      34A     -0.493559    35A     -0.481080    36A     -0.480046
      37A     -0.477790    38A     -0.468073    39A     -0.466331

  @DF-RHF Final Energy: -1222.68586723686235

   => Energetics <=

    Nuclear Repulsion Energy =            470.1105730283800312
    One-Electron Energy =               -2618.8893686192614041
    Two-Electron Energy =                 926.0929283540194774
    Total Energy =                      -1222.6858672368621228
  Basis Set: (AUG-CC-PVTZ AUX)
    Blend: AUG-CC-PVTZ-RI
    Molecular point group: c1

    Geometry (in Angstrom), charge = 0, multiplicity = 1:

       Center              X                  Y                   Z               Mass
    ------------   -----------------  -----------------  -----------------  -----------------
         CL          -3.376260608014     0.471769992287    -0.000220543028    34.968852682000
         CL           3.376231391986    -0.471376007713    -0.000310543028    34.968852682000
         O           -1.866218608014    -1.670183007713    -0.000460543028    15.994914619570
         O            1.866190391986     1.670577992287    -0.000054543028    15.994914619570
         C           -0.636397608014     0.416957992287    -0.000207543028    12.000000000000
         C            0.636368391986    -0.416563007713    -0.000302543028    12.000000000000
         C           -1.853925608014    -0.466749007713    -0.000319543028    12.000000000000
         C            1.853896391986     0.467142992287    -0.000197543028    12.000000000000
         H           -0.684961608014     1.076606992287    -0.872810543028     1.007825032230
         H           -0.684968608014     1.076395992287     0.872555456972     1.007825032230
         H            0.684936391986    -1.076005007713    -0.873062543028     1.007825032230
         H            0.687151091986    -1.106331007713     0.912150056972     1.007825032230

  Basis Set: AUG-CC-PVTZ
    Blend: AUG-CC-PVTZ
  Basis Set: (AUG-CC-PVTZ AUX)
    Blend: AUG-CC-PVTZ-JKFIT
	 Reference Energy          =   -1222.6858672368623502 [Eh]
	 Singles Energy            =      -0.0000000000000000 [Eh]
	 Same-Spin Energy          =      -0.4257569129330493 [Eh]
	 Opposite-Spin Energy      =      -1.2695117580445434 [Eh]
	 Correlation Energy        =      -1.6952686709775926 [Eh]
	 Total Energy              =   -1224.3811359078399619 [Eh]

	 ================> DF-SCS-MP2 Energies <==================
	-----------------------------------------------------------
	 SCS Same-Spin Scale       =       0.3333333333333333 [-]
	 SCS Opposite-Spin Scale   =       1.2000000000000000 [-]
	 SCS Same-Spin Energy      =      -0.1419189709776831 [Eh]
	 SCS Opposite-Spin Energy  =      -1.5234141096534521 [Eh]
	 SCS Correlation Energy    =      -1.6653330806311353 [Eh]
	 SCS Total Energy          =   -1224.3512003174935217 [Eh]
	-----------------------------------------------------------

  Dipole Moment: [D]
     X:    -0.0094      Y:    -0.0034      Z:     0.0034     Total:     0.0106

*** Psi4 exiting successfully. Buy a developer a beer!
