                               Psi4 1.4a3.dev225

  ==> Input File <==

--------------------------------------------------------------------------
#psi4
#
memory 32 gb

molecule  {
0 1
 Cl       -3.3762460     0.4715730     0.0000400
 Cl        3.3762460    -0.4715730    -0.0000500
  O       -1.8662040    -1.6703800    -0.0002000
  O        1.8662050     1.6703810     0.0002060
  C       -0.6363830     0.4167610     0.0000530
  C        0.6363830    -0.4167600    -0.0000420
  C       -1.8544217    -0.5169434    -0.0000649
  C        1.8539110     0.4669460     0.0000630
  H       -0.6849470     1.0764100    -0.8725500
  H       -0.6849540     1.0761990     0.8728160
  H        0.6849510    -1.0762020    -0.8728020
  H        0.6849480    -1.0764060     0.8725640
units angstrom
no_reorient  #important for SAPT in psi4, default
symmetry c1  #important for SAPT in psi4, default
}

set PROPERTIES_ORIGIN ["COM"]
properties('MP2/aug-cc-pvtz', properties = ['dipole'])
--------------------------------------------------------------------------

    Molecular point group: c1
  Charge       = 0
  Multiplicity = 1
  Basis Set: AUG-CC-PVTZ
    Blend: AUG-CC-PVTZ
  Basis Set: (AUG-CC-PVTZ AUX)
    Blend: AUG-CC-PVTZ-JKFIT

    Orbital Energies [Eh]
    ---------------------

    Doubly Occupied:

       1A   -104.865333     2A   -104.855242     3A    -20.615943
       4A    -20.608127     5A    -11.427673     6A    -11.424013
       7A    -11.292504     8A    -11.291531     9A    -10.589780
      10A    -10.579821    11A     -8.056428    12A     -8.054689
      13A     -8.054531    14A     -8.046412    15A     -8.044752
      16A     -8.044616    17A     -1.491802    18A     -1.451679
      19A     -1.159049    20A     -1.142956    21A     -1.103025
      22A     -0.969964    23A     -0.794213    24A     -0.785964
      25A     -0.723030    26A     -0.700607    27A     -0.694321
      28A     -0.662328    29A     -0.658627    30A     -0.632554
      31A     -0.580694    32A     -0.577199    33A     -0.543234
      34A     -0.490646    35A     -0.481026    36A     -0.477471
      37A     -0.475541    38A     -0.468066    39A     -0.458252

  @DF-RHF Final Energy: -1222.68975198419071

   => Energetics <=

    Nuclear Repulsion Energy =            470.4817292544744305
    One-Electron Energy =               -2619.5956800595231471
    Two-Electron Energy =                 926.4241988208580096
    Total Energy =                      -1222.6897519841907069
  Basis Set: (AUG-CC-PVTZ AUX)
    Blend: AUG-CC-PVTZ-RI
    Molecular point group: c1

    Geometry (in Angstrom), charge = 0, multiplicity = 1:

       Center              X                  Y                   Z               Mass
    ------------   -----------------  -----------------  -----------------  -----------------
         CL          -3.376206285353     0.475469754599     0.000040755396    34.968852682000
         CL           3.376285714647    -0.467676245401    -0.000049244604    34.968852682000
         O           -1.866164285353    -1.666483245401    -0.000199244604    15.994914619570
         O            1.866244714647     1.674277754599     0.000206755396    15.994914619570
         C           -0.636343285353     0.420657754599     0.000053755396    12.000000000000
         C            0.636422714647    -0.412863245401    -0.000041244604    12.000000000000
         C           -1.854381985353    -0.513046645401    -0.000064144604    12.000000000000
         C            1.853950714647     0.470842754599     0.000063755396    12.000000000000
         H           -0.684907285353     1.080306754599    -0.872549244604     1.007825032230
         H           -0.684914285353     1.080095754599     0.872816755396     1.007825032230
         H            0.684990714647    -1.072305245401    -0.872801244604     1.007825032230
         H            0.684987714647    -1.072509245401     0.872564755396     1.007825032230

  Basis Set: AUG-CC-PVTZ
    Blend: AUG-CC-PVTZ
  Basis Set: (AUG-CC-PVTZ AUX)
    Blend: AUG-CC-PVTZ-JKFIT
	 Reference Energy          =   -1222.6897519841907069 [Eh]
	 Singles Energy            =      -0.0000000000000000 [Eh]
	 Same-Spin Energy          =      -0.4242829612384925 [Eh]
	 Opposite-Spin Energy      =      -1.2661437487637206 [Eh]
	 Correlation Energy        =      -1.6904267100022130 [Eh]
	 Total Energy              =   -1224.3801786941928640 [Eh]

	 ================> DF-SCS-MP2 Energies <==================
	-----------------------------------------------------------
	 SCS Same-Spin Scale       =       0.3333333333333333 [-]
	 SCS Opposite-Spin Scale   =       1.2000000000000000 [-]
	 SCS Same-Spin Energy      =      -0.1414276537461642 [Eh]
	 SCS Opposite-Spin Energy  =      -1.5193724985164647 [Eh]
	 SCS Correlation Energy    =      -1.6608001522626288 [Eh]
	 SCS Total Energy          =   -1224.3505521364534161 [Eh]
	-----------------------------------------------------------

  Dipole Moment: [D]
     X:     0.1922      Y:    -0.3452      Z:    -0.0000     Total:     0.3951

*** Psi4 exiting successfully. Buy a developer a beer!
