                               Psi4 1.4a3.dev225

  ==> Input File <==

--------------------------------------------------------------------------
#psi4
#
memory 32 gb

molecule  {
0 1
 Cl       -3.3762460     0.4715730     0.0000400
 Cl        3.3762460    -0.4715730    -0.0000500
  O       -1.8662040    -1.6703800    -0.0002000
  O        1.8662050     1.6703810     0.0002060
  C       -0.6363830     0.4167610     0.0000530
  C        0.6363830    -0.4167600    -0.0000420
  C       -1.8559539    -0.6669356    -0.0000824
  C        1.8539110     0.4669460     0.0000630
  H       -0.6849470     1.0764100    -0.8725500
  H       -0.6849540     1.0761990     0.8728160
  H        0.6849510    -1.0762020    -0.8728020
  H        0.6849480    -1.0764060     0.8725640
units angstrom
no_reorient  #important for SAPT in psi4, default
symmetry c1  #important for SAPT in psi4, default
}

set PROPERTIES_ORIGIN ["COM"]
properties('MP2/aug-cc-pvtz', properties = ['dipole'])
--------------------------------------------------------------------------

    Molecular point group: c1
  Charge       = 0
  Multiplicity = 1
  Basis Set: AUG-CC-PVTZ
    Blend: AUG-CC-PVTZ
  Basis Set: (AUG-CC-PVTZ AUX)
    Blend: AUG-CC-PVTZ-JKFIT

    Orbital Energies [Eh]
    ---------------------

    Doubly Occupied:

       1A   -104.866585     2A   -104.819263     3A    -20.642768
       4A    -20.609754     5A    -11.429143     6A    -11.409821
       7A    -11.296817     8A    -11.293538     9A    -10.591062
      10A    -10.544633    11A     -8.057707    12A     -8.055971
      13A     -8.055815    14A     -8.011050    15A     -8.009649
      16A     -8.009571    17A     -1.629960    18A     -1.453008
      19A     -1.158681    20A     -1.117661    21A     -1.086987
      22A     -0.953812    23A     -0.815126    24A     -0.793504
      25A     -0.760894    26A     -0.733895    27A     -0.712991
      28A     -0.679412    29A     -0.676095    30A     -0.665213
      31A     -0.594170    32A     -0.581486    33A     -0.546399
      34A     -0.488578    35A     -0.482200    36A     -0.472620
      37A     -0.455525    38A     -0.453200    39A     -0.423041

  @DF-RHF Final Energy: -1222.61548152103614

   => Energetics <=

    Nuclear Repulsion Energy =            471.3789801456787814
    One-Electron Energy =               -2621.1137202079180497
    Two-Electron Energy =                 927.1192585412032940
    Total Energy =                      -1222.6154815210361448
  Basis Set: (AUG-CC-PVTZ AUX)
    Blend: AUG-CC-PVTZ-RI
    Molecular point group: c1

    Geometry (in Angstrom), charge = 0, multiplicity = 1:

       Center              X                  Y                   Z               Mass
    ------------   -----------------  -----------------  -----------------  -----------------
         CL          -3.376086861223     0.487160583535     0.000042119397    34.968852682000
         CL           3.376405138777    -0.455985416465    -0.000047880603    34.968852682000
         O           -1.866044861223    -1.654792416465    -0.000197880603    15.994914619570
         O            1.866364138777     1.685968583535     0.000208119397    15.994914619570
         C           -0.636223861223     0.432348583535     0.000055119397    12.000000000000
         C            0.636542138777    -0.401172416465    -0.000039880603    12.000000000000
         C           -1.855794761223    -0.651348016465    -0.000080280603    12.000000000000
         C            1.854070138777     0.482533583535     0.000065119397    12.000000000000
         H           -0.684787861223     1.091997583535    -0.872547880603     1.007825032230
         H           -0.684794861223     1.091786583535     0.872818119397     1.007825032230
         H            0.685110138777    -1.060614416465    -0.872799880603     1.007825032230
         H            0.685107138777    -1.060818416465     0.872566119397     1.007825032230

  Basis Set: AUG-CC-PVTZ
    Blend: AUG-CC-PVTZ
  Basis Set: (AUG-CC-PVTZ AUX)
    Blend: AUG-CC-PVTZ-JKFIT
	 Reference Energy          =   -1222.6154815210361448 [Eh]
	 Singles Energy            =      -0.0000000000000000 [Eh]
	 Same-Spin Energy          =      -0.4203294561646405 [Eh]
	 Opposite-Spin Energy      =      -1.2577250147506907 [Eh]
	 Correlation Energy        =      -1.6780544709153311 [Eh]
	 Total Energy              =   -1224.2935359919515577 [Eh]

	 ================> DF-SCS-MP2 Energies <==================
	-----------------------------------------------------------
	 SCS Same-Spin Scale       =       0.3333333333333333 [-]
	 SCS Opposite-Spin Scale   =       1.2000000000000000 [-]
	 SCS Same-Spin Energy      =      -0.1401098187215468 [Eh]
	 SCS Opposite-Spin Energy  =      -1.5092700177008287 [Eh]
	 SCS Correlation Energy    =      -1.6493798364223755 [Eh]
	 SCS Total Energy          =   -1224.2648613574585852 [Eh]
	-----------------------------------------------------------

  Dipole Moment: [D]
     X:     0.8881      Y:    -1.5361      Z:    -0.0002     Total:     1.7744

*** Psi4 exiting successfully. Buy a developer a beer!
