                               Psi4 1.4a3.dev225

  ==> Input File <==

--------------------------------------------------------------------------
#psi4
#
memory 32 gb

molecule  {
0 1
 Cl       -3.2698045     0.6255590     0.0000588
 Cl        3.3762460    -0.4715730    -0.0000500
  O       -1.8662040    -1.6703800    -0.0002000
  O        1.8662050     1.6703810     0.0002060
  C       -0.6363830     0.4167610     0.0000530
  C        0.6363830    -0.4167600    -0.0000420
  C       -1.8539110    -0.4669460    -0.0000590
  C        1.8539110     0.4669460     0.0000630
  H       -0.6849470     1.0764100    -0.8725500
  H       -0.6849540     1.0761990     0.8728160
  H        0.6849510    -1.0762020    -0.8728020
  H        0.6849480    -1.0764060     0.8725640
units angstrom
no_reorient  #important for SAPT in psi4, default
symmetry c1  #important for SAPT in psi4, default
}

set PROPERTIES_ORIGIN ["COM"]
properties('MP2/aug-cc-pvtz', properties = ['dipole'])
--------------------------------------------------------------------------

    Molecular point group: c1
  Charge       = 0
  Multiplicity = 1
  Basis Set: AUG-CC-PVTZ
    Blend: AUG-CC-PVTZ
  Basis Set: (AUG-CC-PVTZ AUX)
    Blend: AUG-CC-PVTZ-JKFIT

    Orbital Energies [Eh]
    ---------------------

    Doubly Occupied:

       1A   -104.867282     2A   -104.864002     3A    -20.612858
       4A    -20.606700     5A    -11.429536     6A    -11.426140
       7A    -11.289142     8A    -11.287724     9A    -10.591887
      10A    -10.588460    11A     -8.058521    12A     -8.056777
      13A     -8.056618    14A     -8.055108    15A     -8.053372
      16A     -8.053214    17A     -1.453488    18A     -1.450166
      19A     -1.166561    20A     -1.151968    21A     -1.103222
      22A     -0.973519    23A     -0.794182    24A     -0.783315
      25A     -0.714762    26A     -0.698707    27A     -0.691784
      28A     -0.658597    29A     -0.651396    30A     -0.624519
      31A     -0.575087    32A     -0.570715    33A     -0.539155
      34A     -0.492570    35A     -0.484402    36A     -0.480491
      37A     -0.479464    38A     -0.469057    39A     -0.462116

  @DF-RHF Final Energy: -1222.68435228572048

   => Energetics <=

    Nuclear Repulsion Energy =            471.7489700313989260
    One-Electron Energy =               -2622.1334763148470302
    Two-Electron Energy =                 927.7001539977276252
    Total Energy =                      -1222.6843522857202515
  Basis Set: (AUG-CC-PVTZ AUX)
    Blend: AUG-CC-PVTZ-RI
    Molecular point group: c1

    Geometry (in Angstrom), charge = 0, multiplicity = 1:

       Center              X                  Y                   Z               Mass
    ------------   -----------------  -----------------  -----------------  -----------------
         CL          -3.293980774902     0.590583788859     0.000054825467    34.968852682000
         CL           3.352069725098    -0.506548211141    -0.000053974533    34.968852682000
         O           -1.890380274902    -1.705355211141    -0.000203974533    15.994914619570
         O            1.842028725098     1.635405788859     0.000202025467    15.994914619570
         C           -0.660559274902     0.381785788859     0.000049025467    12.000000000000
         C            0.612206725098    -0.451735211141    -0.000045974533    12.000000000000
         C           -1.878087274902    -0.501921211141    -0.000062974533    12.000000000000
         C            1.829734725098     0.431970788859     0.000059025467    12.000000000000
         H           -0.709123274902     1.041434788859    -0.872553974533     1.007825032230
         H           -0.709130274902     1.041223788859     0.872812025467     1.007825032230
         H            0.660774725098    -1.111177211141    -0.872805974533     1.007825032230
         H            0.660771725098    -1.111381211141     0.872560025467     1.007825032230

  Basis Set: AUG-CC-PVTZ
    Blend: AUG-CC-PVTZ
  Basis Set: (AUG-CC-PVTZ AUX)
    Blend: AUG-CC-PVTZ-JKFIT
	 Reference Energy          =   -1222.6843522857204789 [Eh]
	 Singles Energy            =      -0.0000000000000000 [Eh]
	 Same-Spin Energy          =      -0.4262422976197133 [Eh]
	 Opposite-Spin Energy      =      -1.2700417784274394 [Eh]
	 Correlation Energy        =      -1.6962840760471527 [Eh]
	 Total Energy              =   -1224.3806363617675288 [Eh]

	 ================> DF-SCS-MP2 Energies <==================
	-----------------------------------------------------------
	 SCS Same-Spin Scale       =       0.3333333333333333 [-]
	 SCS Opposite-Spin Scale   =       1.2000000000000000 [-]
	 SCS Same-Spin Energy      =      -0.1420807658732378 [Eh]
	 SCS Opposite-Spin Energy  =      -1.5240501341129271 [Eh]
	 SCS Correlation Energy    =      -1.6661308999861648 [Eh]
	 SCS Total Energy          =   -1224.3504831857067074 [Eh]
	-----------------------------------------------------------

  Dipole Moment: [D]
     X:    -0.1481      Y:    -0.0796      Z:     0.0000     Total:     0.1682

*** Psi4 exiting successfully. Buy a developer a beer!
