                               Psi4 1.4a3.dev225

  ==> Input File <==

--------------------------------------------------------------------------
#psi4
#
memory 32 gb

molecule  {
0 1
 Cl       -3.3762460     0.4715730     0.0000400
 Cl        3.3762460    -0.4715730    -0.0000500
  O       -1.8662040    -1.6703800    -0.0002000
  O        1.8662050     1.6703810     0.0002060
  C       -0.6363830     0.4167610     0.0000530
  C        0.6363830    -0.4167600    -0.0000420
  C       -1.8539110    -0.4669460    -0.0000590
  C        1.8700969     0.4786940     0.0000644
  H       -0.6849470     1.0764100    -0.8725500
  H       -0.6849540     1.0761990     0.8728160
  H        0.6849510    -1.0762020    -0.8728020
  H        0.6849480    -1.0764060     0.8725640
units angstrom
no_reorient  #important for SAPT in psi4, default
symmetry c1  #important for SAPT in psi4, default
}

set PROPERTIES_ORIGIN ["COM"]
properties('MP2/aug-cc-pvtz', properties = ['dipole'])
--------------------------------------------------------------------------

    Molecular point group: c1
  Charge       = 0
  Multiplicity = 1
  Basis Set: AUG-CC-PVTZ
    Blend: AUG-CC-PVTZ
  Basis Set: (AUG-CC-PVTZ AUX)
    Blend: AUG-CC-PVTZ-JKFIT

    Orbital Energies [Eh]
    ---------------------

    Doubly Occupied:

       1A   -104.865689     2A   -104.864650     3A    -20.608300
       4A    -20.607225     5A    -11.426859     6A    -11.425721
       7A    -11.291050     8A    -11.290343     9A    -10.590283
      10A    -10.589093    11A     -8.056942    12A     -8.055741
      13A     -8.055184    14A     -8.055023    15A     -8.054002
      16A     -8.053844    17A     -1.459690    18A     -1.450815
      19A     -1.161168    20A     -1.151061    21A     -1.104604
      22A     -0.971847    23A     -0.793504    24A     -0.782860
      25A     -0.716579    26A     -0.698131    27A     -0.690285
      28A     -0.658884    29A     -0.653625    30A     -0.624810
      31A     -0.574432    32A     -0.573331    33A     -0.540100
      34A     -0.492916    35A     -0.482232    36A     -0.479990
      37A     -0.478432    38A     -0.468098    39A     -0.464004

  @DF-RHF Final Energy: -1222.68923723632929

   => Energetics <=

    Nuclear Repulsion Energy =            470.3587461099830307
    One-Electron Energy =               -2619.3732641310916733
    Two-Electron Energy =                 926.3252807847791246
    Total Energy =                      -1222.6892372363292907
  Basis Set: (AUG-CC-PVTZ AUX)
    Blend: AUG-CC-PVTZ-RI
    Molecular point group: c1

    Geometry (in Angstrom), charge = 0, multiplicity = 1:

       Center              X                  Y                   Z               Mass
    ------------   -----------------  -----------------  -----------------  -----------------
         CL          -3.377507666988     0.470657138283     0.000040186413    34.968852682000
         CL           3.374984333012    -0.472488861717    -0.000049813587    34.968852682000
         O           -1.867465666988    -1.671295861717    -0.000199813587    15.994914619570
         O            1.864943333012     1.669465138283     0.000206186413    15.994914619570
         C           -0.637644666988     0.415845138283     0.000053186413    12.000000000000
         C            0.635121333012    -0.417675861717    -0.000041813587    12.000000000000
         C           -1.855172666988    -0.467861861717    -0.000058813587    12.000000000000
         C            1.868835233012     0.477778138283     0.000064586413    12.000000000000
         H           -0.686208666988     1.075494138283    -0.872549813587     1.007825032230
         H           -0.686215666988     1.075283138283     0.872816186413     1.007825032230
         H            0.683689333012    -1.077117861717    -0.872801813587     1.007825032230
         H            0.683686333012    -1.077321861717     0.872564186413     1.007825032230

  Basis Set: AUG-CC-PVTZ
    Blend: AUG-CC-PVTZ
  Basis Set: (AUG-CC-PVTZ AUX)
    Blend: AUG-CC-PVTZ-JKFIT
	 Reference Energy          =   -1222.6892372363292907 [Eh]
	 Singles Energy            =      -0.0000000000000000 [Eh]
	 Same-Spin Energy          =      -0.4252466319521051 [Eh]
	 Opposite-Spin Energy      =      -1.2682525012892119 [Eh]
	 Correlation Energy        =      -1.6934991332413170 [Eh]
	 Total Energy              =   -1224.3827363695706936 [Eh]

	 ================> DF-SCS-MP2 Energies <==================
	-----------------------------------------------------------
	 SCS Same-Spin Scale       =       0.3333333333333333 [-]
	 SCS Opposite-Spin Scale   =       1.2000000000000000 [-]
	 SCS Same-Spin Energy      =      -0.1417488773173683 [Eh]
	 SCS Opposite-Spin Energy  =      -1.5219030015470543 [Eh]
	 SCS Correlation Energy    =      -1.6636518788644226 [Eh]
	 SCS Total Energy          =   -1224.3528891151936477 [Eh]
	-----------------------------------------------------------

  Dipole Moment: [D]
     X:     0.0996      Y:     0.0429      Z:     0.0000     Total:     0.1085

*** Psi4 exiting successfully. Buy a developer a beer!
