                               Psi4 1.4a3.dev225

  ==> Input File <==

--------------------------------------------------------------------------
#psi4
#
memory 32 gb

molecule  {
0 1
 Cl       -3.3762460     0.4715730     0.0000400
 Cl        3.3762460    -0.4715730    -0.0000500
  O       -1.8662040    -1.6703800    -0.0002000
  O        1.8662050     1.6703810     0.0002060
  C       -0.6363830     0.4167610     0.0000530
  C        0.6363830    -0.4167600    -0.0000420
  C       -1.8539110    -0.4669460    -0.0000590
  C        1.8539110     0.4669460     0.0000630
  H       -0.6849470     1.0764100    -0.8725500
  H       -0.6849540     1.0761990     0.8728160
  H        0.6840639    -1.0641569    -0.8568606
  H        0.6849480    -1.0764060     0.8725640
units angstrom
no_reorient  #important for SAPT in psi4, default
symmetry c1  #important for SAPT in psi4, default
}

set PROPERTIES_ORIGIN ["COM"]
properties('MP2/aug-cc-pvtz', properties = ['dipole'])
--------------------------------------------------------------------------

    Molecular point group: c1
  Charge       = 0
  Multiplicity = 1
  Basis Set: AUG-CC-PVTZ
    Blend: AUG-CC-PVTZ
  Basis Set: (AUG-CC-PVTZ AUX)
    Blend: AUG-CC-PVTZ-JKFIT

    Orbital Energies [Eh]
    ---------------------

    Doubly Occupied:

       1A   -104.865292     2A   -104.865202     3A    -20.607914
       4A    -20.607889     5A    -11.427518     6A    -11.427457
       7A    -11.291509     8A    -11.289370     9A    -10.589726
      10A    -10.589636    11A     -8.056374    12A     -8.056284
      13A     -8.054634    14A     -8.054544    15A     -8.054476
      16A     -8.054386    17A     -1.452320    18A     -1.450800
      19A     -1.162064    20A     -1.150564    21A     -1.107056
      22A     -0.977073    23A     -0.794033    24A     -0.784745
      25A     -0.716358    26A     -0.700954    27A     -0.690051
      28A     -0.657185    29A     -0.653398    30A     -0.624631
      31A     -0.575648    32A     -0.571617    33A     -0.541333
      34A     -0.493593    35A     -0.481160    36A     -0.480247
      37A     -0.477966    38A     -0.468272    39A     -0.466245

  @DF-RHF Final Energy: -1222.68821716966386

   => Energetics <=

    Nuclear Repulsion Energy =            470.4583019323883946
    One-Electron Energy =               -2619.5539971819571292
    Two-Electron Energy =                 926.4074780799049904
    Total Energy =                      -1222.6882171696638579
  Basis Set: (AUG-CC-PVTZ AUX)
    Blend: AUG-CC-PVTZ-RI
    Molecular point group: c1

    Geometry (in Angstrom), charge = 0, multiplicity = 1:

       Center              X                  Y                   Z               Mass
    ------------   -----------------  -----------------  -----------------  -----------------
         CL          -3.376240283782     0.471493963574    -0.000064057958    34.968852682000
         CL           3.376251716218    -0.471652036426    -0.000154057958    34.968852682000
         O           -1.866198283782    -1.670459036426    -0.000304057958    15.994914619570
         O            1.866210716218     1.670301963574     0.000101942042    15.994914619570
         C           -0.636377283782     0.416681963574    -0.000051057958    12.000000000000
         C            0.636388716218    -0.416839036426    -0.000146057958    12.000000000000
         C           -1.853905283782    -0.467025036426    -0.000163057958    12.000000000000
         C            1.853916716218     0.466866963574    -0.000041057958    12.000000000000
         H           -0.684941283782     1.076330963574    -0.872654057958     1.007825032230
         H           -0.684948283782     1.076119963574     0.872711942042     1.007825032230
         H            0.684069616218    -1.064235936426    -0.856964657958     1.007825032230
         H            0.684953716218    -1.076485036426     0.872459942042     1.007825032230

  Basis Set: AUG-CC-PVTZ
    Blend: AUG-CC-PVTZ
  Basis Set: (AUG-CC-PVTZ AUX)
    Blend: AUG-CC-PVTZ-JKFIT
	 Reference Energy          =   -1222.6882171696638579 [Eh]
	 Singles Energy            =      -0.0000000000000000 [Eh]
	 Same-Spin Energy          =      -0.4256409343016316 [Eh]
	 Opposite-Spin Energy      =      -1.2689794816454116 [Eh]
	 Correlation Energy        =      -1.6946204159470433 [Eh]
	 Total Energy              =   -1224.3828375856110142 [Eh]

	 ================> DF-SCS-MP2 Energies <==================
	-----------------------------------------------------------
	 SCS Same-Spin Scale       =       0.3333333333333333 [-]
	 SCS Opposite-Spin Scale   =       1.2000000000000000 [-]
	 SCS Same-Spin Energy      =      -0.1418803114338772 [Eh]
	 SCS Opposite-Spin Energy  =      -1.5227753779744939 [Eh]
	 SCS Correlation Energy    =      -1.6646556894083711 [Eh]
	 SCS Total Energy          =   -1224.3528728590722494 [Eh]
	-----------------------------------------------------------

  Dipole Moment: [D]
     X:     0.0038      Y:     0.0017      Z:     0.0017     Total:     0.0045

*** Psi4 exiting successfully. Buy a developer a beer!
