                               Psi4 1.4a3.dev225

  ==> Input File <==

--------------------------------------------------------------------------
#psi4
#
memory 32 gb

molecule  {
0 1
 Cl       -3.3762460     0.4715730     0.0000400
 Cl        3.3762460    -0.4715730    -0.0000500
  O       -1.8662040    -1.6703800    -0.0002000
  O        1.8662050     1.6703810     0.0002060
  C       -0.6363830     0.4167610     0.0000530
  C        0.6363830    -0.4167600    -0.0000420
  C       -1.9348405    -0.5256863    -0.0000664
  C        1.8539110     0.4669460     0.0000630
  H       -0.6849470     1.0764100    -0.8725500
  H       -0.6849540     1.0761990     0.8728160
  H        0.6849510    -1.0762020    -0.8728020
  H        0.6849480    -1.0764060     0.8725640
units angstrom
no_reorient  #important for SAPT in psi4, default
symmetry c1  #important for SAPT in psi4, default
}

set PROPERTIES_ORIGIN ["COM"]
properties('MP2/aug-cc-pvtz', properties = ['dipole'])
--------------------------------------------------------------------------

    Molecular point group: c1
  Charge       = 0
  Multiplicity = 1
  Basis Set: AUG-CC-PVTZ
    Blend: AUG-CC-PVTZ
  Basis Set: (AUG-CC-PVTZ AUX)
    Blend: AUG-CC-PVTZ-JKFIT

    Orbital Energies [Eh]
    ---------------------

    Doubly Occupied:

       1A   -104.867877     2A   -104.862386     3A    -20.609934
       4A    -20.604519     5A    -11.424217     6A    -11.419016
       7A    -11.286936     8A    -11.286252     9A    -10.593070
      10A    -10.586863    11A     -8.059774    12A     -8.057929
      13A     -8.057758    14A     -8.053511    15A     -8.051777
      16A     -8.051620    17A     -1.492002    18A     -1.448115
      19A     -1.162912    20A     -1.151683    21A     -1.096465
      22A     -0.954744    23A     -0.792752    24A     -0.779595
      25A     -0.718179    26A     -0.694394    27A     -0.692466
      28A     -0.664386    29A     -0.655423    30A     -0.631438
      31A     -0.579141    32A     -0.571446    33A     -0.537626
      34A     -0.492200    35A     -0.487680    36A     -0.480265
      37A     -0.477895    38A     -0.466383    39A     -0.450743

  @DF-RHF Final Energy: -1222.68384401259800

   => Energetics <=

    Nuclear Repulsion Energy =            470.3989673581449438
    One-Electron Energy =               -2619.4628796228689680
    Two-Electron Energy =                 926.3800682521259660
    Total Energy =                      -1222.6838440125980014
  Basis Set: (AUG-CC-PVTZ AUX)
    Blend: AUG-CC-PVTZ-RI
    Molecular point group: c1

    Geometry (in Angstrom), charge = 0, multiplicity = 1:

       Center              X                  Y                   Z               Mass
    ------------   -----------------  -----------------  -----------------  -----------------
         CL          -3.369938209853     0.476151201689     0.000040872311    34.968852682000
         CL           3.382553790147    -0.466994798311    -0.000049127689    34.968852682000
         O           -1.859896209853    -1.665801798311    -0.000199127689    15.994914619570
         O            1.872512790147     1.674959201689     0.000206872311    15.994914619570
         C           -0.630075209853     0.421339201689     0.000053872311    12.000000000000
         C            0.642690790147    -0.412181798311    -0.000041127689    12.000000000000
         C           -1.928532709853    -0.521108098311    -0.000065527689    12.000000000000
         C            1.860218790147     0.471524201689     0.000063872311    12.000000000000
         H           -0.678639209853     1.080988201689    -0.872549127689     1.007825032230
         H           -0.678646209853     1.080777201689     0.872816872311     1.007825032230
         H            0.691258790147    -1.071623798311    -0.872801127689     1.007825032230
         H            0.691255790147    -1.071827798311     0.872564872311     1.007825032230

  Basis Set: AUG-CC-PVTZ
    Blend: AUG-CC-PVTZ
  Basis Set: (AUG-CC-PVTZ AUX)
    Blend: AUG-CC-PVTZ-JKFIT
	 Reference Energy          =   -1222.6838440125980014 [Eh]
	 Singles Energy            =      -0.0000000000000000 [Eh]
	 Same-Spin Energy          =      -0.4239446313676567 [Eh]
	 Opposite-Spin Energy      =      -1.2655681962203886 [Eh]
	 Correlation Energy        =      -1.6895128275880453 [Eh]
	 Total Energy              =   -1224.3733568401860339 [Eh]

	 ================> DF-SCS-MP2 Energies <==================
	-----------------------------------------------------------
	 SCS Same-Spin Scale       =       0.3333333333333333 [-]
	 SCS Opposite-Spin Scale   =       1.2000000000000000 [-]
	 SCS Same-Spin Energy      =      -0.1413148771225522 [Eh]
	 SCS Opposite-Spin Energy  =      -1.5186818354644662 [Eh]
	 SCS Correlation Energy    =      -1.6599967125870185 [Eh]
	 SCS Total Energy          =   -1224.3438407251849185 [Eh]
	-----------------------------------------------------------

  Dipole Moment: [D]
     X:    -0.5073      Y:    -0.2267      Z:    -0.0000     Total:     0.5556

*** Psi4 exiting successfully. Buy a developer a beer!
