                               Psi4 1.4a3.dev225

  ==> Input File <==

--------------------------------------------------------------------------
#psi4
#
memory 32 gb

molecule  {
0 1
 Cl       -3.3762460     0.4715730     0.0000400
 Cl        3.3762460    -0.4715730    -0.0000500
  O       -1.9081958    -1.6692179    -0.0002002
  O        1.8662050     1.6703810     0.0002060
  C       -0.6363830     0.4167610     0.0000530
  C        0.6363830    -0.4167600    -0.0000420
  C       -1.8539110    -0.4669460    -0.0000590
  C        1.8539110     0.4669460     0.0000630
  H       -0.6849470     1.0764100    -0.8725500
  H       -0.6849540     1.0761990     0.8728160
  H        0.6849510    -1.0762020    -0.8728020
  H        0.6849480    -1.0764060     0.8725640
units angstrom
no_reorient  #important for SAPT in psi4, default
symmetry c1  #important for SAPT in psi4, default
}

set PROPERTIES_ORIGIN ["COM"]
properties('MP2/aug-cc-pvtz', properties = ['dipole'])
--------------------------------------------------------------------------

    Molecular point group: c1
  Charge       = 0
  Multiplicity = 1
  Basis Set: AUG-CC-PVTZ
    Blend: AUG-CC-PVTZ
  Basis Set: (AUG-CC-PVTZ AUX)
    Blend: AUG-CC-PVTZ-JKFIT

    Orbital Energies [Eh]
    ---------------------

    Doubly Occupied:

       1A   -104.865935     2A   -104.862343     3A    -20.608770
       4A    -20.607839     5A    -11.428414     6A    -11.427683
       7A    -11.293637     8A    -11.292727     9A    -10.590362
      10A    -10.586927    11A     -8.057010    12A     -8.055268
      13A     -8.055110    14A     -8.053571    15A     -8.051838
      16A     -8.051684    17A     -1.452800    18A     -1.451078
      19A     -1.162019    20A     -1.149728    21A     -1.107196
      22A     -0.977372    23A     -0.793971    24A     -0.784868
      25A     -0.716532    26A     -0.700738    27A     -0.690128
      28A     -0.656795    29A     -0.654427    30A     -0.624846
      31A     -0.576384    32A     -0.572166    33A     -0.541234
      34A     -0.493999    35A     -0.481429    36A     -0.478431
      37A     -0.477046    38A     -0.467961    39A     -0.465925

  @DF-RHF Final Energy: -1222.68801901142388

   => Energetics <=

    Nuclear Repulsion Energy =            470.1671053786631660
    One-Electron Energy =               -2618.9778609616337235
    Two-Electron Energy =                 926.1227365715467386
    Total Energy =                      -1222.6880190114238758
  Basis Set: (AUG-CC-PVTZ AUX)
    Blend: AUG-CC-PVTZ-RI
    Molecular point group: c1

    Geometry (in Angstrom), charge = 0, multiplicity = 1:

       Center              X                  Y                   Z               Mass
    ------------   -----------------  -----------------  -----------------  -----------------
         CL          -3.371883526891     0.471452080060     0.000040316311    34.968852682000
         CL           3.380608473109    -0.471693919940    -0.000049683689    34.968852682000
         O           -1.903833326891    -1.669338819940    -0.000199883689    15.994914619570
         O            1.870567473109     1.670260080060     0.000206316311    15.994914619570
         C           -0.632020526891     0.416640080060     0.000053316311    12.000000000000
         C            0.640745473109    -0.416880919940    -0.000041683689    12.000000000000
         C           -1.849548526891    -0.467066919940    -0.000058683689    12.000000000000
         C            1.858273473109     0.466825080060     0.000063316311    12.000000000000
         H           -0.680584526891     1.076289080060    -0.872549683689     1.007825032230
         H           -0.680591526891     1.076078080060     0.872816316311     1.007825032230
         H            0.689313473109    -1.076322919940    -0.872801683689     1.007825032230
         H            0.689310473109    -1.076526919940     0.872564316311     1.007825032230

  Basis Set: AUG-CC-PVTZ
    Blend: AUG-CC-PVTZ
  Basis Set: (AUG-CC-PVTZ AUX)
    Blend: AUG-CC-PVTZ-JKFIT
	 Reference Energy          =   -1222.6880190114238758 [Eh]
	 Singles Energy            =      -0.0000000000000000 [Eh]
	 Same-Spin Energy          =      -0.4256329206444296 [Eh]
	 Opposite-Spin Energy      =      -1.2690267061293488 [Eh]
	 Correlation Energy        =      -1.6946596267737783 [Eh]
	 Total Energy              =   -1224.3826786381976035 [Eh]

	 ================> DF-SCS-MP2 Energies <==================
	-----------------------------------------------------------
	 SCS Same-Spin Scale       =       0.3333333333333333 [-]
	 SCS Opposite-Spin Scale   =       1.2000000000000000 [-]
	 SCS Same-Spin Energy      =      -0.1418776402148099 [Eh]
	 SCS Opposite-Spin Energy  =      -1.5228320473552184 [Eh]
	 SCS Correlation Energy    =      -1.6647096875700282 [Eh]
	 SCS Total Energy          =   -1224.3527286989938148 [Eh]
	-----------------------------------------------------------

  Dipole Moment: [D]
     X:     0.1317      Y:    -0.0124      Z:     0.0000     Total:     0.1323

*** Psi4 exiting successfully. Buy a developer a beer!
