                               Psi4 1.4a3.dev225

  ==> Input File <==

--------------------------------------------------------------------------
#psi4
#
memory 32 gb

molecule  {
0 1
 Cl       -3.3762460     0.4715730     0.0000400
 Cl        3.3762460    -0.4715730    -0.0000500
  O       -1.7822267    -1.6683060    -0.0001992
  O        1.8662050     1.6703810     0.0002060
  C       -0.6363830     0.4167610     0.0000530
  C        0.6363830    -0.4167600    -0.0000420
  C       -1.8539110    -0.4669460    -0.0000590
  C        1.8539110     0.4669460     0.0000630
  H       -0.6849470     1.0764100    -0.8725500
  H       -0.6849540     1.0761990     0.8728160
  H        0.6849510    -1.0762020    -0.8728020
  H        0.6849480    -1.0764060     0.8725640
units angstrom
no_reorient  #important for SAPT in psi4, default
symmetry c1  #important for SAPT in psi4, default
}

set PROPERTIES_ORIGIN ["COM"]
properties('MP2/aug-cc-pvtz', properties = ['dipole'])
--------------------------------------------------------------------------

    Molecular point group: c1
  Charge       = 0
  Multiplicity = 1
  Basis Set: AUG-CC-PVTZ
    Blend: AUG-CC-PVTZ
  Basis Set: (AUG-CC-PVTZ AUX)
    Blend: AUG-CC-PVTZ-JKFIT

    Orbital Energies [Eh]
    ---------------------

    Doubly Occupied:

       1A   -104.870764     2A   -104.863723     3A    -20.607867
       4A    -20.606079     5A    -11.427256     6A    -11.425627
       7A    -11.289017     8A    -11.287611     9A    -10.594915
      10A    -10.588173    11A     -8.061570    12A     -8.059811
      13A     -8.059646    14A     -8.054821    15A     -8.053084
      16A     -8.052926    17A     -1.452265    18A     -1.449523
      19A     -1.161991    20A     -1.151352    21A     -1.104748
      22A     -0.973984    23A     -0.793872    24A     -0.781329
      25A     -0.715747    26A     -0.697925    27A     -0.689832
      28A     -0.657287    29A     -0.650590    30A     -0.622950
      31A     -0.572197    32A     -0.569492    33A     -0.538362
      34A     -0.493563    35A     -0.484829    36A     -0.479965
      37A     -0.479204    38A     -0.467719    39A     -0.465688

  @DF-RHF Final Energy: -1222.68643782334857

   => Energetics <=

    Nuclear Repulsion Energy =            470.8264584320646691
    One-Electron Energy =               -2620.3111823509884744
    Two-Electron Energy =                 926.7982860955754632
    Total Energy =                      -1222.6864378233485695
  Basis Set: (AUG-CC-PVTZ AUX)
    Blend: AUG-CC-PVTZ-RI
    Molecular point group: c1

    Geometry (in Angstrom), charge = 0, multiplicity = 1:

       Center              X                  Y                   Z               Mass
    ------------   -----------------  -----------------  -----------------  -----------------
         CL          -3.384970564102     0.471357341992     0.000040212420    34.968852682000
         CL           3.367521435898    -0.471788658008    -0.000049787580    34.968852682000
         O           -1.790951264102    -1.668521658008    -0.000198987580    15.994914619570
         O            1.857480435898     1.670165341992     0.000206212420    15.994914619570
         C           -0.645107564102     0.416545341992     0.000053212420    12.000000000000
         C            0.627658435898    -0.416975658008    -0.000041787580    12.000000000000
         C           -1.862635564102    -0.467161658008    -0.000058787580    12.000000000000
         C            1.845186435898     0.466730341992     0.000063212420    12.000000000000
         H           -0.693671564102     1.076194341992    -0.872549787580     1.007825032230
         H           -0.693678564102     1.075983341992     0.872816212420     1.007825032230
         H            0.676226435898    -1.076417658008    -0.872801787580     1.007825032230
         H            0.676223435898    -1.076621658008     0.872564212420     1.007825032230

  Basis Set: AUG-CC-PVTZ
    Blend: AUG-CC-PVTZ
  Basis Set: (AUG-CC-PVTZ AUX)
    Blend: AUG-CC-PVTZ-JKFIT
	 Reference Energy          =   -1222.6864378233485695 [Eh]
	 Singles Energy            =      -0.0000000000000000 [Eh]
	 Same-Spin Energy          =      -0.4258195411115821 [Eh]
	 Opposite-Spin Energy      =      -1.2694418266943890 [Eh]
	 Correlation Energy        =      -1.6952613678059711 [Eh]
	 Total Energy              =   -1224.3816991911544392 [Eh]

	 ================> DF-SCS-MP2 Energies <==================
	-----------------------------------------------------------
	 SCS Same-Spin Scale       =       0.3333333333333333 [-]
	 SCS Opposite-Spin Scale   =       1.2000000000000000 [-]
	 SCS Same-Spin Energy      =      -0.1419398470371940 [Eh]
	 SCS Opposite-Spin Energy  =      -1.5233301920332667 [Eh]
	 SCS Correlation Energy    =      -1.6652700390704607 [Eh]
	 SCS Total Energy          =   -1224.3517078624190617 [Eh]
	-----------------------------------------------------------

  Dipole Moment: [D]
     X:    -0.2631      Y:     0.0123      Z:     0.0000     Total:     0.2634

*** Psi4 exiting successfully. Buy a developer a beer!
