                               Psi4 1.4a3.dev225

  ==> Input File <==

--------------------------------------------------------------------------
#psi4
#
memory 32 gb

molecule  {
0 1
 Cl       -3.3923936     0.4448617     0.0000368
 Cl        3.3762460    -0.4715730    -0.0000500
  O       -1.8662040    -1.6703800    -0.0002000
  O        1.8662050     1.6703810     0.0002060
  C       -0.6363830     0.4167610     0.0000530
  C        0.6363830    -0.4167600    -0.0000420
  C       -1.8539110    -0.4669460    -0.0000590
  C        1.8539110     0.4669460     0.0000630
  H       -0.6849470     1.0764100    -0.8725500
  H       -0.6849540     1.0761990     0.8728160
  H        0.6849510    -1.0762020    -0.8728020
  H        0.6849480    -1.0764060     0.8725640
units angstrom
no_reorient  #important for SAPT in psi4, default
symmetry c1  #important for SAPT in psi4, default
}

set PROPERTIES_ORIGIN ["COM"]
properties('MP2/aug-cc-pvtz', properties = ['dipole'])
--------------------------------------------------------------------------

    Molecular point group: c1
  Charge       = 0
  Multiplicity = 1
  Basis Set: AUG-CC-PVTZ
    Blend: AUG-CC-PVTZ
  Basis Set: (AUG-CC-PVTZ AUX)
    Blend: AUG-CC-PVTZ-JKFIT

    Orbital Energies [Eh]
    ---------------------

    Doubly Occupied:

       1A   -104.865404     2A   -104.864793     3A    -20.608082
       4A    -20.607056     5A    -11.427730     6A    -11.427181
       7A    -11.292419     8A    -11.291744     9A    -10.589834
      10A    -10.589209    11A     -8.056482    12A     -8.055858
      13A     -8.054742    14A     -8.054584    15A     -8.054116
      16A     -8.053959    17A     -1.452312    18A     -1.450732
      19A     -1.161302    20A     -1.149937    21A     -1.107014
      22A     -0.976686    23A     -0.793859    24A     -0.783796
      25A     -0.716463    26A     -0.699973    27A     -0.689731
      28A     -0.656658    29A     -0.653496    30A     -0.624181
      31A     -0.575036    32A     -0.571386    33A     -0.540490
      34A     -0.493781    35A     -0.481006    36A     -0.479801
      37A     -0.477678    38A     -0.467781    39A     -0.466712

  @DF-RHF Final Energy: -1222.68821618294714

   => Energetics <=

    Nuclear Repulsion Energy =            470.1665057660118805
    One-Electron Energy =               -2618.9834345925710295
    Two-Electron Energy =                 926.1287126436117205
    Total Energy =                      -1222.6882161829471443
  Basis Set: (AUG-CC-PVTZ AUX)
    Blend: AUG-CC-PVTZ-RI
    Molecular point group: c1

    Geometry (in Angstrom), charge = 0, multiplicity = 1:

       Center              X                  Y                   Z               Mass
    ------------   -----------------  -----------------  -----------------  -----------------
         CL          -3.388726067264     0.450928480861     0.000037822353    34.968852682000
         CL           3.379913532736    -0.465506219139    -0.000048977647    34.968852682000
         O           -1.862536467264    -1.664313219139    -0.000198977647    15.994914619570
         O            1.869872532736     1.676447780861     0.000207022353    15.994914619570
         C           -0.632715467264     0.422827780861     0.000054022353    12.000000000000
         C            0.640050532736    -0.410693219139    -0.000040977647    12.000000000000
         C           -1.850243467264    -0.460879219139    -0.000057977647    12.000000000000
         C            1.857578532736     0.473012780861     0.000064022353    12.000000000000
         H           -0.681279467264     1.082476780861    -0.872548977647     1.007825032230
         H           -0.681286467264     1.082265780861     0.872817022353     1.007825032230
         H            0.688618532736    -1.070135219139    -0.872800977647     1.007825032230
         H            0.688615532736    -1.070339219139     0.872565022353     1.007825032230

  Basis Set: AUG-CC-PVTZ
    Blend: AUG-CC-PVTZ
  Basis Set: (AUG-CC-PVTZ AUX)
    Blend: AUG-CC-PVTZ-JKFIT
	 Reference Energy          =   -1222.6882161829471443 [Eh]
	 Singles Energy            =      -0.0000000000000000 [Eh]
	 Same-Spin Energy          =      -0.4255965925057387 [Eh]
	 Opposite-Spin Energy      =      -1.2690040571658692 [Eh]
	 Correlation Energy        =      -1.6946006496716080 [Eh]
	 Total Energy              =   -1224.3828168326188006 [Eh]

	 ================> DF-SCS-MP2 Energies <==================
	-----------------------------------------------------------
	 SCS Same-Spin Scale       =       0.3333333333333333 [-]
	 SCS Opposite-Spin Scale   =       1.2000000000000000 [-]
	 SCS Same-Spin Energy      =      -0.1418655308352462 [Eh]
	 SCS Opposite-Spin Energy  =      -1.5228048685990430 [Eh]
	 SCS Correlation Energy    =      -1.6646703994342893 [Eh]
	 SCS Total Energy          =   -1224.3528865823814158 [Eh]
	-----------------------------------------------------------

  Dipole Moment: [D]
     X:     0.0249      Y:     0.0131      Z:     0.0000     Total:     0.0281

*** Psi4 exiting successfully. Buy a developer a beer!
