                               Psi4 1.4a3.dev225

  ==> Input File <==

--------------------------------------------------------------------------
#psi4
#
memory 32 gb

molecule  {
0 1
 Cl       -3.3762460     0.4715730     0.0000400
 Cl        3.3762460    -0.4715730    -0.0000500
  O       -1.8662040    -1.6703800    -0.0002000
  O        1.8662050     1.6703810     0.0002060
  C       -0.6363830     0.4167610     0.0000530
  C        0.6632612    -0.3689633     0.0908974
  C       -1.8539110    -0.4669460    -0.0000590
  C        1.8539110     0.4669460     0.0000630
  H       -0.6849470     1.0764100    -0.8725500
  H       -0.6849540     1.0761990     0.8728160
  H        0.6849510    -1.0762020    -0.8728020
  H        0.6849480    -1.0764060     0.8725640
units angstrom
no_reorient  #important for SAPT in psi4, default
symmetry c1  #important for SAPT in psi4, default
}

set PROPERTIES_ORIGIN ["COM"]
properties('MP2/aug-cc-pvtz', properties = ['dipole'])
--------------------------------------------------------------------------

    Molecular point group: c1
  Charge       = 0
  Multiplicity = 1
  Basis Set: AUG-CC-PVTZ
    Blend: AUG-CC-PVTZ
  Basis Set: (AUG-CC-PVTZ AUX)
    Blend: AUG-CC-PVTZ-JKFIT

    Orbital Energies [Eh]
    ---------------------

    Doubly Occupied:

       1A   -104.866298     2A   -104.865761     3A    -20.608416
       4A    -20.606090     5A    -11.428614     6A    -11.426155
       7A    -11.293410     8A    -11.292170     9A    -10.590684
      10A    -10.590146    11A     -8.057335    12A     -8.056804
      13A     -8.055586    14A     -8.055429    15A     -8.055049
      16A     -8.054897    17A     -1.452659    18A     -1.451095
      19A     -1.163711    20A     -1.151724    21A     -1.107663
      22A     -0.982139    23A     -0.797025    24A     -0.784152
      25A     -0.719200    26A     -0.696368    27A     -0.691679
      28A     -0.658606    29A     -0.656648    30A     -0.625275
      31A     -0.575673    32A     -0.567773    33A     -0.522521
      34A     -0.495134    35A     -0.481609    36A     -0.480801
      37A     -0.477466    38A     -0.470894    39A     -0.468298

  @DF-RHF Final Energy: -1222.67702530294605

   => Energetics <=

    Nuclear Repulsion Energy =            470.7635486696992189
    One-Electron Energy =               -2620.1192328601923691
    Two-Electron Energy =                 926.6786588875472717
    Total Energy =                      -1222.6770253029460491
  Basis Set: (AUG-CC-PVTZ AUX)
    Blend: AUG-CC-PVTZ-RI
    Molecular point group: c1

    Geometry (in Angstrom), charge = 0, multiplicity = 1:

       Center              X                  Y                   Z               Mass
    ------------   -----------------  -----------------  -----------------  -----------------
         CL          -3.378341055992     0.467847397609    -0.007047786173    34.968852682000
         CL           3.374150944008    -0.475298602391    -0.007137786173    34.968852682000
         O           -1.868299055992    -1.674105602391    -0.007287786173    15.994914619570
         O            1.864109944008     1.666655397609    -0.006881786173    15.994914619570
         C           -0.638478055992     0.413035397609    -0.007034786173    12.000000000000
         C            0.661166144008    -0.372688902391     0.083809613827    12.000000000000
         C           -1.856006055992    -0.470671602391    -0.007146786173    12.000000000000
         C            1.851815944008     0.463220397609    -0.007024786173    12.000000000000
         H           -0.687042055992     1.072684397609    -0.879637786173     1.007825032230
         H           -0.687049055992     1.072473397609     0.865728213827     1.007825032230
         H            0.682855944008    -1.079927602391    -0.879889786173     1.007825032230
         H            0.682852944008    -1.080131602391     0.865476213827     1.007825032230

  Basis Set: AUG-CC-PVTZ
    Blend: AUG-CC-PVTZ
  Basis Set: (AUG-CC-PVTZ AUX)
    Blend: AUG-CC-PVTZ-JKFIT
	 Reference Energy          =   -1222.6770253029460491 [Eh]
	 Singles Energy            =      -0.0000000000000000 [Eh]
	 Same-Spin Energy          =      -0.4262762915988667 [Eh]
	 Opposite-Spin Energy      =      -1.2701417546590901 [Eh]
	 Correlation Energy        =      -1.6964180462579568 [Eh]
	 Total Energy              =   -1224.3734433492040807 [Eh]

	 ================> DF-SCS-MP2 Energies <==================
	-----------------------------------------------------------
	 SCS Same-Spin Scale       =       0.3333333333333333 [-]
	 SCS Opposite-Spin Scale   =       1.2000000000000000 [-]
	 SCS Same-Spin Energy      =      -0.1420920971996222 [Eh]
	 SCS Opposite-Spin Energy  =      -1.5241701055909080 [Eh]
	 SCS Correlation Energy    =      -1.6662622027905303 [Eh]
	 SCS Total Energy          =   -1224.3432875057364981 [Eh]
	-----------------------------------------------------------

  Dipole Moment: [D]
     X:    -0.0774      Y:    -0.0415      Z:     0.0432     Total:     0.0979

*** Psi4 exiting successfully. Buy a developer a beer!
