                               Psi4 1.4a3.dev225

  ==> Input File <==

--------------------------------------------------------------------------
#psi4
#
memory 32 gb

molecule  {
0 1
 Cl       -3.3762460     0.4715730     0.0000400
 Cl        3.3762460    -0.4715730    -0.0000500
  O       -1.8662040    -1.6703800    -0.0002000
  O        1.8662050     1.6703810     0.0002060
  C       -0.6363830     0.4167610     0.0000530
  C        0.6363830    -0.4167600    -0.0000420
  C       -1.8539110    -0.4669460    -0.0000590
  C        1.8134462     0.4375759     0.0000595
  H       -0.6849470     1.0764100    -0.8725500
  H       -0.6849540     1.0761990     0.8728160
  H        0.6849510    -1.0762020    -0.8728020
  H        0.6849480    -1.0764060     0.8725640
units angstrom
no_reorient  #important for SAPT in psi4, default
symmetry c1  #important for SAPT in psi4, default
}

set PROPERTIES_ORIGIN ["COM"]
properties('MP2/aug-cc-pvtz', properties = ['dipole'])
--------------------------------------------------------------------------

    Molecular point group: c1
  Charge       = 0
  Multiplicity = 1
  Basis Set: AUG-CC-PVTZ
    Blend: AUG-CC-PVTZ
  Basis Set: (AUG-CC-PVTZ AUX)
    Blend: AUG-CC-PVTZ-JKFIT

    Orbital Energies [Eh]
    ---------------------

    Doubly Occupied:

       1A   -104.866647     2A   -104.864027     3A    -20.609586
       4A    -20.606686     5A    -11.431963     6A    -11.429170
       7A    -11.294344     8A    -11.292873     9A    -10.591059
      10A    -10.588055    11A     -8.057707    12A     -8.055964
      13A     -8.055805    14A     -8.054674    15A     -8.052972
      16A     -8.052822    17A     -1.453310    18A     -1.431384
      19A     -1.164707    20A     -1.149524    21A     -1.110492
      22A     -0.987367    23A     -0.795088    24A     -0.786100
      25A     -0.715296    26A     -0.704336    27A     -0.690208
      28A     -0.654240    29A     -0.649931    30A     -0.624239
      31A     -0.575801    32A     -0.566405    33A     -0.539262
      34A     -0.495495    35A     -0.482042    36A     -0.477774
      37A     -0.476896    38A     -0.470296    39A     -0.467088

  @DF-RHF Final Energy: -1222.68082542381489

   => Energetics <=

    Nuclear Repulsion Energy =            470.3705211907345642
    One-Electron Energy =               -2619.3594171626054958
    Two-Electron Energy =                 926.3080705480560937
    Total Energy =                      -1222.6808254238148947
  Basis Set: (AUG-CC-PVTZ AUX)
    Blend: AUG-CC-PVTZ-RI
    Molecular point group: c1

    Geometry (in Angstrom), charge = 0, multiplicity = 1:

       Center              X                  Y                   Z               Mass
    ------------   -----------------  -----------------  -----------------  -----------------
         CL          -3.373092146429     0.473862002758     0.000040568333    34.968852682000
         CL           3.379399853571    -0.469283997242    -0.000049431667    34.968852682000
         O           -1.863050146429    -1.668090997242    -0.000199431667    15.994914619570
         O            1.869358853571     1.672670002758     0.000206568333    15.994914619570
         C           -0.633229146429     0.419050002758     0.000053568333    12.000000000000
         C            0.639536853571    -0.414470997242    -0.000041431667    12.000000000000
         C           -1.850757146429    -0.464656997242    -0.000058431667    12.000000000000
         C            1.816600053571     0.439864902758     0.000060068333    12.000000000000
         H           -0.681793146429     1.078699002758    -0.872549431667     1.007825032230
         H           -0.681800146429     1.078488002758     0.872816568333     1.007825032230
         H            0.688104853571    -1.073912997242    -0.872801431667     1.007825032230
         H            0.688101853571    -1.074116997242     0.872564568333     1.007825032230

  Basis Set: AUG-CC-PVTZ
    Blend: AUG-CC-PVTZ
  Basis Set: (AUG-CC-PVTZ AUX)
    Blend: AUG-CC-PVTZ-JKFIT
	 Reference Energy          =   -1222.6808254238148947 [Eh]
	 Singles Energy            =      -0.0000000000000000 [Eh]
	 Same-Spin Energy          =      -0.4269093455176985 [Eh]
	 Opposite-Spin Energy      =      -1.2716126052099339 [Eh]
	 Correlation Energy        =      -1.6985219507276326 [Eh]
	 Total Energy              =   -1224.3793473745424762 [Eh]

	 ================> DF-SCS-MP2 Energies <==================
	-----------------------------------------------------------
	 SCS Same-Spin Scale       =       0.3333333333333333 [-]
	 SCS Opposite-Spin Scale   =       1.2000000000000000 [-]
	 SCS Same-Spin Energy      =      -0.1423031151725662 [Eh]
	 SCS Opposite-Spin Energy  =      -1.5259351262519207 [Eh]
	 SCS Correlation Energy    =      -1.6682382414244870 [Eh]
	 SCS Total Energy          =   -1224.3490636652393277 [Eh]
	-----------------------------------------------------------

  Dipole Moment: [D]
     X:    -0.2504      Y:    -0.1034      Z:    -0.0000     Total:     0.2709

*** Psi4 exiting successfully. Buy a developer a beer!
