                               Psi4 1.4a3.dev225

  ==> Input File <==

--------------------------------------------------------------------------
#psi4
#
memory 32 gb

molecule  {
0 1
 Cl       -3.3762460     0.4715730     0.0000400
 Cl        3.3762460    -0.4715730    -0.0000500
  O       -1.8662040    -1.6703800    -0.0002000
  O        1.8662050     1.6703810     0.0002060
  C       -0.6363830     0.4167610     0.0000530
  C        0.6363830    -0.4167600    -0.0000420
  C       -1.8539110    -0.4669460    -0.0000590
  C        1.8539110     0.4669460     0.0000630
  H       -0.6849470     1.0764100    -0.8725500
  H       -0.6849540     1.0761990     0.8728160
  H        0.6849510    -1.0762020    -0.8728020
  H        0.6849480    -1.0764060     0.8725640
units angstrom
no_reorient  #important for SAPT in psi4, default
symmetry c1  #important for SAPT in psi4, default
}

set PROPERTIES_ORIGIN ["COM"]
properties('MP2/aug-cc-pvtz', properties = ['dipole'])
--------------------------------------------------------------------------

    Molecular point group: c1
  Charge       = 0
  Multiplicity = 1
  Basis Set: AUG-CC-PVTZ
    Blend: AUG-CC-PVTZ
  Basis Set: (AUG-CC-PVTZ AUX)
    Blend: AUG-CC-PVTZ-JKFIT

    Orbital Energies [Eh]
    ---------------------

    Doubly Occupied:

       1A   -104.865212     2A   -104.865212     3A    -20.607892
       4A    -20.607891     5A    -11.427512     6A    -11.427510
       7A    -11.291894     8A    -11.291260     9A    -10.589646
      10A    -10.589646    11A     -8.056295    12A     -8.056294
      13A     -8.054554    14A     -8.054554    15A     -8.054396
      16A     -8.054396    17A     -1.452307    18A     -1.450792
      19A     -1.161772    20A     -1.150493    21A     -1.106508
      22A     -0.976259    23A     -0.793882    24A     -0.783736
      25A     -0.716226    26A     -0.699781    27A     -0.689995
      28A     -0.656987    29A     -0.653198    30A     -0.624209
      31A     -0.574988    32A     -0.571296    33A     -0.540280
      34A     -0.493582    35A     -0.481135    36A     -0.480192
      37A     -0.477918    38A     -0.468217    39A     -0.466265

  @DF-RHF Final Energy: -1222.68812816733703

   => Energetics <=

    Nuclear Repulsion Energy =            470.3565519390797931
    One-Electron Energy =               -2619.3609975361723627
    Two-Electron Energy =                 926.3163174297553724
    Total Energy =                      -1222.6881281673370268
  Basis Set: (AUG-CC-PVTZ AUX)
    Blend: AUG-CC-PVTZ-RI
    Molecular point group: c1

    Geometry (in Angstrom), charge = 0, multiplicity = 1:

       Center              X                  Y                   Z               Mass
    ------------   -----------------  -----------------  -----------------  -----------------
         CL          -3.376246090799     0.471572811620     0.000040295533    34.968852682000
         CL           3.376245909201    -0.471573188380    -0.000049704467    34.968852682000
         O           -1.866204090799    -1.670380188380    -0.000199704467    15.994914619570
         O            1.866204909201     1.670380811620     0.000206295533    15.994914619570
         C           -0.636383090799     0.416760811620     0.000053295533    12.000000000000
         C            0.636382909201    -0.416760188380    -0.000041704467    12.000000000000
         C           -1.853911090799    -0.466946188380    -0.000058704467    12.000000000000
         C            1.853910909201     0.466945811620     0.000063295533    12.000000000000
         H           -0.684947090799     1.076409811620    -0.872549704467     1.007825032230
         H           -0.684954090799     1.076198811620     0.872816295533     1.007825032230
         H            0.684950909201    -1.076202188380    -0.872801704467     1.007825032230
         H            0.684947909201    -1.076406188380     0.872564295533     1.007825032230

  Basis Set: AUG-CC-PVTZ
    Blend: AUG-CC-PVTZ
  Basis Set: (AUG-CC-PVTZ AUX)
    Blend: AUG-CC-PVTZ-JKFIT
	 Reference Energy          =   -1222.6881281673370268 [Eh]
	 Singles Energy            =      -0.0000000000000000 [Eh]
	 Same-Spin Energy          =      -0.4256716615471037 [Eh]
	 Opposite-Spin Energy      =      -1.2691170717512374 [Eh]
	 Correlation Energy        =      -1.6947887332983411 [Eh]
	 Total Energy              =   -1224.3829169006353368 [Eh]

	 ================> DF-SCS-MP2 Energies <==================
	-----------------------------------------------------------
	 SCS Same-Spin Scale       =       0.3333333333333333 [-]
	 SCS Opposite-Spin Scale   =       1.2000000000000000 [-]
	 SCS Same-Spin Energy      =      -0.1418905538490345 [Eh]
	 SCS Opposite-Spin Energy  =      -1.5229404861014848 [Eh]
	 SCS Correlation Energy    =      -1.6648310399505193 [Eh]
	 SCS Total Energy          =   -1224.3529592072875403 [Eh]
	-----------------------------------------------------------

  Dipole Moment: [D]
     X:    -0.0000      Y:    -0.0000      Z:     0.0000     Total:     0.0000

*** Psi4 exiting successfully. Buy a developer a beer!
