                               Psi4 1.4a3.dev225

  ==> Input File <==

--------------------------------------------------------------------------
#psi4
#
memory 32 gb

molecule  {
0 1
 Cl       -3.3762460     0.4715730     0.0000400
 Cl        3.3762460    -0.4715730    -0.0000500
  O       -1.8241973    -1.6700759    -0.0001997
  O        1.8662050     1.6703810     0.0002060
  C       -0.6363830     0.4167610     0.0000530
  C        0.6363830    -0.4167600    -0.0000420
  C       -1.8539110    -0.4669460    -0.0000590
  C        1.8539110     0.4669460     0.0000630
  H       -0.6849470     1.0764100    -0.8725500
  H       -0.6849540     1.0761990     0.8728160
  H        0.6849510    -1.0762020    -0.8728020
  H        0.6849480    -1.0764060     0.8725640
units angstrom
no_reorient  #important for SAPT in psi4, default
symmetry c1  #important for SAPT in psi4, default
}

set PROPERTIES_ORIGIN ["COM"]
properties('MP2/aug-cc-pvtz', properties = ['dipole'])
--------------------------------------------------------------------------

    Molecular point group: c1
  Charge       = 0
  Multiplicity = 1
  Basis Set: AUG-CC-PVTZ
    Blend: AUG-CC-PVTZ
  Basis Set: (AUG-CC-PVTZ AUX)
    Blend: AUG-CC-PVTZ-JKFIT

    Orbital Energies [Eh]
    ---------------------

    Doubly Occupied:

       1A   -104.868019     2A   -104.864475     3A    -20.607901
       4A    -20.606994     5A    -11.427369     6A    -11.426582
       7A    -11.290402     8A    -11.289505     9A    -10.592309
      10A    -10.588916    11A     -8.058961    12A     -8.057212
      13A     -8.057050    14A     -8.055565    15A     -8.053826
      16A     -8.053668    17A     -1.452144    18A     -1.450257
      19A     -1.161748    20A     -1.151053    21A     -1.105688
      22A     -0.975129    23A     -0.793848    24A     -0.782556
      25A     -0.715963    26A     -0.698841    27A     -0.689895
      28A     -0.657153    29A     -0.651919    30A     -0.623577
      31A     -0.573591    32A     -0.570406    33A     -0.539321
      34A     -0.493393    35A     -0.482836    36A     -0.479882
      37A     -0.479019    38A     -0.468156    39A     -0.466085

  @DF-RHF Final Energy: -1222.68760320342449

   => Energetics <=

    Nuclear Repulsion Energy =            470.5763464317904550
    One-Electron Energy =               -2619.8054703427405911
    Two-Electron Energy =                 926.5415207075253647
    Total Energy =                      -1222.6876032034247146
  Basis Set: (AUG-CC-PVTZ AUX)
    Blend: AUG-CC-PVTZ-RI
    Molecular point group: c1

    Geometry (in Angstrom), charge = 0, multiplicity = 1:

       Center              X                  Y                   Z               Mass
    ------------   -----------------  -----------------  -----------------  -----------------
         CL          -3.380610202680     0.471541218412     0.000040264366    34.968852682000
         CL           3.371881797320    -0.471604781588    -0.000049735634    34.968852682000
         O           -1.828561502680    -1.670107681588    -0.000199435634    15.994914619570
         O            1.861840797320     1.670349218412     0.000206264366    15.994914619570
         C           -0.640747202680     0.416729218412     0.000053264366    12.000000000000
         C            0.632018797320    -0.416791781588    -0.000041735634    12.000000000000
         C           -1.858275202680    -0.466977781588    -0.000058735634    12.000000000000
         C            1.849546797320     0.466914218412     0.000063264366    12.000000000000
         H           -0.689311202680     1.076378218412    -0.872549735634     1.007825032230
         H           -0.689318202680     1.076167218412     0.872816264366     1.007825032230
         H            0.680586797320    -1.076233781588    -0.872801735634     1.007825032230
         H            0.680583797320    -1.076437781588     0.872564264366     1.007825032230

  Basis Set: AUG-CC-PVTZ
    Blend: AUG-CC-PVTZ
  Basis Set: (AUG-CC-PVTZ AUX)
    Blend: AUG-CC-PVTZ-JKFIT
	 Reference Energy          =   -1222.6876032034244872 [Eh]
	 Singles Energy            =      -0.0000000000000000 [Eh]
	 Same-Spin Energy          =      -0.4257335641272799 [Eh]
	 Opposite-Spin Energy      =      -1.2692548994864001 [Eh]
	 Correlation Energy        =      -1.6949884636136801 [Eh]
	 Total Energy              =   -1224.3825916670382412 [Eh]

	 ================> DF-SCS-MP2 Energies <==================
	-----------------------------------------------------------
	 SCS Same-Spin Scale       =       0.3333333333333333 [-]
	 SCS Opposite-Spin Scale   =       1.2000000000000000 [-]
	 SCS Same-Spin Energy      =      -0.1419111880424266 [Eh]
	 SCS Opposite-Spin Energy  =      -1.5231058793836800 [Eh]
	 SCS Correlation Energy    =      -1.6650170674261067 [Eh]
	 SCS Total Energy          =   -1224.3526202708505934 [Eh]
	-----------------------------------------------------------

  Dipole Moment: [D]
     X:    -0.1317      Y:     0.0082      Z:     0.0000     Total:     0.1319

*** Psi4 exiting successfully. Buy a developer a beer!
