                               Psi4 1.4a3.dev225

  ==> Input File <==

--------------------------------------------------------------------------
#psi4
#
memory 32 gb

molecule  {
0 1
 Cl       -3.3762460     0.4715730     0.0000400
 Cl        3.3762460    -0.4715730    -0.0000500
  O       -1.8662040    -1.6703800    -0.0002000
  O        1.8662050     1.6703810     0.0002060
  C       -0.6363830     0.4167610     0.0000530
  C        0.6363830    -0.4167600    -0.0000420
  C       -1.8943757    -0.4963161    -0.0000627
  C        1.8539110     0.4669460     0.0000630
  H       -0.6849470     1.0764100    -0.8725500
  H       -0.6849540     1.0761990     0.8728160
  H        0.6849510    -1.0762020    -0.8728020
  H        0.6849480    -1.0764060     0.8725640
units angstrom
no_reorient  #important for SAPT in psi4, default
symmetry c1  #important for SAPT in psi4, default
}

set PROPERTIES_ORIGIN ["COM"]
properties('MP2/aug-cc-pvtz', properties = ['dipole'])
--------------------------------------------------------------------------

    Molecular point group: c1
  Charge       = 0
  Multiplicity = 1
  Basis Set: AUG-CC-PVTZ
    Blend: AUG-CC-PVTZ
  Basis Set: (AUG-CC-PVTZ AUX)
    Blend: AUG-CC-PVTZ-JKFIT

    Orbital Energies [Eh]
    ---------------------

    Doubly Occupied:

       1A   -104.866440     2A   -104.863810     3A    -20.608887
       4A    -20.606224     5A    -11.425882     6A    -11.423089
       7A    -11.289698     8A    -11.288860     9A    -10.591267
      10A    -10.588265    11A     -8.057944    12A     -8.056156
      13A     -8.055991    14A     -8.054914    15A     -8.053177
      16A     -8.053019    17A     -1.471793    18A     -1.449834
      19A     -1.161001    20A     -1.151730    21A     -1.101597
      22A     -0.965313    23A     -0.793067    24A     -0.781603
      25A     -0.717119    26A     -0.695831    27A     -0.691245
      28A     -0.661485    29A     -0.654208    30A     -0.626487
      31A     -0.576064    32A     -0.573432    33A     -0.539434
      34A     -0.492198    35A     -0.484273    36A     -0.479328
      37A     -0.479243    38A     -0.467616    39A     -0.459802

  @DF-RHF Final Energy: -1222.68902539148917

   => Energetics <=

    Nuclear Repulsion Energy =            470.3687634113921376
    One-Electron Energy =               -2619.4009224092255863
    Two-Electron Energy =                 926.3431336063442814
    Total Energy =                      -1222.6890253914891673
  Basis Set: (AUG-CC-PVTZ AUX)
    Blend: AUG-CC-PVTZ-RI
    Molecular point group: c1

    Geometry (in Angstrom), charge = 0, multiplicity = 1:

       Center              X                  Y                   Z               Mass
    ------------   -----------------  -----------------  -----------------  -----------------
         CL          -3.373092154223     0.473862002758     0.000040583922    34.968852682000
         CL           3.379399845777    -0.469283997242    -0.000049416078    34.968852682000
         O           -1.863050154223    -1.668090997242    -0.000199416078    15.994914619570
         O            1.869358845777     1.672670002758     0.000206583922    15.994914619570
         C           -0.633229154223     0.419050002758     0.000053583922    12.000000000000
         C            0.639536845777    -0.414470997242    -0.000041416078    12.000000000000
         C           -1.891221854223    -0.494027097242    -0.000062116078    12.000000000000
         C            1.857064845777     0.469235002758     0.000063583922    12.000000000000
         H           -0.681793154223     1.078699002758    -0.872549416078     1.007825032230
         H           -0.681800154223     1.078488002758     0.872816583922     1.007825032230
         H            0.688104845777    -1.073912997242    -0.872801416078     1.007825032230
         H            0.688101845777    -1.074116997242     0.872564583922     1.007825032230

  Basis Set: AUG-CC-PVTZ
    Blend: AUG-CC-PVTZ
  Basis Set: (AUG-CC-PVTZ AUX)
    Blend: AUG-CC-PVTZ-JKFIT
	 Reference Energy          =   -1222.6890253914891673 [Eh]
	 Singles Energy            =      -0.0000000000000000 [Eh]
	 Same-Spin Energy          =      -0.4246841213761748 [Eh]
	 Opposite-Spin Energy      =      -1.2671011090677029 [Eh]
	 Correlation Energy        =      -1.6917852304438776 [Eh]
	 Total Energy              =   -1224.3808106219330512 [Eh]

	 ================> DF-SCS-MP2 Energies <==================
	-----------------------------------------------------------
	 SCS Same-Spin Scale       =       0.3333333333333333 [-]
	 SCS Opposite-Spin Scale   =       1.2000000000000000 [-]
	 SCS Same-Spin Energy      =      -0.1415613737920582 [Eh]
	 SCS Opposite-Spin Energy  =      -1.5205213308812435 [Eh]
	 SCS Correlation Energy    =      -1.6620827046733018 [Eh]
	 SCS Total Energy          =   -1224.3511080961625339 [Eh]
	-----------------------------------------------------------

  Dipole Moment: [D]
     X:    -0.2500      Y:    -0.1093      Z:    -0.0000     Total:     0.2729

*** Psi4 exiting successfully. Buy a developer a beer!
