                               Psi4 1.4a3.dev225

  ==> Input File <==

--------------------------------------------------------------------------
#psi4
#
memory 32 gb

molecule  {
0 1
 Cl       -3.3762460     0.4715730     0.0000400
 Cl        3.3762460    -0.4715730    -0.0000500
  O       -1.8662040    -1.6703800    -0.0002000
  O        1.8662050     1.6703810     0.0002060
  C       -0.6363830     0.4167610     0.0000530
  C        0.6363830    -0.4167600    -0.0000420
  C       -1.8528896    -0.3669512    -0.0000473
  C        1.8539110     0.4669460     0.0000630
  H       -0.6849470     1.0764100    -0.8725500
  H       -0.6849540     1.0761990     0.8728160
  H        0.6849510    -1.0762020    -0.8728020
  H        0.6849480    -1.0764060     0.8725640
units angstrom
no_reorient  #important for SAPT in psi4, default
symmetry c1  #important for SAPT in psi4, default
}

set PROPERTIES_ORIGIN ["COM"]
properties('MP2/aug-cc-pvtz', properties = ['dipole'])
--------------------------------------------------------------------------

    Molecular point group: c1
  Charge       = 0
  Multiplicity = 1
  Basis Set: AUG-CC-PVTZ
    Blend: AUG-CC-PVTZ
  Basis Set: (AUG-CC-PVTZ AUX)
    Blend: AUG-CC-PVTZ-JKFIT

    Orbital Energies [Eh]
    ---------------------

    Doubly Occupied:

       1A   -104.882182     2A   -104.865331     3A    -20.607797
       4A    -20.592343     5A    -11.432821     6A    -11.427581
       7A    -11.292201     8A    -11.290603     9A    -10.606517
      10A    -10.589735    11A     -8.073275    12A     -8.071383
      13A     -8.071175    14A     -8.056385    15A     -8.054640
      16A     -8.054482    17A     -1.451651    18A     -1.382589
      19A     -1.175617    20A     -1.155594    21A     -1.113713
      22A     -0.989418    23A     -0.796119    24A     -0.780934
      25A     -0.710591    26A     -0.701085    27A     -0.684165
      28A     -0.647020    29A     -0.643076    30A     -0.620408
      31A     -0.567652    32A     -0.561068    33A     -0.531699
      34A     -0.502433    35A     -0.480696    36A     -0.480266
      37A     -0.473687    38A     -0.473252    39A     -0.465854

  @DF-RHF Final Energy: -1222.66269581256165

   => Energetics <=

    Nuclear Repulsion Energy =            470.2886094042132754
    One-Electron Energy =               -2619.1885415172246212
    Two-Electron Energy =                 926.2372363004495810
    Total Energy =                      -1222.6626958125616511
  Basis Set: (AUG-CC-PVTZ AUX)
    Blend: AUG-CC-PVTZ-RI
    Molecular point group: c1

    Geometry (in Angstrom), charge = 0, multiplicity = 1:

       Center              X                  Y                   Z               Mass
    ------------   -----------------  -----------------  -----------------  -----------------
         CL          -3.376325701690     0.463778925663     0.000039383601    34.968852682000
         CL           3.376166298310    -0.479367074337    -0.000050616399    34.968852682000
         O           -1.866283701690    -1.678174074337    -0.000200616399    15.994914619570
         O            1.866125298310     1.662586925663     0.000205383601    15.994914619570
         C           -0.636462701690     0.408966925663     0.000052383601    12.000000000000
         C            0.636303298310    -0.424554074337    -0.000042616399    12.000000000000
         C           -1.852969301690    -0.374745274337    -0.000047916399    12.000000000000
         C            1.853831298310     0.459151925663     0.000062383601    12.000000000000
         H           -0.685026701690     1.068615925663    -0.872550616399     1.007825032230
         H           -0.685033701690     1.068404925663     0.872815383601     1.007825032230
         H            0.684871298310    -1.083996074337    -0.872802616399     1.007825032230
         H            0.684868298310    -1.084200074337     0.872563383601     1.007825032230

  Basis Set: AUG-CC-PVTZ
    Blend: AUG-CC-PVTZ
  Basis Set: (AUG-CC-PVTZ AUX)
    Blend: AUG-CC-PVTZ-JKFIT
	 Reference Energy          =   -1222.6626958125616511 [Eh]
	 Singles Energy            =      -0.0000000000000000 [Eh]
	 Same-Spin Energy          =      -0.4288247568711556 [Eh]
	 Opposite-Spin Energy      =      -1.2757220250798196 [Eh]
	 Correlation Energy        =      -1.7045467819509752 [Eh]
	 Total Energy              =   -1224.3672425945126179 [Eh]

	 ================> DF-SCS-MP2 Energies <==================
	-----------------------------------------------------------
	 SCS Same-Spin Scale       =       0.3333333333333333 [-]
	 SCS Opposite-Spin Scale   =       1.2000000000000000 [-]
	 SCS Same-Spin Energy      =      -0.1429415856237185 [Eh]
	 SCS Opposite-Spin Energy  =      -1.5308664300957835 [Eh]
	 SCS Correlation Energy    =      -1.6738080157195021 [Eh]
	 SCS Total Energy          =   -1224.3365038282811383 [Eh]
	-----------------------------------------------------------

  Dipole Moment: [D]
     X:    -0.3153      Y:     0.5793      Z:     0.0001     Total:     0.6596

*** Psi4 exiting successfully. Buy a developer a beer!
