                               Psi4 1.4a3.dev225

  ==> Input File <==

--------------------------------------------------------------------------
#psi4
#
memory 32 gb

molecule  {
0 1
 Cl       -3.3762460     0.4715730     0.0000400
 Cl        3.3762460    -0.4715730    -0.0000500
  O       -1.8662040    -1.6703800    -0.0002000
  O        1.8662050     1.6703810     0.0002060
  C       -0.6363830     0.4167610     0.0000530
  C        0.6363830    -0.4167600    -0.0000420
  C       -1.8539110    -0.4669460    -0.0000590
  C        1.8539110     0.4669460     0.0000630
  H       -0.6849470     1.0764100    -0.8725500
  H       -0.6849540     1.0761990     0.8728160
  H        0.6805154    -1.0159767    -0.7930948
  H        0.6849480    -1.0764060     0.8725640
units angstrom
no_reorient  #important for SAPT in psi4, default
symmetry c1  #important for SAPT in psi4, default
}

set PROPERTIES_ORIGIN ["COM"]
properties('MP2/aug-cc-pvtz', properties = ['dipole'])
--------------------------------------------------------------------------

    Molecular point group: c1
  Charge       = 0
  Multiplicity = 1
  Basis Set: AUG-CC-PVTZ
    Blend: AUG-CC-PVTZ
  Basis Set: (AUG-CC-PVTZ AUX)
    Blend: AUG-CC-PVTZ-JKFIT

    Orbital Energies [Eh]
    ---------------------

    Doubly Occupied:

       1A   -104.865623     2A   -104.865168     3A    -20.607996
       4A    -20.607937     5A    -11.427550     6A    -11.427302
       7A    -11.291076     8A    -11.280521     9A    -10.590056
      10A    -10.589603    11A     -8.056702    12A     -8.056251
      13A     -8.054964    14A     -8.054806    15A     -8.054511
      16A     -8.054352    17A     -1.452397    18A     -1.450852
      19A     -1.163591    20A     -1.150850    21A     -1.109706
      22A     -0.980901    23A     -0.795624    24A     -0.788838
      25A     -0.717273    26A     -0.705759    27A     -0.690223
      28A     -0.658219    29A     -0.654030    30A     -0.626280
      31A     -0.579135    32A     -0.572146    33A     -0.544599
      34A     -0.493648    35A     -0.481279    36A     -0.480443
      37A     -0.478151    38A     -0.468480    39A     -0.466197

  @DF-RHF Final Energy: -1222.68239286645894

   => Energetics <=

    Nuclear Repulsion Energy =            470.8871771936852042
    One-Electron Energy =               -2620.3530672343254082
    Two-Electron Energy =                 926.7834971741813206
    Total Energy =                      -1222.6823928664589403
  Basis Set: (AUG-CC-PVTZ AUX)
    Blend: AUG-CC-PVTZ-RI
    Molecular point group: c1

    Geometry (in Angstrom), charge = 0, multiplicity = 1:

       Center              X                  Y                   Z               Mass
    ------------   -----------------  -----------------  -----------------  -----------------
         CL          -3.376217055059     0.471178572699    -0.000481473234    34.968852682000
         CL           3.376274944941    -0.471967427301    -0.000571473234    34.968852682000
         O           -1.866175055059    -1.670774427301    -0.000721473234    15.994914619570
         O            1.866233944941     1.669986572699    -0.000315473234    15.994914619570
         C           -0.636354055059     0.416366572699    -0.000468473234    12.000000000000
         C            0.636411944941    -0.417154427301    -0.000563473234    12.000000000000
         C           -1.853882055059    -0.467340427301    -0.000580473234    12.000000000000
         C            1.853939944941     0.466551572699    -0.000458473234    12.000000000000
         H           -0.684918055059     1.076015572699    -0.873071473234     1.007825032230
         H           -0.684925055059     1.075804572699     0.872294526766     1.007825032230
         H            0.680544344941    -1.016371127301    -0.793616273234     1.007825032230
         H            0.684976944941    -1.076800427301     0.872042526766     1.007825032230

  Basis Set: AUG-CC-PVTZ
    Blend: AUG-CC-PVTZ
  Basis Set: (AUG-CC-PVTZ AUX)
    Blend: AUG-CC-PVTZ-JKFIT
	 Reference Energy          =   -1222.6823928664589403 [Eh]
	 Singles Energy            =      -0.0000000000000000 [Eh]
	 Same-Spin Energy          =      -0.4255441707796582 [Eh]
	 Opposite-Spin Energy      =      -1.2685690901614455 [Eh]
	 Correlation Energy        =      -1.6941132609411036 [Eh]
	 Total Energy              =   -1224.3765061274000345 [Eh]

	 ================> DF-SCS-MP2 Energies <==================
	-----------------------------------------------------------
	 SCS Same-Spin Scale       =       0.3333333333333333 [-]
	 SCS Opposite-Spin Scale   =       1.2000000000000000 [-]
	 SCS Same-Spin Energy      =      -0.1418480569265527 [Eh]
	 SCS Opposite-Spin Energy  =      -1.5222829081937346 [Eh]
	 SCS Correlation Energy    =      -1.6641309651202874 [Eh]
	 SCS Total Energy          =   -1224.3465238315791339 [Eh]
	-----------------------------------------------------------

  Dipole Moment: [D]
     X:     0.0192      Y:     0.0102      Z:     0.0102     Total:     0.0240

*** Psi4 exiting successfully. Buy a developer a beer!
