                               Psi4 1.4a3.dev225

  ==> Input File <==

--------------------------------------------------------------------------
#psi4
#
memory 32 gb

molecule  {
0 1
 Cl       -3.4380054     0.3630941     0.0000269
 Cl        3.3762460    -0.4715730    -0.0000500
  O       -1.8662040    -1.6703800    -0.0002000
  O        1.8662050     1.6703810     0.0002060
  C       -0.6363830     0.4167610     0.0000530
  C        0.6363830    -0.4167600    -0.0000420
  C       -1.8539110    -0.4669460    -0.0000590
  C        1.8539110     0.4669460     0.0000630
  H       -0.6849470     1.0764100    -0.8725500
  H       -0.6849540     1.0761990     0.8728160
  H        0.6849510    -1.0762020    -0.8728020
  H        0.6849480    -1.0764060     0.8725640
units angstrom
no_reorient  #important for SAPT in psi4, default
symmetry c1  #important for SAPT in psi4, default
}

set PROPERTIES_ORIGIN ["COM"]
properties('MP2/aug-cc-pvtz', properties = ['dipole'])
--------------------------------------------------------------------------

    Molecular point group: c1
  Charge       = 0
  Multiplicity = 1
  Basis Set: AUG-CC-PVTZ
    Blend: AUG-CC-PVTZ
  Basis Set: (AUG-CC-PVTZ AUX)
    Blend: AUG-CC-PVTZ-JKFIT

    Orbital Energies [Eh]
    ---------------------

    Doubly Occupied:

       1A   -104.865964     2A   -104.863412     3A    -20.608640
       4A    -20.604530     5A    -11.428371     6A    -11.426205
       7A    -11.294145     8A    -11.292981     9A    -10.590383
      10A    -10.587791    11A     -8.057032    12A     -8.055289
      13A     -8.055131    14A     -8.054443    15A     -8.052691
      16A     -8.052540    17A     -1.452606    18A     -1.450357
      19A     -1.160431    20A     -1.147735    21A     -1.108460
      22A     -0.977926    23A     -0.793829    24A     -0.783962
      25A     -0.717158    26A     -0.700568    27A     -0.689011
      28A     -0.655635    29A     -0.654310    30A     -0.624139
      31A     -0.575247    32A     -0.571646    33A     -0.541144
      34A     -0.494444    35A     -0.481351    36A     -0.477746
      37A     -0.477485    38A     -0.468429    39A     -0.465007

  @DF-RHF Final Energy: -1222.68758117461334

   => Energetics <=

    Nuclear Repulsion Energy =            469.6667767835722884
    One-Electron Energy =               -2617.9923675537706913
    Two-Electron Energy =                 925.6380095955848901
    Total Energy =                      -1222.6875811746133422
  Basis Set: (AUG-CC-PVTZ AUX)
    Blend: AUG-CC-PVTZ-RI
    Molecular point group: c1

    Geometry (in Angstrom), charge = 0, multiplicity = 1:

       Center              X                  Y                   Z               Mass
    ------------   -----------------  -----------------  -----------------  -----------------
         CL          -3.423978005048     0.387732852801     0.000030170952    34.968852682000
         CL           3.390273394952    -0.446934247199    -0.000046729048    34.968852682000
         O           -1.852176605048    -1.645741247199    -0.000196729048    15.994914619570
         O            1.880232394952     1.695019752801     0.000209270952    15.994914619570
         C           -0.622355605048     0.441399752801     0.000056270952    12.000000000000
         C            0.650410394952    -0.392121247199    -0.000038729048    12.000000000000
         C           -1.839883605048    -0.442307247199    -0.000055729048    12.000000000000
         C            1.867938394952     0.491584752801     0.000066270952    12.000000000000
         H           -0.670919605048     1.101048752801    -0.872546729048     1.007825032230
         H           -0.670926605048     1.100837752801     0.872819270952     1.007825032230
         H            0.698978394952    -1.051563247199    -0.872798729048     1.007825032230
         H            0.698975394952    -1.051767247199     0.872567270952     1.007825032230

  Basis Set: AUG-CC-PVTZ
    Blend: AUG-CC-PVTZ
  Basis Set: (AUG-CC-PVTZ AUX)
    Blend: AUG-CC-PVTZ-JKFIT
	 Reference Energy          =   -1222.6875811746133422 [Eh]
	 Singles Energy            =      -0.0000000000000000 [Eh]
	 Same-Spin Energy          =      -0.4254026907344660 [Eh]
	 Opposite-Spin Energy      =      -1.2687324743633766 [Eh]
	 Correlation Energy        =      -1.6941351650978427 [Eh]
	 Total Energy              =   -1224.3817163397111472 [Eh]

	 ================> DF-SCS-MP2 Energies <==================
	-----------------------------------------------------------
	 SCS Same-Spin Scale       =       0.3333333333333333 [-]
	 SCS Opposite-Spin Scale   =       1.2000000000000000 [-]
	 SCS Same-Spin Energy      =      -0.1418008969114887 [Eh]
	 SCS Opposite-Spin Energy  =      -1.5224789692360519 [Eh]
	 SCS Correlation Energy    =      -1.6642798661475404 [Eh]
	 SCS Total Energy          =   -1224.3518610407609231 [Eh]
	-----------------------------------------------------------

  Dipole Moment: [D]
     X:     0.0998      Y:     0.0521      Z:     0.0000     Total:     0.1126

*** Psi4 exiting successfully. Buy a developer a beer!
