                               Psi4 1.4a3.dev225

  ==> Input File <==

--------------------------------------------------------------------------
#psi4
#
memory 32 gb

molecule  {
0 1
 Cl       -3.3762460     0.4715730     0.0000400
 Cl        3.3762460    -0.4715730    -0.0000500
  O       -1.8662040    -1.6703800    -0.0002000
  O        1.8662050     1.6703810     0.0002060
  C       -0.6363830     0.4167610     0.0000530
  C        0.6363830    -0.4167600    -0.0000420
  C       -1.8368863    -0.4774417    -0.0000601
  C        1.8539110     0.4669460     0.0000630
  H       -0.6849470     1.0764100    -0.8725500
  H       -0.6849540     1.0761990     0.8728160
  H        0.6849510    -1.0762020    -0.8728020
  H        0.6849480    -1.0764060     0.8725640
units angstrom
no_reorient  #important for SAPT in psi4, default
symmetry c1  #important for SAPT in psi4, default
}

set PROPERTIES_ORIGIN ["COM"]
properties('MP2/aug-cc-pvtz', properties = ['dipole'])
--------------------------------------------------------------------------

    Molecular point group: c1
  Charge       = 0
  Multiplicity = 1
  Basis Set: AUG-CC-PVTZ
    Blend: AUG-CC-PVTZ
  Basis Set: (AUG-CC-PVTZ AUX)
    Blend: AUG-CC-PVTZ-JKFIT

    Orbital Energies [Eh]
    ---------------------

    Doubly Occupied:

       1A   -104.865855     2A   -104.860265     3A    -20.611134
       4A    -20.608699     5A    -11.428268     6A    -11.428008
       7A    -11.292998     8A    -11.292363     9A    -10.590286
      10A    -10.584596    11A     -8.056934    12A     -8.055193
      13A     -8.055035    14A     -8.051207    15A     -8.049521
      16A     -8.049376    17A     -1.460732    18A     -1.452259
      19A     -1.161313    20A     -1.146966    21A     -1.106558
      22A     -0.978011    23A     -0.794201    24A     -0.785675
      25A     -0.718472    26A     -0.701725    27A     -0.691581
      28A     -0.657784    29A     -0.654961    30A     -0.626329
      31A     -0.576775    32A     -0.573345    33A     -0.542170
      34A     -0.492818    35A     -0.481413    36A     -0.478182
      37A     -0.476596    38A     -0.467963    39A     -0.465328

  @DF-RHF Final Energy: -1222.68882972559391

   => Energetics <=

    Nuclear Repulsion Energy =            470.4010098830692073
    One-Electron Energy =               -2619.4378945652297261
    Two-Electron Energy =                 926.3480549565667843
    Total Energy =                      -1222.6888297255939051
  Basis Set: (AUG-CC-PVTZ AUX)
    Blend: AUG-CC-PVTZ-RI
    Molecular point group: c1

    Geometry (in Angstrom), charge = 0, multiplicity = 1:

       Center              X                  Y                   Z               Mass
    ------------   -----------------  -----------------  -----------------  -----------------
         CL          -3.377573045503     0.472390877048     0.000040381270    34.968852682000
         CL           3.374918954497    -0.470755122952    -0.000049618730    34.968852682000
         O           -1.867531045503    -1.669562122952    -0.000199618730    15.994914619570
         O            1.864877954497     1.671198877048     0.000206381270    15.994914619570
         C           -0.637710045503     0.417578877048     0.000053381270    12.000000000000
         C            0.635055954497    -0.415942122952    -0.000041618730    12.000000000000
         C           -1.838213345503    -0.476623822952    -0.000059718730    12.000000000000
         C            1.852583954497     0.467763877048     0.000063381270    12.000000000000
         H           -0.686274045503     1.077227877048    -0.872549618730     1.007825032230
         H           -0.686281045503     1.077016877048     0.872816381270     1.007825032230
         H            0.683623954497    -1.075384122952    -0.872801618730     1.007825032230
         H            0.683620954497    -1.075588122952     0.872564381270     1.007825032230

  Basis Set: AUG-CC-PVTZ
    Blend: AUG-CC-PVTZ
  Basis Set: (AUG-CC-PVTZ AUX)
    Blend: AUG-CC-PVTZ-JKFIT
	 Reference Energy          =   -1222.6888297255939051 [Eh]
	 Singles Energy            =      -0.0000000000000000 [Eh]
	 Same-Spin Energy          =      -0.4254977846648108 [Eh]
	 Opposite-Spin Energy      =      -1.2686876525766102 [Eh]
	 Correlation Energy        =      -1.6941854372414209 [Eh]
	 Total Energy              =   -1224.3830151628353633 [Eh]

	 ================> DF-SCS-MP2 Energies <==================
	-----------------------------------------------------------
	 SCS Same-Spin Scale       =       0.3333333333333333 [-]
	 SCS Opposite-Spin Scale   =       1.2000000000000000 [-]
	 SCS Same-Spin Energy      =      -0.1418325948882703 [Eh]
	 SCS Opposite-Spin Energy  =      -1.5224251830919322 [Eh]
	 SCS Correlation Energy    =      -1.6642577779802024 [Eh]
	 SCS Total Energy          =   -1224.3530875035742156 [Eh]
	-----------------------------------------------------------

  Dipole Moment: [D]
     X:     0.1919      Y:    -0.1071      Z:     0.0000     Total:     0.2198

*** Psi4 exiting successfully. Buy a developer a beer!
