                               Psi4 1.4a3.dev225

  ==> Input File <==

--------------------------------------------------------------------------
#psi4
#
memory 32 gb

molecule  {
0 1
 Cl       -3.3762460     0.4715730     0.0000400
 Cl        3.3762460    -0.4715730    -0.0000500
  O       -1.8662040    -1.6703800    -0.0002000
  O        1.8662050     1.6703810     0.0002060
  C       -0.6363830     0.4167610     0.0000530
  C        0.6363830    -0.4167600    -0.0000420
  C       -1.8539110    -0.4669460    -0.0000590
  C        1.8539110     0.4669460     0.0000630
  H       -0.6849470     1.0764100    -0.8725500
  H       -0.6849540     1.0761990     0.8728160
  H        0.6893866    -1.1364273    -0.9525092
  H        0.6849480    -1.0764060     0.8725640
units angstrom
no_reorient  #important for SAPT in psi4, default
symmetry c1  #important for SAPT in psi4, default
}

set PROPERTIES_ORIGIN ["COM"]
properties('MP2/aug-cc-pvtz', properties = ['dipole'])
--------------------------------------------------------------------------

    Molecular point group: c1
  Charge       = 0
  Multiplicity = 1
  Basis Set: AUG-CC-PVTZ
    Blend: AUG-CC-PVTZ
  Basis Set: (AUG-CC-PVTZ AUX)
    Blend: AUG-CC-PVTZ-JKFIT

    Orbital Energies [Eh]
    ---------------------

    Doubly Occupied:

       1A   -104.865279     2A   -104.864839     3A    -20.607994
       4A    -20.607779     5A    -11.427862     6A    -11.427488
       7A    -11.301856     8A    -11.292243     9A    -10.589712
      10A    -10.589269    11A     -8.056360    12A     -8.055920
      13A     -8.054620    14A     -8.054462    15A     -8.054177
      16A     -8.054019    17A     -1.452288    18A     -1.450771
      19A     -1.160701    20A     -1.150159    21A     -1.104364
      22A     -0.972965    23A     -0.793590    24A     -0.779571
      25A     -0.715882    26A     -0.694819    27A     -0.689449
      28A     -0.656355    29A     -0.652047    30A     -0.622142
      31A     -0.573742    32A     -0.568236    33A     -0.533226
      34A     -0.493545    35A     -0.481034    36A     -0.479890
      37A     -0.477646    38A     -0.467910    39A     -0.466416

  @DF-RHF Final Energy: -1222.68127879315989

   => Energetics <=

    Nuclear Repulsion Energy =            469.8754799517122933
    One-Electron Energy =               -2618.4322607272515597
    Two-Electron Energy =                 925.8755019823792054
    Total Energy =                      -1222.6812787931598905
  Basis Set: (AUG-CC-PVTZ AUX)
    Blend: AUG-CC-PVTZ-RI
    Molecular point group: c1

    Geometry (in Angstrom), charge = 0, multiplicity = 1:

       Center              X                  Y                   Z               Mass
    ------------   -----------------  -----------------  -----------------  -----------------
         CL          -3.376275126539     0.471967050541     0.000562064300    34.968852682000
         CL           3.376216873461    -0.471178949459     0.000472064300    34.968852682000
         O           -1.866233126539    -1.669985949459     0.000322064300    15.994914619570
         O            1.866175873461     1.670775050541     0.000728064300    15.994914619570
         C           -0.636412126539     0.417155050541     0.000575064300    12.000000000000
         C            0.636353873461    -0.416365949459     0.000480064300    12.000000000000
         C           -1.853940126539    -0.466551949459     0.000463064300    12.000000000000
         C            1.853881873461     0.467340050541     0.000585064300    12.000000000000
         H           -0.684976126539     1.076804050541    -0.872027935700     1.007825032230
         H           -0.684983126539     1.076593050541     0.873338064300     1.007825032230
         H            0.689357473461    -1.136033249459    -0.951987135700     1.007825032230
         H            0.684918873461    -1.076011949459     0.873086064300     1.007825032230

  Basis Set: AUG-CC-PVTZ
    Blend: AUG-CC-PVTZ
  Basis Set: (AUG-CC-PVTZ AUX)
    Blend: AUG-CC-PVTZ-JKFIT
	 Reference Energy          =   -1222.6812787931598905 [Eh]
	 Singles Energy            =      -0.0000000000000000 [Eh]
	 Same-Spin Energy          =      -0.4258512002336921 [Eh]
	 Opposite-Spin Energy      =      -1.2699685679554689 [Eh]
	 Correlation Energy        =      -1.6958197681891609 [Eh]
	 Total Energy              =   -1224.3770985613491575 [Eh]

	 ================> DF-SCS-MP2 Energies <==================
	-----------------------------------------------------------
	 SCS Same-Spin Scale       =       0.3333333333333333 [-]
	 SCS Opposite-Spin Scale   =       1.2000000000000000 [-]
	 SCS Same-Spin Energy      =      -0.1419504000778974 [Eh]
	 SCS Opposite-Spin Energy  =      -1.5239622815465625 [Eh]
	 SCS Correlation Energy    =      -1.6659126816244598 [Eh]
	 SCS Total Energy          =   -1224.3471914747842675 [Eh]
	-----------------------------------------------------------

  Dipole Moment: [D]
     X:    -0.0188      Y:    -0.0056      Z:    -0.0055     Total:     0.0204

*** Psi4 exiting successfully. Buy a developer a beer!
