                               Psi4 1.4a3.dev225

  ==> Input File <==

--------------------------------------------------------------------------
#psi4
#
memory 32 gb

molecule  {
0 1
 Cl       -3.4080725     0.4178726     0.0000335
 Cl        3.3762460    -0.4715730    -0.0000500
  O       -1.8662040    -1.6703800    -0.0002000
  O        1.8662050     1.6703810     0.0002060
  C       -0.6363830     0.4167610     0.0000530
  C        0.6363830    -0.4167600    -0.0000420
  C       -1.8539110    -0.4669460    -0.0000590
  C        1.8539110     0.4669460     0.0000630
  H       -0.6849470     1.0764100    -0.8725500
  H       -0.6849540     1.0761990     0.8728160
  H        0.6849510    -1.0762020    -0.8728020
  H        0.6849480    -1.0764060     0.8725640
units angstrom
no_reorient  #important for SAPT in psi4, default
symmetry c1  #important for SAPT in psi4, default
}

set PROPERTIES_ORIGIN ["COM"]
properties('MP2/aug-cc-pvtz', properties = ['dipole'])
--------------------------------------------------------------------------

    Molecular point group: c1
  Charge       = 0
  Multiplicity = 1
  Basis Set: AUG-CC-PVTZ
    Blend: AUG-CC-PVTZ
  Basis Set: (AUG-CC-PVTZ AUX)
    Blend: AUG-CC-PVTZ-JKFIT

    Orbital Energies [Eh]
    ---------------------

    Doubly Occupied:

       1A   -104.865594     2A   -104.864353     3A    -20.608270
       4A    -20.606217     5A    -11.427946     6A    -11.426853
       7A    -11.292977     8A    -11.292184     9A    -10.590020
      10A    -10.588753    11A     -8.056668    12A     -8.055404
      13A     -8.054927    14A     -8.054769    15A     -8.053659
      16A     -8.053504    17A     -1.452375    18A     -1.450628
      19A     -1.160928    20A     -1.149287    21A     -1.107507
      22A     -0.977106    23A     -0.793843    24A     -0.783854
      25A     -0.716697    26A     -0.700169    27A     -0.689479
      28A     -0.656315    29A     -0.653788    30A     -0.624160
      31A     -0.575096    32A     -0.571473    33A     -0.540705
      34A     -0.493991    35A     -0.481077    36A     -0.479184
      37A     -0.477528    38A     -0.467666    39A     -0.466653

  @DF-RHF Final Energy: -1222.68815390707800

   => Energetics <=

    Nuclear Repulsion Energy =            469.9882416393978701
    One-Electron Energy =               -2618.6295711383640992
    Two-Electron Energy =                 925.9531755918881117
    Total Energy =                      -1222.6881539070780036
  Basis Set: (AUG-CC-PVTZ AUX)
    Blend: AUG-CC-PVTZ-RI
    Molecular point group: c1

    Geometry (in Angstrom), charge = 0, multiplicity = 1:

       Center              X                  Y                   Z               Mass
    ------------   -----------------  -----------------  -----------------  -----------------
         CL          -3.400843800117     0.430069447145     0.000035271886    34.968852682000
         CL           3.383474699883    -0.459376152855    -0.000048228114    34.968852682000
         O           -1.858975300117    -1.658183152855    -0.000198228114    15.994914619570
         O            1.873433699883     1.682577847145     0.000207771886    15.994914619570
         C           -0.629154300117     0.428957847145     0.000054771886    12.000000000000
         C            0.643611699883    -0.404563152855    -0.000040228114    12.000000000000
         C           -1.846682300117    -0.454749152855    -0.000057228114    12.000000000000
         C            1.861139699883     0.479142847145     0.000064771886    12.000000000000
         H           -0.677718300117     1.088606847145    -0.872548228114     1.007825032230
         H           -0.677725300117     1.088395847145     0.872817771886     1.007825032230
         H            0.692179699883    -1.064005152855    -0.872800228114     1.007825032230
         H            0.692176699883    -1.064209152855     0.872565771886     1.007825032230

  Basis Set: AUG-CC-PVTZ
    Blend: AUG-CC-PVTZ
  Basis Set: (AUG-CC-PVTZ AUX)
    Blend: AUG-CC-PVTZ-JKFIT
	 Reference Energy          =   -1222.6881539070780036 [Eh]
	 Singles Energy            =      -0.0000000000000000 [Eh]
	 Same-Spin Energy          =      -0.4255268245822080 [Eh]
	 Opposite-Spin Energy      =      -1.2689023675925690 [Eh]
	 Correlation Energy        =      -1.6944291921747769 [Eh]
	 Total Energy              =   -1224.3825830992527699 [Eh]

	 ================> DF-SCS-MP2 Energies <==================
	-----------------------------------------------------------
	 SCS Same-Spin Scale       =       0.3333333333333333 [-]
	 SCS Opposite-Spin Scale   =       1.2000000000000000 [-]
	 SCS Same-Spin Energy      =      -0.1418422748607360 [Eh]
	 SCS Opposite-Spin Energy  =      -1.5226828411110829 [Eh]
	 SCS Correlation Energy    =      -1.6645251159718188 [Eh]
	 SCS Total Energy          =   -1224.3526790230498591 [Eh]
	-----------------------------------------------------------

  Dipole Moment: [D]
     X:     0.0498      Y:     0.0262      Z:     0.0000     Total:     0.0562

*** Psi4 exiting successfully. Buy a developer a beer!
