                               Psi4 1.4a3.dev225

  ==> Input File <==

--------------------------------------------------------------------------
#psi4
#
memory 32 gb

molecule  {
0 1
 Cl       -3.3762460     0.4715730     0.0000400
 Cl        3.3762460    -0.4715730    -0.0000500
  O       -1.8662040    -1.6703800    -0.0002000
  O        1.8662050     1.6703810     0.0002060
  C       -0.6363830     0.4167610     0.0000530
  C        0.6363830    -0.4167600    -0.0000420
  C       -1.8377251    -0.4551979    -0.0000575
  C        1.8539110     0.4669460     0.0000630
  H       -0.6849470     1.0764100    -0.8725500
  H       -0.6849540     1.0761990     0.8728160
  H        0.6849510    -1.0762020    -0.8728020
  H        0.6849480    -1.0764060     0.8725640
units angstrom
no_reorient  #important for SAPT in psi4, default
symmetry c1  #important for SAPT in psi4, default
}

set PROPERTIES_ORIGIN ["COM"]
properties('MP2/aug-cc-pvtz', properties = ['dipole'])
--------------------------------------------------------------------------

    Molecular point group: c1
  Charge       = 0
  Multiplicity = 1
  Basis Set: AUG-CC-PVTZ
    Blend: AUG-CC-PVTZ
  Basis Set: (AUG-CC-PVTZ AUX)
    Blend: AUG-CC-PVTZ-JKFIT

    Orbital Energies [Eh]
    ---------------------

    Doubly Occupied:

       1A   -104.865779     2A   -104.864742     3A    -20.608563
       4A    -20.607449     5A    -11.429306     6A    -11.428167
       7A    -11.292801     8A    -11.292029     9A    -10.590204
      10A    -10.589014    11A     -8.056853    12A     -8.055651
      13A     -8.055111    14A     -8.054953    15A     -8.053927
      16A     -8.053772    17A     -1.452306    18A     -1.443406
      19A     -1.162710    20A     -1.149975    21A     -1.108270
      22A     -0.980698    23A     -0.794322    24A     -0.784648
      25A     -0.715865    26A     -0.701526    27A     -0.689939
      28A     -0.655326    29A     -0.652453    30A     -0.623979
      31A     -0.575428    32A     -0.569233    33A     -0.540168
      34A     -0.494331    35A     -0.481280    36A     -0.479120
      37A     -0.477624    38A     -0.468349    39A     -0.467830

  @DF-RHF Final Energy: -1222.68599471134871

   => Energetics <=

    Nuclear Repulsion Energy =            470.3585492246799049
    One-Electron Energy =               -2619.3548728029850281
    Two-Electron Energy =                 926.3103288669564108
    Total Energy =                      -1222.6859947113489397
  Basis Set: (AUG-CC-PVTZ AUX)
    Blend: AUG-CC-PVTZ-RI
    Molecular point group: c1

    Geometry (in Angstrom), charge = 0, multiplicity = 1:

       Center              X                  Y                   Z               Mass
    ------------   -----------------  -----------------  -----------------  -----------------
         CL          -3.377507666988     0.470657130489     0.000040178619    34.968852682000
         CL           3.374984333012    -0.472488869511    -0.000049821381    34.968852682000
         O           -1.867465666988    -1.671295869511    -0.000199821381    15.994914619570
         O            1.864943333012     1.669465130489     0.000206178619    15.994914619570
         C           -0.637644666988     0.415845130489     0.000053178619    12.000000000000
         C            0.635121333012    -0.417675869511    -0.000041821381    12.000000000000
         C           -1.838986766988    -0.456113769511    -0.000057321381    12.000000000000
         C            1.852649333012     0.466030130489     0.000063178619    12.000000000000
         H           -0.686208666988     1.075494130489    -0.872549821381     1.007825032230
         H           -0.686215666988     1.075283130489     0.872816178619     1.007825032230
         H            0.683689333012    -1.077117869511    -0.872801821381     1.007825032230
         H            0.683686333012    -1.077321869511     0.872564178619     1.007825032230

  Basis Set: AUG-CC-PVTZ
    Blend: AUG-CC-PVTZ
  Basis Set: (AUG-CC-PVTZ AUX)
    Blend: AUG-CC-PVTZ-JKFIT
	 Reference Energy          =   -1222.6859947113487124 [Eh]
	 Singles Energy            =      -0.0000000000000000 [Eh]
	 Same-Spin Energy          =      -0.4261367798063073 [Eh]
	 Opposite-Spin Energy      =      -1.2700586439785320 [Eh]
	 Correlation Energy        =      -1.6961954237848393 [Eh]
	 Total Energy              =   -1224.3821901351334418 [Eh]

	 ================> DF-SCS-MP2 Energies <==================
	-----------------------------------------------------------
	 SCS Same-Spin Scale       =       0.3333333333333333 [-]
	 SCS Opposite-Spin Scale   =       1.2000000000000000 [-]
	 SCS Same-Spin Energy      =      -0.1420455932687691 [Eh]
	 SCS Opposite-Spin Energy  =      -1.5240703727742384 [Eh]
	 SCS Correlation Energy    =      -1.6661159660430076 [Eh]
	 SCS Total Energy          =   -1224.3521106773916927 [Eh]
	-----------------------------------------------------------

  Dipole Moment: [D]
     X:     0.0997      Y:     0.0420      Z:     0.0000     Total:     0.1082

*** Psi4 exiting successfully. Buy a developer a beer!
