                               Psi4 1.4a3.dev225

  ==> Input File <==

--------------------------------------------------------------------------
#psi4
#
memory 32 gb

molecule  {
0 1
 Cl       -3.3762460     0.4715730     0.0000400
 Cl        3.3762460    -0.4715730    -0.0000500
  O       -1.8662040    -1.6703800    -0.0002000
  O        1.8662050     1.6703810     0.0002060
  C       -0.6363830     0.4167610     0.0000530
  C        0.6363830    -0.4167600    -0.0000420
  C       -1.8518681    -0.2669564    -0.0000356
  C        1.8539110     0.4669460     0.0000630
  H       -0.6849470     1.0764100    -0.8725500
  H       -0.6849540     1.0761990     0.8728160
  H        0.6849510    -1.0762020    -0.8728020
  H        0.6849480    -1.0764060     0.8725640
units angstrom
no_reorient  #important for SAPT in psi4, default
symmetry c1  #important for SAPT in psi4, default
}

set PROPERTIES_ORIGIN ["COM"]
properties('MP2/aug-cc-pvtz', properties = ['dipole'])
--------------------------------------------------------------------------

    Molecular point group: c1
  Charge       = 0
  Multiplicity = 1
  Basis Set: AUG-CC-PVTZ
    Blend: AUG-CC-PVTZ
  Basis Set: (AUG-CC-PVTZ AUX)
    Blend: AUG-CC-PVTZ-JKFIT

    Orbital Energies [Eh]
    ---------------------

    Doubly Occupied:

       1A   -104.896089     2A   -104.865828     3A    -20.608116
       4A    -20.575942     5A    -11.436185     6A    -11.428070
       7A    -11.293444     8A    -11.290754     9A    -10.620518
      10A    -10.590200    11A     -8.087374    12A     -8.085344
      13A     -8.085073    14A     -8.056851    15A     -8.055102
      16A     -8.054943    17A     -1.452143    18A     -1.330734
      19A     -1.187394    20A     -1.157540    21A     -1.121954
      22A     -1.002555    23A     -0.799524    24A     -0.779573
      25A     -0.711566    26A     -0.704714    27A     -0.682301
      28A     -0.648786    29A     -0.630273    30A     -0.622774
      31A     -0.560593    32A     -0.556204    33A     -0.530948
      34A     -0.506058    35A     -0.482913    36A     -0.481109
      37A     -0.473098    38A     -0.458258    39A     -0.449858

  @DF-RHF Final Energy: -1222.61787589370510

   => Energetics <=

    Nuclear Repulsion Energy =            470.3928923387798022
    One-Electron Energy =               -2619.3001324486199337
    Two-Electron Energy =                 926.2893642161349135
    Total Energy =                      -1222.6178758937053317
  Basis Set: (AUG-CC-PVTZ AUX)
    Blend: AUG-CC-PVTZ-RI
    Molecular point group: c1

    Geometry (in Angstrom), charge = 0, multiplicity = 1:

       Center              X                  Y                   Z               Mass
    ------------   -----------------  -----------------  -----------------  -----------------
         CL          -3.376405320375     0.455985039706     0.000038471669    34.968852682000
         CL           3.376086679625    -0.487160960294    -0.000051528331    34.968852682000
         O           -1.866363320375    -1.685967960294    -0.000201528331    15.994914619570
         O            1.866045679625     1.654793039706     0.000204471669    15.994914619570
         C           -0.636542320375     0.401173039706     0.000051471669    12.000000000000
         C            0.636223679625    -0.432347960294    -0.000043528331    12.000000000000
         C           -1.852027420375    -0.282544360294    -0.000037128331    12.000000000000
         C            1.853751679625     0.451358039706     0.000061471669    12.000000000000
         H           -0.685106320375     1.060822039706    -0.872551528331     1.007825032230
         H           -0.685113320375     1.060611039706     0.872814471669     1.007825032230
         H            0.684791679625    -1.091789960294    -0.872803528331     1.007825032230
         H            0.684788679625    -1.091993960294     0.872562471669     1.007825032230

  Basis Set: AUG-CC-PVTZ
    Blend: AUG-CC-PVTZ
  Basis Set: (AUG-CC-PVTZ AUX)
    Blend: AUG-CC-PVTZ-JKFIT
	 Reference Energy          =   -1222.6178758937051043 [Eh]
	 Singles Energy            =      -0.0000000000000000 [Eh]
	 Same-Spin Energy          =      -0.4324378484210572 [Eh]
	 Opposite-Spin Energy      =      -1.2828770525684803 [Eh]
	 Correlation Energy        =      -1.7153149009895374 [Eh]
	 Total Energy              =   -1224.3331907946947013 [Eh]

	 ================> DF-SCS-MP2 Energies <==================
	-----------------------------------------------------------
	 SCS Same-Spin Scale       =       0.3333333333333333 [-]
	 SCS Opposite-Spin Scale   =       1.2000000000000000 [-]
	 SCS Same-Spin Energy      =      -0.1441459494736857 [Eh]
	 SCS Opposite-Spin Energy  =      -1.5394524630821762 [Eh]
	 SCS Correlation Energy    =      -1.6835984125558618 [Eh]
	 SCS Total Energy          =   -1224.3014743062610705 [Eh]
	-----------------------------------------------------------

  Dipole Moment: [D]
     X:    -0.5430      Y:     1.0083      Z:     0.0001     Total:     1.1452

*** Psi4 exiting successfully. Buy a developer a beer!
