                               Psi4 1.4a3.dev225

  ==> Input File <==

--------------------------------------------------------------------------
#psi4
#
memory 32 gb

molecule  {
0 1
 Cl       -3.3762460     0.4715730     0.0000400
 Cl        3.3762460    -0.4715730    -0.0000500
  O       -1.8662040    -1.6703800    -0.0002000
  O        1.8662050     1.6703810     0.0002060
  C       -0.6363830     0.4167610     0.0000530
  C        0.6363830    -0.4167600    -0.0000420
  C       -1.8539110    -0.4669460    -0.0000590
  C        1.8539110     0.4669460     0.0000630
  H       -0.6849470     1.0764100    -0.8725500
  H       -0.6849540     1.0761990     0.8728160
  H        0.6849510    -1.0762020    -0.8728020
  H        0.6827303    -1.0462840     0.8327174
units angstrom
no_reorient  #important for SAPT in psi4, default
symmetry c1  #important for SAPT in psi4, default
}

set PROPERTIES_ORIGIN ["COM"]
properties('MP2/aug-cc-pvtz', properties = ['dipole'])
--------------------------------------------------------------------------

    Molecular point group: c1
  Charge       = 0
  Multiplicity = 1
  Basis Set: AUG-CC-PVTZ
    Blend: AUG-CC-PVTZ
  Basis Set: (AUG-CC-PVTZ AUX)
    Blend: AUG-CC-PVTZ-JKFIT

    Orbital Energies [Eh]
    ---------------------

    Doubly Occupied:

       1A   -104.865414     2A   -104.865188     3A    -20.607946
       4A    -20.607896     5A    -11.427529     6A    -11.427388
       7A    -11.291320     8A    -11.286107     9A    -10.589848
      10A    -10.589622    11A     -8.056495    12A     -8.056270
      13A     -8.054756    14A     -8.054598    15A     -8.054530
      16A     -8.054372    17A     -1.452345    18A     -1.450816
      19A     -1.162564    20A     -1.150670    21A     -1.107962
      22A     -0.978398    23A     -0.794384    24A     -0.786323
      25A     -0.716615    26A     -0.702763    27A     -0.690122
      28A     -0.657530    29A     -0.653667    30A     -0.625260
      31A     -0.576855    32A     -0.571912    33A     -0.542722
      34A     -0.493612    35A     -0.481201    36A     -0.480325
      37A     -0.478037    38A     -0.468351    39A     -0.466220

  @DF-RHF Final Energy: -1222.68729984628180

   => Energetics <=

    Nuclear Repulsion Energy =            470.6148449623509009
    One-Electron Energy =               -2619.8484291055306130
    Two-Electron Energy =                 926.5462842968977384
    Total Energy =                      -1222.6872998462818032
  Basis Set: (AUG-CC-PVTZ AUX)
    Blend: AUG-CC-PVTZ-RI
    Molecular point group: c1

    Geometry (in Angstrom), charge = 0, multiplicity = 1:

       Center              X                  Y                   Z               Mass
    ------------   -----------------  -----------------  -----------------  -----------------
         CL          -3.376231573583     0.471375630954     0.000301134094    34.968852682000
         CL           3.376260426417    -0.471770369046     0.000211134094    34.968852682000
         O           -1.866189573583    -1.670577369046     0.000061134094    15.994914619570
         O            1.866219426417     1.670183630954     0.000467134094    15.994914619570
         C           -0.636368573583     0.416563630954     0.000314134094    12.000000000000
         C            0.636397426417    -0.416957369046     0.000219134094    12.000000000000
         C           -1.853896573583    -0.467143369046     0.000202134094    12.000000000000
         C            1.853925426417     0.466748630954     0.000324134094    12.000000000000
         H           -0.684932573583     1.076212630954    -0.872288865906     1.007825032230
         H           -0.684939573583     1.076001630954     0.873077134094     1.007825032230
         H            0.684965426417    -1.076399369046    -0.872540865906     1.007825032230
         H            0.682744726417    -1.046481369046     0.832978534094     1.007825032230

  Basis Set: AUG-CC-PVTZ
    Blend: AUG-CC-PVTZ
  Basis Set: (AUG-CC-PVTZ AUX)
    Blend: AUG-CC-PVTZ-JKFIT
	 Reference Energy          =   -1222.6872998462818032 [Eh]
	 Singles Energy            =      -0.0000000000000000 [Eh]
	 Same-Spin Energy          =      -0.4255993182600393 [Eh]
	 Opposite-Spin Energy      =      -1.2687978289854260 [Eh]
	 Correlation Energy        =      -1.6943971472454653 [Eh]
	 Total Energy              =   -1224.3816969935271572 [Eh]

	 ================> DF-SCS-MP2 Energies <==================
	-----------------------------------------------------------
	 SCS Same-Spin Scale       =       0.3333333333333333 [-]
	 SCS Opposite-Spin Scale   =       1.2000000000000000 [-]
	 SCS Same-Spin Energy      =      -0.1418664394200131 [Eh]
	 SCS Opposite-Spin Energy  =      -1.5225573947825113 [Eh]
	 SCS Correlation Energy    =      -1.6644238342025244 [Eh]
	 SCS Total Energy          =   -1224.3517236804843833 [Eh]
	-----------------------------------------------------------

  Dipole Moment: [D]
     X:     0.0095      Y:     0.0045      Z:    -0.0045     Total:     0.0115

*** Psi4 exiting successfully. Buy a developer a beer!
