                               Psi4 1.4a3.dev225

  ==> Input File <==

--------------------------------------------------------------------------
#psi4
#
memory 32 gb

molecule  {
0 1
 Cl       -3.3762460     0.4715730     0.0000400
 Cl        3.3762460    -0.4715730    -0.0000500
  O       -1.8662040    -1.6703800    -0.0002000
  O        1.8662050     1.6703810     0.0002060
  C       -0.6363830     0.4167610     0.0000530
  C        0.6363830    -0.4167600    -0.0000420
  C       -1.8537067    -0.4469470    -0.0000567
  C        1.8539110     0.4669460     0.0000630
  H       -0.6849470     1.0764100    -0.8725500
  H       -0.6849540     1.0761990     0.8728160
  H        0.6849510    -1.0762020    -0.8728020
  H        0.6849480    -1.0764060     0.8725640
units angstrom
no_reorient  #important for SAPT in psi4, default
symmetry c1  #important for SAPT in psi4, default
}

set PROPERTIES_ORIGIN ["COM"]
properties('MP2/aug-cc-pvtz', properties = ['dipole'])
--------------------------------------------------------------------------

    Molecular point group: c1
  Charge       = 0
  Multiplicity = 1
  Basis Set: AUG-CC-PVTZ
    Blend: AUG-CC-PVTZ
  Basis Set: (AUG-CC-PVTZ AUX)
    Blend: AUG-CC-PVTZ-JKFIT

    Orbital Energies [Eh]
    ---------------------

    Doubly Occupied:

       1A   -104.868907     2A   -104.865200     3A    -20.607835
       4A    -20.604758     5A    -11.428743     6A    -11.427485
       7A    -11.291819     8A    -11.291120     9A    -10.593302
      10A    -10.589628    11A     -8.059973    12A     -8.058201
      13A     -8.058034    14A     -8.056277    15A     -8.054536
      16A     -8.054377    17A     -1.451573    18A     -1.436449
      19A     -1.163900    20A     -1.152386    21A     -1.107893
      22A     -0.978848    23A     -0.794130    24A     -0.783002
      25A     -0.714307    26A     -0.699794    27A     -0.688515
      28A     -0.654616    29A     -0.651228    30A     -0.622468
      31A     -0.573883    32A     -0.567995    33A     -0.538563
      34A     -0.495176    35A     -0.481028    36A     -0.480409
      37A     -0.478519    38A     -0.469147    39A     -0.467601

  @DF-RHF Final Energy: -1222.68511538000598

   => Energetics <=

    Nuclear Repulsion Energy =            470.3252226704753980
    One-Electron Energy =               -2619.2974274823659471
    Two-Electron Energy =                 926.2870894318846240
    Total Energy =                      -1222.6851153800059819
  Basis Set: (AUG-CC-PVTZ AUX)
    Blend: AUG-CC-PVTZ-RI
    Molecular point group: c1

    Geometry (in Angstrom), charge = 0, multiplicity = 1:

       Center              X                  Y                   Z               Mass
    ------------   -----------------  -----------------  -----------------  -----------------
         CL          -3.376262014536     0.470014031311     0.000040116264    34.968852682000
         CL           3.376229985464    -0.473131968689    -0.000049883736    34.968852682000
         O           -1.866220014536    -1.671938968689    -0.000199883736    15.994914619570
         O            1.866188985464     1.668822031311     0.000206116264    15.994914619570
         C           -0.636399014536     0.415202031311     0.000053116264    12.000000000000
         C            0.636366985464    -0.418318968689    -0.000041883736    12.000000000000
         C           -1.853722714536    -0.448505968689    -0.000056583736    12.000000000000
         C            1.853894985464     0.465387031311     0.000063116264    12.000000000000
         H           -0.684963014536     1.074851031311    -0.872549883736     1.007825032230
         H           -0.684970014536     1.074640031311     0.872816116264     1.007825032230
         H            0.684934985464    -1.077760968689    -0.872801883736     1.007825032230
         H            0.684931985464    -1.077964968689     0.872564116264     1.007825032230

  Basis Set: AUG-CC-PVTZ
    Blend: AUG-CC-PVTZ
  Basis Set: (AUG-CC-PVTZ AUX)
    Blend: AUG-CC-PVTZ-JKFIT
	 Reference Energy          =   -1222.6851153800059819 [Eh]
	 Singles Energy            =      -0.0000000000000000 [Eh]
	 Same-Spin Energy          =      -0.4262585700790107 [Eh]
	 Opposite-Spin Energy      =      -1.2703660270297796 [Eh]
	 Correlation Energy        =      -1.6966245971087903 [Eh]
	 Total Energy              =   -1224.3817399771148757 [Eh]

	 ================> DF-SCS-MP2 Energies <==================
	-----------------------------------------------------------
	 SCS Same-Spin Scale       =       0.3333333333333333 [-]
	 SCS Opposite-Spin Scale   =       1.2000000000000000 [-]
	 SCS Same-Spin Energy      =      -0.1420861900263369 [Eh]
	 SCS Opposite-Spin Energy  =      -1.5244392324357354 [Eh]
	 SCS Correlation Energy    =      -1.6665254224620722 [Eh]
	 SCS Total Energy          =   -1224.3516408024679549 [Eh]
	-----------------------------------------------------------

  Dipole Moment: [D]
     X:    -0.0705      Y:     0.1282      Z:     0.0000     Total:     0.1463

*** Psi4 exiting successfully. Buy a developer a beer!
