                               Psi4 1.4a3.dev225

  ==> Input File <==

--------------------------------------------------------------------------
#psi4
#
memory 32 gb

molecule  {
0 1
 Cl       -3.3762460     0.4715730     0.0000400
 Cl        3.3762460    -0.4715730    -0.0000500
  O       -1.8662040    -1.6703800    -0.0002000
  O        1.8662050     1.6703810     0.0002060
  C       -0.6363830     0.4167610     0.0000530
  C        0.6363830    -0.4167600    -0.0000420
  C       -1.6836641    -0.5719031    -0.0000701
  C        1.8539110     0.4669460     0.0000630
  H       -0.6849470     1.0764100    -0.8725500
  H       -0.6849540     1.0761990     0.8728160
  H        0.6849510    -1.0762020    -0.8728020
  H        0.6849480    -1.0764060     0.8725640
units angstrom
no_reorient  #important for SAPT in psi4, default
symmetry c1  #important for SAPT in psi4, default
}

set PROPERTIES_ORIGIN ["COM"]
properties('MP2/aug-cc-pvtz', properties = ['dipole'])
--------------------------------------------------------------------------

    Molecular point group: c1
  Charge       = 0
  Multiplicity = 1
  Basis Set: AUG-CC-PVTZ
    Blend: AUG-CC-PVTZ
  Basis Set: (AUG-CC-PVTZ AUX)
    Blend: AUG-CC-PVTZ-JKFIT

    Orbital Energies [Eh]
    ---------------------

    Doubly Occupied:

       1A   -104.873219     2A   -104.807514     3A    -20.647351
       4A    -20.617678     5A    -11.438370     6A    -11.436895
       7A    -11.307767     8A    -11.305730     9A    -10.597604
      10A    -10.532141    11A     -8.064247    12A     -8.062498
      13A     -8.062340    14A     -7.998497    15A     -7.997271
      16A     -7.997210    17A     -1.544805    18A     -1.460945
      19A     -1.174601    20A     -1.145753    21A     -1.071105
      22A     -0.991658    23A     -0.811975    24A     -0.801588
      25A     -0.749745    26A     -0.725660    27A     -0.706890
      28A     -0.673377    29A     -0.669537    30A     -0.656267
      31A     -0.597913    32A     -0.597397    33A     -0.559001
      34A     -0.494798    35A     -0.488533    36A     -0.479818
      37A     -0.441840    38A     -0.439004    39A     -0.435900

  @DF-RHF Final Energy: -1222.66950025518622

   => Energetics <=

    Nuclear Repulsion Energy =            470.9654902013984383
    One-Electron Energy =               -2620.3410912664453463
    Two-Electron Energy =                 926.7061008098605726
    Total Energy =                      -1222.6695002551862217
  Basis Set: (AUG-CC-PVTZ AUX)
    Blend: AUG-CC-PVTZ-RI
    Molecular point group: c1

    Geometry (in Angstrom), charge = 0, multiplicity = 1:

       Center              X                  Y                   Z               Mass
    ------------   -----------------  -----------------  -----------------  -----------------
         CL          -3.389515630046     0.479753473693     0.000041160699    34.968852682000
         CL           3.362976369954    -0.463392526307    -0.000048839301    34.968852682000
         O           -1.879473630046    -1.662199526307    -0.000198839301    15.994914619570
         O            1.852935369954     1.678561473693     0.000207160699    15.994914619570
         C           -0.649652630046     0.424941473693     0.000054160699    12.000000000000
         C            0.623113369954    -0.408579526307    -0.000040839301    12.000000000000
         C           -1.696933730046    -0.563722626307    -0.000068939301    12.000000000000
         C            1.840641369954     0.475126473693     0.000064160699    12.000000000000
         H           -0.698216630046     1.084590473693    -0.872548839301     1.007825032230
         H           -0.698223630046     1.084379473693     0.872817160699     1.007825032230
         H            0.671681369954    -1.068021526307    -0.872800839301     1.007825032230
         H            0.671678369954    -1.068225526307     0.872565160699     1.007825032230

  Basis Set: AUG-CC-PVTZ
    Blend: AUG-CC-PVTZ
  Basis Set: (AUG-CC-PVTZ AUX)
    Blend: AUG-CC-PVTZ-JKFIT
	 Reference Energy          =   -1222.6695002551862217 [Eh]
	 Singles Energy            =      -0.0000000000000000 [Eh]
	 Same-Spin Energy          =      -0.4247860188622474 [Eh]
	 Opposite-Spin Energy      =      -1.2660363847582965 [Eh]
	 Correlation Energy        =      -1.6908224036205439 [Eh]
	 Total Energy              =   -1224.3603226588068082 [Eh]

	 ================> DF-SCS-MP2 Energies <==================
	-----------------------------------------------------------
	 SCS Same-Spin Scale       =       0.3333333333333333 [-]
	 SCS Opposite-Spin Scale   =       1.2000000000000000 [-]
	 SCS Same-Spin Energy      =      -0.1415953396207491 [Eh]
	 SCS Opposite-Spin Energy  =      -1.5192436617099558 [Eh]
	 SCS Correlation Energy    =      -1.6608390013307051 [Eh]
	 SCS Total Energy          =   -1224.3303392565169361 [Eh]
	-----------------------------------------------------------

  Dipole Moment: [D]
     X:     2.1247      Y:    -1.1690      Z:    -0.0001     Total:     2.4250

*** Psi4 exiting successfully. Buy a developer a beer!
