                               Psi4 1.4a3.dev225

  ==> Input File <==

--------------------------------------------------------------------------
#psi4
#
memory 32 gb

molecule  {
0 1
 Cl       -3.3762460     0.4715730     0.0000400
 Cl        3.3762460    -0.4715730    -0.0000500
  O       -1.8662040    -1.6703800    -0.0002000
  O        1.8662050     1.6703810     0.0002060
  C       -0.6363830     0.4167610     0.0000530
  C        0.6363830    -0.4167600    -0.0000420
  C       -1.8539110    -0.4669460    -0.0000590
  C        1.7729815     0.4082058     0.0000560
  H       -0.6849470     1.0764100    -0.8725500
  H       -0.6849540     1.0761990     0.8728160
  H        0.6849510    -1.0762020    -0.8728020
  H        0.6849480    -1.0764060     0.8725640
units angstrom
no_reorient  #important for SAPT in psi4, default
symmetry c1  #important for SAPT in psi4, default
}

set PROPERTIES_ORIGIN ["COM"]
properties('MP2/aug-cc-pvtz', properties = ['dipole'])
--------------------------------------------------------------------------

    Molecular point group: c1
  Charge       = 0
  Multiplicity = 1
  Basis Set: AUG-CC-PVTZ
    Blend: AUG-CC-PVTZ
  Basis Set: (AUG-CC-PVTZ AUX)
    Blend: AUG-CC-PVTZ-JKFIT

    Orbital Energies [Eh]
    ---------------------

    Doubly Occupied:

       1A   -104.868171     2A   -104.862721     3A    -20.611369
       4A    -20.605016     5A    -11.436134     6A    -11.430928
       7A    -11.297213     8A    -11.293781     9A    -10.592559
      10A    -10.586344    11A     -8.059207    12A     -8.057460
      13A     -8.057301    14A     -8.052934    15A     -8.051262
      16A     -8.051119    17A     -1.455116    18A     -1.411493
      19A     -1.169821    20A     -1.150153    21A     -1.112481
      22A     -0.998346    23A     -0.796635    24A     -0.788792
      25A     -0.714265    26A     -0.709598    27A     -0.691305
      28A     -0.654201    29A     -0.644531    30A     -0.625966
      31A     -0.575315    32A     -0.563455    33A     -0.535187
      34A     -0.497193    35A     -0.483459    36A     -0.479191
      37A     -0.472803    38A     -0.472646    39A     -0.463956

  @DF-RHF Final Energy: -1222.66675115718363

   => Energetics <=

    Nuclear Repulsion Energy =            470.4185861253859571
    One-Electron Energy =               -2619.4118288853946979
    Two-Electron Energy =                 926.3264916028251719
    Total Energy =                      -1222.6667511571836258
  Basis Set: (AUG-CC-PVTZ AUX)
    Blend: AUG-CC-PVTZ-RI
    Molecular point group: c1

    Geometry (in Angstrom), charge = 0, multiplicity = 1:

       Center              X                  Y                   Z               Mass
    ------------   -----------------  -----------------  -----------------  -----------------
         CL          -3.369938209853     0.476151193895     0.000040841134    34.968852682000
         CL           3.382553790147    -0.466994806105    -0.000049158866    34.968852682000
         O           -1.859896209853    -1.665801806105    -0.000199158866    15.994914619570
         O            1.872512790147     1.674959193895     0.000206841134    15.994914619570
         C           -0.630075209853     0.421339193895     0.000053841134    12.000000000000
         C            0.642690790147    -0.412181806105    -0.000041158866    12.000000000000
         C           -1.847603209853    -0.462367806105    -0.000058158866    12.000000000000
         C            1.779289290147     0.412783993895     0.000056841134    12.000000000000
         H           -0.678639209853     1.080988193895    -0.872549158866     1.007825032230
         H           -0.678646209853     1.080777193895     0.872816841134     1.007825032230
         H            0.691258790147    -1.071623806105    -0.872801158866     1.007825032230
         H            0.691255790147    -1.071827806105     0.872564841134     1.007825032230

  Basis Set: AUG-CC-PVTZ
    Blend: AUG-CC-PVTZ
  Basis Set: (AUG-CC-PVTZ AUX)
    Blend: AUG-CC-PVTZ-JKFIT
	 Reference Energy          =   -1222.6667511571836258 [Eh]
	 Singles Energy            =      -0.0000000000000000 [Eh]
	 Same-Spin Energy          =      -0.4283932471731146 [Eh]
	 Opposite-Spin Energy      =      -1.2745602288389570 [Eh]
	 Correlation Energy        =      -1.7029534760120715 [Eh]
	 Total Energy              =   -1224.3697046331956244 [Eh]

	 ================> DF-SCS-MP2 Energies <==================
	-----------------------------------------------------------
	 SCS Same-Spin Scale       =       0.3333333333333333 [-]
	 SCS Opposite-Spin Scale   =       1.2000000000000000 [-]
	 SCS Same-Spin Energy      =      -0.1427977490577048 [Eh]
	 SCS Opposite-Spin Energy  =      -1.5294722746067484 [Eh]
	 SCS Correlation Energy    =      -1.6722700236644532 [Eh]
	 SCS Total Energy          =   -1224.3390211808480217 [Eh]
	-----------------------------------------------------------

  Dipole Moment: [D]
     X:    -0.5086      Y:    -0.2025      Z:    -0.0000     Total:     0.5474

*** Psi4 exiting successfully. Buy a developer a beer!
