                               Psi4 1.4a3.dev225

  ==> Input File <==

--------------------------------------------------------------------------
#psi4
#
memory 32 gb

molecule  {
0 1
 Cl       -3.3762460     0.4715730     0.0000400
 Cl        3.3762460    -0.4715730    -0.0000500
  O       -1.8662040    -1.6703800    -0.0002000
  O        1.8662050     1.6703810     0.0002060
  C       -0.6363830     0.4167610     0.0000530
  C        0.6363830    -0.4167600    -0.0000420
  C       -1.8113493    -0.4931853    -0.0000618
  C        1.8539110     0.4669460     0.0000630
  H       -0.6849470     1.0764100    -0.8725500
  H       -0.6849540     1.0761990     0.8728160
  H        0.6849510    -1.0762020    -0.8728020
  H        0.6849480    -1.0764060     0.8725640
units angstrom
no_reorient  #important for SAPT in psi4, default
symmetry c1  #important for SAPT in psi4, default
}

set PROPERTIES_ORIGIN ["COM"]
properties('MP2/aug-cc-pvtz', properties = ['dipole'])
--------------------------------------------------------------------------

    Molecular point group: c1
  Charge       = 0
  Multiplicity = 1
  Basis Set: AUG-CC-PVTZ
    Blend: AUG-CC-PVTZ
  Basis Set: (AUG-CC-PVTZ AUX)
    Blend: AUG-CC-PVTZ-JKFIT

    Orbital Energies [Eh]
    ---------------------

    Doubly Occupied:

       1A   -104.866881     2A   -104.852483     3A    -20.616254
       4A    -20.609979     5A    -11.429475     6A    -11.428973
       7A    -11.294823     8A    -11.294188     9A    -10.591307
      10A    -10.576719    11A     -8.057954    12A     -8.056212
      13A     -8.056054    14A     -8.043278    15A     -8.041670
      16A     -8.041543    17A     -1.474517    18A     -1.453530
      19A     -1.162194    20A     -1.142210    21A     -1.105006
      22A     -0.980594    23A     -0.794986    24A     -0.788871
      25A     -0.722417    26A     -0.704874    27A     -0.693901
      28A     -0.659796    29A     -0.657082    30A     -0.629976
      31A     -0.579694    32A     -0.576926    33A     -0.545056
      34A     -0.492262    35A     -0.482385    36A     -0.475105
      37A     -0.473790    38A     -0.466325    39A     -0.462928

  @DF-RHF Final Energy: -1222.68867099672184

   => Energetics <=

    Nuclear Repulsion Energy =            470.4772693680509974
    One-Electron Energy =               -2619.5674528216645740
    Two-Electron Energy =                 926.4015124568915098
    Total Energy =                      -1222.6886709967220668
  Basis Set: (AUG-CC-PVTZ AUX)
    Blend: AUG-CC-PVTZ-RI
    Molecular point group: c1

    Geometry (in Angstrom), charge = 0, multiplicity = 1:

       Center              X                  Y                   Z               Mass
    ------------   -----------------  -----------------  -----------------  -----------------
         CL          -3.379563473662     0.473617979087     0.000040513773    34.968852682000
         CL           3.372928526338    -0.469528020913    -0.000049486227    34.968852682000
         O           -1.869521473662    -1.668335020913    -0.000199486227    15.994914619570
         O            1.862887526338     1.672425979087     0.000206513773    15.994914619570
         C           -0.639700473662     0.418805979087     0.000053513773    12.000000000000
         C            0.633065526338    -0.414715020913    -0.000041486227    12.000000000000
         C           -1.814666773662    -0.491140320913    -0.000061286227    12.000000000000
         C            1.850593526338     0.468990979087     0.000063513773    12.000000000000
         H           -0.688264473662     1.078454979087    -0.872549486227     1.007825032230
         H           -0.688271473662     1.078243979087     0.872816513773     1.007825032230
         H            0.681633526338    -1.074157020913    -0.872801486227     1.007825032230
         H            0.681630526338    -1.074361020913     0.872564513773     1.007825032230

  Basis Set: AUG-CC-PVTZ
    Blend: AUG-CC-PVTZ
  Basis Set: (AUG-CC-PVTZ AUX)
    Blend: AUG-CC-PVTZ-JKFIT
	 Reference Energy          =   -1222.6886709967218394 [Eh]
	 Singles Energy            =      -0.0000000000000000 [Eh]
	 Same-Spin Energy          =      -0.4252907382113658 [Eh]
	 Opposite-Spin Energy      =      -1.2681260203844833 [Eh]
	 Correlation Energy        =      -1.6934167585958491 [Eh]
	 Total Energy              =   -1224.3820877553177979 [Eh]

	 ================> DF-SCS-MP2 Energies <==================
	-----------------------------------------------------------
	 SCS Same-Spin Scale       =       0.3333333333333333 [-]
	 SCS Opposite-Spin Scale   =       1.2000000000000000 [-]
	 SCS Same-Spin Energy      =      -0.1417635794037886 [Eh]
	 SCS Opposite-Spin Energy  =      -1.5217512244613800 [Eh]
	 SCS Correlation Energy    =      -1.6635148038651686 [Eh]
	 SCS Total Energy          =   -1224.3521858005869944 [Eh]
	-----------------------------------------------------------

  Dipole Moment: [D]
     X:     0.4889      Y:    -0.2725      Z:    -0.0000     Total:     0.5597

*** Psi4 exiting successfully. Buy a developer a beer!
