                               Psi4 1.4a3.dev225

  ==> Input File <==

--------------------------------------------------------------------------
#psi4
#
memory 32 gb

molecule  {
0 1
 Cl       -3.3762460     0.4715730     0.0000400
 Cl        3.3762460    -0.4715730    -0.0000500
  O       -1.8662040    -1.6703800    -0.0002000
  O        1.8662050     1.6703810     0.0002060
  C       -0.6363830     0.4167610     0.0000530
  C        0.6363830    -0.4167600    -0.0000420
  C       -1.8539110    -0.4669460    -0.0000590
  C        1.8539110     0.4669460     0.0000630
  H       -0.6849470     1.0764100    -0.8725500
  H       -0.6849540     1.0761990     0.8728160
  H        0.6849510    -1.0762020    -0.8728020
  H        0.6858351    -1.0884548     0.8885026
units angstrom
no_reorient  #important for SAPT in psi4, default
symmetry c1  #important for SAPT in psi4, default
}

set PROPERTIES_ORIGIN ["COM"]
properties('MP2/aug-cc-pvtz', properties = ['dipole'])
--------------------------------------------------------------------------

    Molecular point group: c1
  Charge       = 0
  Multiplicity = 1
  Basis Set: AUG-CC-PVTZ
    Blend: AUG-CC-PVTZ
  Basis Set: (AUG-CC-PVTZ AUX)
    Blend: AUG-CC-PVTZ-JKFIT

    Orbital Energies [Eh]
    ---------------------

    Doubly Occupied:

       1A   -104.865224     2A   -104.865134     3A    -20.607900
       4A    -20.607869     5A    -11.427570     6A    -11.427505
       7A    -11.293752     8A    -11.291650     9A    -10.589657
      10A    -10.589568    11A     -8.056306    12A     -8.056216
      13A     -8.054565    14A     -8.054476    15A     -8.054407
      16A     -8.054318    17A     -1.452296    18A     -1.450785
      19A     -1.161509    20A     -1.150424    21A     -1.106002
      22A     -0.975500    23A     -0.793775    24A     -0.782779
      25A     -0.716120    26A     -0.698650    27A     -0.689929
      28A     -0.656814    29A     -0.652984    30A     -0.623786
      31A     -0.574484    32A     -0.570848    33A     -0.539114
      34A     -0.493572    35A     -0.481112    36A     -0.480135
      37A     -0.477868    38A     -0.468161    39A     -0.466289

  @DF-RHF Final Energy: -1222.68754741871771

   => Energetics <=

    Nuclear Repulsion Energy =            470.2567687897838482
    One-Electron Energy =               -2619.1705245368270880
    Two-Electron Energy =                 926.2262083283253560
    Total Energy =                      -1222.6875474187177133
  Basis Set: (AUG-CC-PVTZ AUX)
    Blend: AUG-CC-PVTZ-RI
    Molecular point group: c1

    Geometry (in Angstrom), charge = 0, multiplicity = 1:

       Center              X                  Y                   Z               Mass
    ------------   -----------------  -----------------  -----------------  -----------------
         CL          -3.376251897816     0.471651683887    -0.000064039629    34.968852682000
         CL           3.376240102184    -0.471494316113    -0.000154039629    34.968852682000
         O           -1.866209897816    -1.670301316113    -0.000304039629    15.994914619570
         O            1.866199102184     1.670459683887     0.000101960371    15.994914619570
         C           -0.636388897816     0.416839683887    -0.000051039629    12.000000000000
         C            0.636377102184    -0.416681316113    -0.000146039629    12.000000000000
         C           -1.853916897816    -0.466867316113    -0.000163039629    12.000000000000
         C            1.853905102184     0.467024683887    -0.000041039629    12.000000000000
         H           -0.684952897816     1.076488683887    -0.872654039629     1.007825032230
         H           -0.684959897816     1.076277683887     0.872711960371     1.007825032230
         H            0.684945102184    -1.076123316113    -0.872906039629     1.007825032230
         H            0.685829202184    -1.088376116113     0.888398560371     1.007825032230

  Basis Set: AUG-CC-PVTZ
    Blend: AUG-CC-PVTZ
  Basis Set: (AUG-CC-PVTZ AUX)
    Blend: AUG-CC-PVTZ-JKFIT
	 Reference Energy          =   -1222.6875474187177133 [Eh]
	 Singles Energy            =      -0.0000000000000000 [Eh]
	 Same-Spin Energy          =      -0.4257044499923463 [Eh]
	 Opposite-Spin Energy      =      -1.2692667128330943 [Eh]
	 Correlation Energy        =      -1.6949711628254407 [Eh]
	 Total Energy              =   -1224.3825185815430814 [Eh]

	 ================> DF-SCS-MP2 Energies <==================
	-----------------------------------------------------------
	 SCS Same-Spin Scale       =       0.3333333333333333 [-]
	 SCS Opposite-Spin Scale   =       1.2000000000000000 [-]
	 SCS Same-Spin Energy      =      -0.1419014833307821 [Eh]
	 SCS Opposite-Spin Energy  =      -1.5231200553997131 [Eh]
	 SCS Correlation Energy    =      -1.6650215387304952 [Eh]
	 SCS Total Energy          =   -1224.3525689574482840 [Eh]
	-----------------------------------------------------------

  Dipole Moment: [D]
     X:    -0.0038      Y:    -0.0015      Z:     0.0015     Total:     0.0043

*** Psi4 exiting successfully. Buy a developer a beer!
