                               Psi4 1.4a3.dev225

  ==> Input File <==

--------------------------------------------------------------------------
#psi4
#
memory 32 gb

molecule  {
0 1
 Cl       -3.4660084     0.3073044     0.0000201
 Cl        3.3762460    -0.4715730    -0.0000500
  O       -1.8662040    -1.6703800    -0.0002000
  O        1.8662050     1.6703810     0.0002060
  C       -0.6363830     0.4167610     0.0000530
  C        0.6363830    -0.4167600    -0.0000420
  C       -1.8539110    -0.4669460    -0.0000590
  C        1.8539110     0.4669460     0.0000630
  H       -0.6849470     1.0764100    -0.8725500
  H       -0.6849540     1.0761990     0.8728160
  H        0.6849510    -1.0762020    -0.8728020
  H        0.6849480    -1.0764060     0.8725640
units angstrom
no_reorient  #important for SAPT in psi4, default
symmetry c1  #important for SAPT in psi4, default
}

set PROPERTIES_ORIGIN ["COM"]
properties('MP2/aug-cc-pvtz', properties = ['dipole'])
--------------------------------------------------------------------------

    Molecular point group: c1
  Charge       = 0
  Multiplicity = 1
  Basis Set: AUG-CC-PVTZ
    Blend: AUG-CC-PVTZ
  Basis Set: (AUG-CC-PVTZ AUX)
    Blend: AUG-CC-PVTZ-JKFIT

    Orbital Energies [Eh]
    ---------------------

    Doubly Occupied:

       1A   -104.866325     2A   -104.862393     3A    -20.609001
       4A    -20.602829     5A    -11.428786     6A    -11.425569
       7A    -11.295334     8A    -11.293713     9A    -10.590736
      10A    -10.586761    11A     -8.057385    12A     -8.055641
      13A     -8.055483    14A     -8.053414    15A     -8.051650
      16A     -8.051505    17A     -1.452901    18A     -1.450084
      19A     -1.160197    20A     -1.145912    21A     -1.109366
      22A     -0.978720    23A     -0.793839    24A     -0.784061
      25A     -0.717607    26A     -0.700975    27A     -0.688593
      28A     -0.655411    29A     -0.654300    30A     -0.624145
      31A     -0.575428    32A     -0.571816    33A     -0.541593
      34A     -0.494944    35A     -0.481655    36A     -0.477722
      37A     -0.476185    38A     -0.469216    39A     -0.462694

  @DF-RHF Final Energy: -1222.68641183474733

   => Energetics <=

    Nuclear Repulsion Energy =            469.3916679212649683
    One-Electron Energy =               -2617.4483785523925690
    Two-Electron Energy =                 925.3702987963803253
    Total Energy =                      -1222.6864118347475596
  Basis Set: (AUG-CC-PVTZ AUX)
    Blend: AUG-CC-PVTZ-RI
    Molecular point group: c1

    Geometry (in Angstrom), charge = 0, multiplicity = 1:

       Center              X                  Y                   Z               Mass
    ------------   -----------------  -----------------  -----------------  -----------------
         CL          -3.445620650455     0.344614733512     0.000024915444    34.968852682000
         CL           3.396633749545    -0.434262666488    -0.000045184556    34.968852682000
         O           -1.845816250455    -1.633069666488    -0.000195184556    15.994914619570
         O            1.886592749545     1.707691333512     0.000210815444    15.994914619570
         C           -0.615995250455     0.454071333512     0.000057815444    12.000000000000
         C            0.656770749545    -0.379449666488    -0.000037184556    12.000000000000
         C           -1.833523250455    -0.429635666488    -0.000054184556    12.000000000000
         C            1.874298749545     0.504256333512     0.000067815444    12.000000000000
         H           -0.664559250455     1.113720333512    -0.872545184556     1.007825032230
         H           -0.664566250455     1.113509333512     0.872820815444     1.007825032230
         H            0.705338749545    -1.038891666488    -0.872797184556     1.007825032230
         H            0.705335749545    -1.039095666488     0.872568815444     1.007825032230

  Basis Set: AUG-CC-PVTZ
    Blend: AUG-CC-PVTZ
  Basis Set: (AUG-CC-PVTZ AUX)
    Blend: AUG-CC-PVTZ-JKFIT
	 Reference Energy          =   -1222.6864118347473323 [Eh]
	 Singles Energy            =      -0.0000000000000000 [Eh]
	 Same-Spin Energy          =      -0.4252983923232576 [Eh]
	 Opposite-Spin Energy      =      -1.2686064592124173 [Eh]
	 Correlation Energy        =      -1.6939048515356749 [Eh]
	 Total Energy              =   -1224.3803166862830949 [Eh]

	 ================> DF-SCS-MP2 Energies <==================
	-----------------------------------------------------------
	 SCS Same-Spin Scale       =       0.3333333333333333 [-]
	 SCS Opposite-Spin Scale   =       1.2000000000000000 [-]
	 SCS Same-Spin Energy      =      -0.1417661307744192 [Eh]
	 SCS Opposite-Spin Energy  =      -1.5223277510549007 [Eh]
	 SCS Correlation Energy    =      -1.6640938818293198 [Eh]
	 SCS Total Energy          =   -1224.3505057165766630 [Eh]
	-----------------------------------------------------------

  Dipole Moment: [D]
     X:     0.1501      Y:     0.0778      Z:     0.0000     Total:     0.1691

*** Psi4 exiting successfully. Buy a developer a beer!
