                               Psi4 1.4a3.dev225

  ==> Input File <==

--------------------------------------------------------------------------
#psi4
#
memory 32 gb

molecule  {
0 1
 Cl       -3.3762460     0.4715730     0.0000400
 Cl        3.3762460    -0.4715730    -0.0000500
  O       -1.8662040    -1.6703800    -0.0002000
  O        1.8662050     1.6703810     0.0002060
  C       -0.6363830     0.4167610     0.0000530
  C        0.6363830    -0.4167600    -0.0000420
  C       -1.8539110    -0.4669460    -0.0000590
  C        1.8539110     0.4669460     0.0000630
  H       -0.6849470     1.0764100    -0.8725500
  H       -0.6849540     1.0761990     0.8728160
  H        0.6849510    -1.0762020    -0.8728020
  H        0.6938187    -1.1968939     1.0319502
units angstrom
no_reorient  #important for SAPT in psi4, default
symmetry c1  #important for SAPT in psi4, default
}

set PROPERTIES_ORIGIN ["COM"]
properties('MP2/aug-cc-pvtz', properties = ['dipole'])
--------------------------------------------------------------------------

    Molecular point group: c1
  Charge       = 0
  Multiplicity = 1
  Basis Set: AUG-CC-PVTZ
    Blend: AUG-CC-PVTZ
  Basis Set: (AUG-CC-PVTZ AUX)
    Blend: AUG-CC-PVTZ-JKFIT

    Orbital Energies [Eh]
    ---------------------

    Doubly Occupied:

       1A   -104.865372     2A   -104.864516     3A    -20.608246
       4A    -20.607672     5A    -11.428342     6A    -11.427492
       7A    -11.311154     8A    -11.293079     9A    -10.589805
      10A    -10.588939    11A     -8.056453    12A     -8.055591
      13A     -8.054713    14A     -8.054556    15A     -8.053846
      16A     -8.053688    17A     -1.452376    18A     -1.450766
      19A     -1.160107    20A     -1.149873    21A     -1.103054
      22A     -0.970774    23A     -0.793625    24A     -0.776869
      25A     -0.715856    26A     -0.692385    27A     -0.687786
      28A     -0.656144    29A     -0.650947    30A     -0.620328
      31A     -0.573885    32A     -0.565292    33A     -0.523196
      34A     -0.493546    35A     -0.480964    36A     -0.479559
      37A     -0.477268    38A     -0.467474    39A     -0.466630

  @DF-RHF Final Energy: -1222.66734473745487

   => Energetics <=

    Nuclear Repulsion Energy =            469.4333646292488424
    One-Electron Energy =               -2617.5570837305958776
    Two-Electron Energy =                 925.4563743638919959
    Total Energy =                      -1222.6673447374550960
  Basis Set: (AUG-CC-PVTZ AUX)
    Blend: AUG-CC-PVTZ-RI
    Molecular point group: c1

    Geometry (in Angstrom), charge = 0, multiplicity = 1:

       Center              X                  Y                   Z               Mass
    ------------   -----------------  -----------------  -----------------  -----------------
         CL          -3.376304159006     0.472361533631    -0.001003057402    34.968852682000
         CL           3.376187840994    -0.470784466369    -0.001093057402    34.968852682000
         O           -1.866262159006    -1.669591466369    -0.001243057402    15.994914619570
         O            1.866146840994     1.671169533631    -0.000837057402    15.994914619570
         C           -0.636441159006     0.417549533631    -0.000990057402    12.000000000000
         C            0.636324840994    -0.415971466369    -0.001085057402    12.000000000000
         C           -1.853969159006    -0.466157466369    -0.001102057402    12.000000000000
         C            1.853852840994     0.467734533631    -0.000980057402    12.000000000000
         H           -0.685005159006     1.077198533631    -0.873593057402     1.007825032230
         H           -0.685012159006     1.076987533631     0.871772942598     1.007825032230
         H            0.684892840994    -1.075413466369    -0.873845057402     1.007825032230
         H            0.693760540994    -1.196105366369     1.030907142598     1.007825032230

  Basis Set: AUG-CC-PVTZ
    Blend: AUG-CC-PVTZ
  Basis Set: (AUG-CC-PVTZ AUX)
    Blend: AUG-CC-PVTZ-JKFIT
	 Reference Energy          =   -1222.6673447374548687 [Eh]
	 Singles Energy            =      -0.0000000000000000 [Eh]
	 Same-Spin Energy          =      -0.4260572074594708 [Eh]
	 Opposite-Spin Energy      =      -1.2710367859441833 [Eh]
	 Correlation Energy        =      -1.6970939934036542 [Eh]
	 Total Energy              =   -1224.3644387308584101 [Eh]

	 ================> DF-SCS-MP2 Energies <==================
	-----------------------------------------------------------
	 SCS Same-Spin Scale       =       0.3333333333333333 [-]
	 SCS Opposite-Spin Scale   =       1.2000000000000000 [-]
	 SCS Same-Spin Energy      =      -0.1420190691531569 [Eh]
	 SCS Opposite-Spin Energy  =      -1.5252441431330199 [Eh]
	 SCS Correlation Energy    =      -1.6672632122861768 [Eh]
	 SCS Total Energy          =   -1224.3346079497409846 [Eh]
	-----------------------------------------------------------

  Dipole Moment: [D]
     X:    -0.0371      Y:    -0.0066      Z:     0.0065     Total:     0.0382

*** Psi4 exiting successfully. Buy a developer a beer!
