                               Psi4 1.4a3.dev225

  ==> Input File <==

--------------------------------------------------------------------------
#psi4
#
memory 32 gb

molecule  {
0 1
 Cl       -3.3762460     0.4715730     0.0000400
 Cl        3.3762460    -0.4715730    -0.0000500
  O       -1.9501214    -1.6665910    -0.0002001
  O        1.8662050     1.6703810     0.0002060
  C       -0.6363830     0.4167610     0.0000530
  C        0.6363830    -0.4167600    -0.0000420
  C       -1.8539110    -0.4669460    -0.0000590
  C        1.8539110     0.4669460     0.0000630
  H       -0.6849470     1.0764100    -0.8725500
  H       -0.6849540     1.0761990     0.8728160
  H        0.6849510    -1.0762020    -0.8728020
  H        0.6849480    -1.0764060     0.8725640
units angstrom
no_reorient  #important for SAPT in psi4, default
symmetry c1  #important for SAPT in psi4, default
}

set PROPERTIES_ORIGIN ["COM"]
properties('MP2/aug-cc-pvtz', properties = ['dipole'])
--------------------------------------------------------------------------

    Molecular point group: c1
  Charge       = 0
  Multiplicity = 1
  Basis Set: AUG-CC-PVTZ
    Blend: AUG-CC-PVTZ
  Basis Set: (AUG-CC-PVTZ AUX)
    Blend: AUG-CC-PVTZ-JKFIT

    Orbital Energies [Eh]
    ---------------------

    Doubly Occupied:

       1A   -104.866644     2A   -104.859412     3A    -20.609629
       4A    -20.607743     5A    -11.429293     6A    -11.427886
       7A    -11.295501     8A    -11.294035     9A    -10.591063
      10A    -10.584152    11A     -8.057711    12A     -8.055968
      13A     -8.055810    14A     -8.050791    15A     -8.049063
      16A     -8.048915    17A     -1.453479    18A     -1.451264
      19A     -1.162432    20A     -1.148830    21A     -1.107737
      22A     -0.978466    23A     -0.794113    24A     -0.785953
      25A     -0.716877    26A     -0.701710    27A     -0.690292
      28A     -0.656613    29A     -0.655578    30A     -0.625490
      31A     -0.577776    32A     -0.573017    33A     -0.542183
      34A     -0.494543    35A     -0.482068    36A     -0.476645
      37A     -0.476246    38A     -0.467820    39A     -0.464495

  @DF-RHF Final Energy: -1222.68727712609734

   => Energetics <=

    Nuclear Repulsion Energy =            470.0080848575199184
    One-Electron Energy =               -2618.6562343772102395
    Two-Electron Energy =                 925.9608723935930357
    Total Energy =                      -1222.6872771260973423
  Basis Set: (AUG-CC-PVTZ AUX)
    Blend: AUG-CC-PVTZ-RI
    Molecular point group: c1

    Geometry (in Angstrom), charge = 0, multiplicity = 1:

       Center              X                  Y                   Z               Mass
    ------------   -----------------  -----------------  -----------------  -----------------
         CL          -3.367527840557     0.471179169179     0.000040305922    34.968852682000
         CL           3.384964159443    -0.471966830821    -0.000049694078    34.968852682000
         O           -1.941403240557    -1.666984830821    -0.000199794078    15.994914619570
         O            1.874923159443     1.669987169179     0.000206305922    15.994914619570
         C           -0.627664840557     0.416367169179     0.000053305922    12.000000000000
         C            0.645101159443    -0.417153830821    -0.000041694078    12.000000000000
         C           -1.845192840557    -0.467339830821    -0.000058694078    12.000000000000
         C            1.862629159443     0.466552169179     0.000063305922    12.000000000000
         H           -0.676228840557     1.076016169179    -0.872549694078     1.007825032230
         H           -0.676235840557     1.075805169179     0.872816305922     1.007825032230
         H            0.693669159443    -1.076595830821    -0.872801694078     1.007825032230
         H            0.693666159443    -1.076799830821     0.872564305922     1.007825032230

  Basis Set: AUG-CC-PVTZ
    Blend: AUG-CC-PVTZ
  Basis Set: (AUG-CC-PVTZ AUX)
    Blend: AUG-CC-PVTZ-JKFIT
	 Reference Energy          =   -1222.6872771260973423 [Eh]
	 Singles Energy            =      -0.0000000000000000 [Eh]
	 Same-Spin Energy          =      -0.4256166244416402 [Eh]
	 Opposite-Spin Energy      =      -1.2689821622935793 [Eh]
	 Correlation Energy        =      -1.6945987867352195 [Eh]
	 Total Energy              =   -1224.3818759128325837 [Eh]

	 ================> DF-SCS-MP2 Energies <==================
	-----------------------------------------------------------
	 SCS Same-Spin Scale       =       0.3333333333333333 [-]
	 SCS Opposite-Spin Scale   =       1.2000000000000000 [-]
	 SCS Same-Spin Energy      =      -0.1418722081472134 [Eh]
	 SCS Opposite-Spin Energy  =      -1.5227785947522952 [Eh]
	 SCS Correlation Energy    =      -1.6646508028995086 [Eh]
	 SCS Total Energy          =   -1224.3519279289969290 [Eh]
	-----------------------------------------------------------

  Dipole Moment: [D]
     X:     0.2632      Y:    -0.0290      Z:     0.0000     Total:     0.2648

*** Psi4 exiting successfully. Buy a developer a beer!
