                               Psi4 1.4a3.dev225

  ==> Input File <==

--------------------------------------------------------------------------
#psi4
#
memory 32 gb

molecule  {
0 1
 Cl       -3.3762460     0.4715730     0.0000400
 Cl        3.3762460    -0.4715730    -0.0000500
  O       -1.8662040    -1.6703800    -0.0002000
  O        1.8662050     1.6703810     0.0002060
  C       -0.6363830     0.4167610     0.0000530
  C        0.6206092    -0.4391493    -0.0455393
  C       -1.8539110    -0.4669460    -0.0000590
  C        1.8539110     0.4669460     0.0000630
  H       -0.6849470     1.0764100    -0.8725500
  H       -0.6849540     1.0761990     0.8728160
  H        0.6849510    -1.0762020    -0.8728020
  H        0.6849480    -1.0764060     0.8725640
units angstrom
no_reorient  #important for SAPT in psi4, default
symmetry c1  #important for SAPT in psi4, default
}

set PROPERTIES_ORIGIN ["COM"]
properties('MP2/aug-cc-pvtz', properties = ['dipole'])
--------------------------------------------------------------------------

    Molecular point group: c1
  Charge       = 0
  Multiplicity = 1
  Basis Set: AUG-CC-PVTZ
    Blend: AUG-CC-PVTZ
  Basis Set: (AUG-CC-PVTZ AUX)
    Blend: AUG-CC-PVTZ-JKFIT

    Orbital Energies [Eh]
    ---------------------

    Doubly Occupied:

       1A   -104.864890     2A   -104.864785     3A    -20.608460
       4A    -20.607789     5A    -11.428187     6A    -11.427117
       7A    -11.292100     8A    -11.291461     9A    -10.589337
      10A    -10.589241    11A     -8.055981    12A     -8.055888
      13A     -8.054246    14A     -8.054152    15A     -8.054085
      16A     -8.053994    17A     -1.452161    18A     -1.450634
      19A     -1.160932    20A     -1.149808    21A     -1.106276
      22A     -0.973807    23A     -0.792668    24A     -0.785321
      25A     -0.715475    26A     -0.701245    27A     -0.689331
      28A     -0.657069    29A     -0.650167    30A     -0.624458
      31A     -0.580869    32A     -0.571363    33A     -0.541731
      34A     -0.492767    35A     -0.480916    36A     -0.480029
      37A     -0.477820    38A     -0.467766    39A     -0.463515

  @DF-RHF Final Energy: -1222.68524987943556

   => Energetics <=

    Nuclear Repulsion Energy =            470.1274802787571616
    One-Electron Energy =               -2618.9097741506843704
    Two-Electron Energy =                 926.0970439924917628
    Total Energy =                      -1222.6852498794355597
  Basis Set: (AUG-CC-PVTZ AUX)
    Blend: AUG-CC-PVTZ-RI
    Molecular point group: c1

    Geometry (in Angstrom), charge = 0, multiplicity = 1:

       Center              X                  Y                   Z               Mass
    ------------   -----------------  -----------------  -----------------  -----------------
         CL          -3.375016634884     0.473317898873     0.003586487611    34.968852682000
         CL           3.377475365116    -0.469828101127     0.003496487611    34.968852682000
         O           -1.864974634884    -1.668635101127     0.003346487611    15.994914619570
         O            1.867434365116     1.672125898873     0.003752487611    15.994914619570
         C           -0.635153634884     0.418505898873     0.003599487611    12.000000000000
         C            0.621838565116    -0.437404401127    -0.041992812389    12.000000000000
         C           -1.852681634884    -0.465201101127     0.003487487611    12.000000000000
         C            1.855140365116     0.468690898873     0.003609487611    12.000000000000
         H           -0.683717634884     1.078154898873    -0.869003512389     1.007825032230
         H           -0.683724634884     1.077943898873     0.876362487611     1.007825032230
         H            0.686180365116    -1.074457101127    -0.869255512389     1.007825032230
         H            0.686177365116    -1.074661101127     0.876110487611     1.007825032230

  Basis Set: AUG-CC-PVTZ
    Blend: AUG-CC-PVTZ
  Basis Set: (AUG-CC-PVTZ AUX)
    Blend: AUG-CC-PVTZ-JKFIT
	 Reference Energy          =   -1222.6852498794355597 [Eh]
	 Singles Energy            =      -0.0000000000000000 [Eh]
	 Same-Spin Energy          =      -0.4255633818804255 [Eh]
	 Opposite-Spin Energy      =      -1.2690853905287711 [Eh]
	 Correlation Energy        =      -1.6946487724091965 [Eh]
	 Total Energy              =   -1224.3798986518447691 [Eh]

	 ================> DF-SCS-MP2 Energies <==================
	-----------------------------------------------------------
	 SCS Same-Spin Scale       =       0.3333333333333333 [-]
	 SCS Opposite-Spin Scale   =       1.2000000000000000 [-]
	 SCS Same-Spin Energy      =      -0.1418544606268085 [Eh]
	 SCS Opposite-Spin Energy  =      -1.5229024686345254 [Eh]
	 SCS Correlation Energy    =      -1.6647569292613338 [Eh]
	 SCS Total Energy          =   -1224.3500068086968895 [Eh]
	-----------------------------------------------------------

  Dipole Moment: [D]
     X:     0.0258      Y:     0.0213      Z:    -0.0207     Total:     0.0393

*** Psi4 exiting successfully. Buy a developer a beer!
