                               Psi4 1.4a3.dev225

  ==> Input File <==

--------------------------------------------------------------------------
#psi4
#
memory 32 gb

molecule  {
0 1
 Cl       -3.3762460     0.4715730     0.0000400
 Cl        3.3762460    -0.4715730    -0.0000500
  O       -1.8662040    -1.6703800    -0.0002000
  O        1.8662050     1.6703810     0.0002060
  C       -0.6363830     0.4167610     0.0000530
  C        0.6363830    -0.4167600    -0.0000420
  C       -1.9390344    -0.4144674    -0.0000535
  C        1.8539110     0.4669460     0.0000630
  H       -0.6849470     1.0764100    -0.8725500
  H       -0.6849540     1.0761990     0.8728160
  H        0.6849510    -1.0762020    -0.8728020
  H        0.6849480    -1.0764060     0.8725640
units angstrom
no_reorient  #important for SAPT in psi4, default
symmetry c1  #important for SAPT in psi4, default
}

set PROPERTIES_ORIGIN ["COM"]
properties('MP2/aug-cc-pvtz', properties = ['dipole'])
--------------------------------------------------------------------------

    Molecular point group: c1
  Charge       = 0
  Multiplicity = 1
  Basis Set: AUG-CC-PVTZ
    Blend: AUG-CC-PVTZ
  Basis Set: (AUG-CC-PVTZ AUX)
    Blend: AUG-CC-PVTZ-JKFIT

    Orbital Energies [Eh]
    ---------------------

    Doubly Occupied:

       1A   -104.887246     2A   -104.862427     3A    -20.604334
       4A    -20.593157     5A    -11.426303     6A    -11.424224
       7A    -11.287859     8A    -11.286685     9A    -10.612746
      10A    -10.586871    11A     -8.079615    12A     -8.077572
      13A     -8.077333    14A     -8.053521    15A     -8.051783
      16A     -8.051625    17A     -1.448148    18A     -1.407671
      19A     -1.188655    20A     -1.152661    21A     -1.100777
      22A     -0.967289    23A     -0.794694    24A     -0.776703
      25A     -0.708956    26A     -0.691640    27A     -0.681666
      28A     -0.655725    29A     -0.643838    30A     -0.617159
      31A     -0.567603    32A     -0.566503    33A     -0.533116
      34A     -0.501589    35A     -0.482890    36A     -0.479364
      37A     -0.477838    38A     -0.466669    39A     -0.464918

  @DF-RHF Final Energy: -1222.67394950619337

   => Energetics <=

    Nuclear Repulsion Energy =            470.2324493572043025
    One-Electron Energy =               -2619.1340518367014738
    Two-Electron Energy =                 926.2276529733040888
    Total Energy =                      -1222.6739495061933667
  Basis Set: (AUG-CC-PVTZ AUX)
    Blend: AUG-CC-PVTZ-RI
    Molecular point group: c1

    Geometry (in Angstrom), charge = 0, multiplicity = 1:

       Center              X                  Y                   Z               Mass
    ------------   -----------------  -----------------  -----------------  -----------------
         CL          -3.369611325072     0.467482476687     0.000039866847    34.968852682000
         CL           3.382880674928    -0.475663523313    -0.000050133153    34.968852682000
         O           -1.859569325072    -1.674470523313    -0.000200133153    15.994914619570
         O            1.872839674928     1.666290476687     0.000205866847    15.994914619570
         C           -0.629748325072     0.412670476687     0.000052866847    12.000000000000
         C            0.643017674928    -0.420850523313    -0.000042133153    12.000000000000
         C           -1.932399725072    -0.418557923313    -0.000053633153    12.000000000000
         C            1.860545674928     0.462855476687     0.000062866847    12.000000000000
         H           -0.678312325072     1.072319476687    -0.872550133153     1.007825032230
         H           -0.678319325072     1.072108476687     0.872815866847     1.007825032230
         H            0.691585674928    -1.080292523313    -0.872802133153     1.007825032230
         H            0.691582674928    -1.080496523313     0.872563866847     1.007825032230

  Basis Set: AUG-CC-PVTZ
    Blend: AUG-CC-PVTZ
  Basis Set: (AUG-CC-PVTZ AUX)
    Blend: AUG-CC-PVTZ-JKFIT
	 Reference Energy          =   -1222.6739495061933667 [Eh]
	 Singles Energy            =      -0.0000000000000000 [Eh]
	 Same-Spin Energy          =      -0.4270676336262478 [Eh]
	 Opposite-Spin Energy      =      -1.2720882658411958 [Eh]
	 Correlation Energy        =      -1.6991558994674436 [Eh]
	 Total Energy              =   -1224.3731054056609082 [Eh]

	 ================> DF-SCS-MP2 Energies <==================
	-----------------------------------------------------------
	 SCS Same-Spin Scale       =       0.3333333333333333 [-]
	 SCS Opposite-Spin Scale   =       1.2000000000000000 [-]
	 SCS Same-Spin Energy      =      -0.1423558778754159 [Eh]
	 SCS Opposite-Spin Energy  =      -1.5265059190094350 [Eh]
	 SCS Correlation Energy    =      -1.6688617968848509 [Eh]
	 SCS Total Energy          =   -1224.3428113030781788 [Eh]
	-----------------------------------------------------------

  Dipole Moment: [D]
     X:    -0.8872      Y:     0.4951      Z:     0.0001     Total:     1.0160

*** Psi4 exiting successfully. Buy a developer a beer!
