                               Psi4 1.4a3.dev225

  ==> Input File <==

--------------------------------------------------------------------------
#psi4
#
memory 32 gb

molecule  {
0 1
 Cl       -3.3762460     0.4715730     0.0000400
 Cl        3.3762460    -0.4715730    -0.0000500
  O       -1.8451993    -1.6704113    -0.0001999
  O        1.8662050     1.6703810     0.0002060
  C       -0.6363830     0.4167610     0.0000530
  C        0.6363830    -0.4167600    -0.0000420
  C       -1.8539110    -0.4669460    -0.0000590
  C        1.8539110     0.4669460     0.0000630
  H       -0.6849470     1.0764100    -0.8725500
  H       -0.6849540     1.0761990     0.8728160
  H        0.6849510    -1.0762020    -0.8728020
  H        0.6849480    -1.0764060     0.8725640
units angstrom
no_reorient  #important for SAPT in psi4, default
symmetry c1  #important for SAPT in psi4, default
}

set PROPERTIES_ORIGIN ["COM"]
properties('MP2/aug-cc-pvtz', properties = ['dipole'])
--------------------------------------------------------------------------

    Molecular point group: c1
  Charge       = 0
  Multiplicity = 1
  Basis Set: AUG-CC-PVTZ
    Blend: AUG-CC-PVTZ
  Basis Set: (AUG-CC-PVTZ AUX)
    Blend: AUG-CC-PVTZ-JKFIT

    Orbital Energies [Eh]
    ---------------------

    Doubly Occupied:

       1A   -104.866623     2A   -104.864845     3A    -20.607902
       4A    -20.607445     5A    -11.427436     6A    -11.427050
       7A    -11.291122     8A    -11.290412     9A    -10.590984
      10A    -10.589283    11A     -8.057635    12A     -8.055931
      13A     -8.055890    14A     -8.055730    15A     -8.054192
      16A     -8.054034    17A     -1.452183    18A     -1.450557
      19A     -1.161729    20A     -1.150803    21A     -1.106114
      22A     -0.975696    23A     -0.793858    24A     -0.783152
      25A     -0.716089    26A     -0.699308    27A     -0.689940
      28A     -0.657073    29A     -0.652564    30A     -0.623892
      31A     -0.574289    32A     -0.570854    33A     -0.539801
      34A     -0.493451    35A     -0.481863    36A     -0.480169
      37A     -0.478464    38A     -0.468239    39A     -0.466212

  @DF-RHF Final Energy: -1222.68794521856512

   => Energetics <=

    Nuclear Repulsion Energy =            470.4626567685421037
    One-Electron Energy =               -2619.5755708202232199
    Two-Electron Energy =                 926.4249688331155994
    Total Energy =                      -1222.6879452185653463
  Basis Set: (AUG-CC-PVTZ AUX)
    Blend: AUG-CC-PVTZ-RI
    Molecular point group: c1

    Geometry (in Angstrom), charge = 0, multiplicity = 1:

       Center              X                  Y                   Z               Mass
    ------------   -----------------  -----------------  -----------------  -----------------
         CL          -3.378428286992     0.471576063404     0.000040285144    34.968852682000
         CL           3.374063713008    -0.471569936596    -0.000049714856    34.968852682000
         O           -1.847381586992    -1.670408236596    -0.000199614856    15.994914619570
         O            1.864022713008     1.670384063404     0.000206285144    15.994914619570
         C           -0.638565286992     0.416764063404     0.000053285144    12.000000000000
         C            0.634200713008    -0.416756936596    -0.000041714856    12.000000000000
         C           -1.856093286992    -0.466942936596    -0.000058714856    12.000000000000
         C            1.851728713008     0.466949063404     0.000063285144    12.000000000000
         H           -0.687129286992     1.076413063404    -0.872549714856     1.007825032230
         H           -0.687136286992     1.076202063404     0.872816285144     1.007825032230
         H            0.682768713008    -1.076198936596    -0.872801714856     1.007825032230
         H            0.682765713008    -1.076402936596     0.872564285144     1.007825032230

  Basis Set: AUG-CC-PVTZ
    Blend: AUG-CC-PVTZ
  Basis Set: (AUG-CC-PVTZ AUX)
    Blend: AUG-CC-PVTZ-JKFIT
	 Reference Energy          =   -1222.6879452185651189 [Eh]
	 Singles Energy            =      -0.0000000000000000 [Eh]
	 Same-Spin Energy          =      -0.4256996671238358 [Eh]
	 Opposite-Spin Energy      =      -1.2691799544457170 [Eh]
	 Correlation Energy        =      -1.6948796215695527 [Eh]
	 Total Energy              =   -1224.3828248401346173 [Eh]

	 ================> DF-SCS-MP2 Energies <==================
	-----------------------------------------------------------
	 SCS Same-Spin Scale       =       0.3333333333333333 [-]
	 SCS Opposite-Spin Scale   =       1.2000000000000000 [-]
	 SCS Same-Spin Energy      =      -0.1418998890412786 [Eh]
	 SCS Opposite-Spin Energy  =      -1.5230159453348604 [Eh]
	 SCS Correlation Energy    =      -1.6649158343761390 [Eh]
	 SCS Total Energy          =   -1224.3528610529413072 [Eh]
	-----------------------------------------------------------

  Dipole Moment: [D]
     X:    -0.0658      Y:     0.0046      Z:     0.0000     Total:     0.0660

*** Psi4 exiting successfully. Buy a developer a beer!
