                               Psi4 1.4a3.dev225

  ==> Input File <==

--------------------------------------------------------------------------
#psi4
#
memory 32 gb

molecule  {
0 1
 Cl       -3.3762460     0.4715730     0.0000400
 Cl        3.3762460    -0.4715730    -0.0000500
  O       -1.8662040    -1.6703800    -0.0002000
  O        1.8662050     1.6703810     0.0002060
  C       -0.6363830     0.4167610     0.0000530
  C        0.6506061    -0.3933552     0.0454554
  C       -1.8539110    -0.4669460    -0.0000590
  C        1.8539110     0.4669460     0.0000630
  H       -0.6849470     1.0764100    -0.8725500
  H       -0.6849540     1.0761990     0.8728160
  H        0.6849510    -1.0762020    -0.8728020
  H        0.6849480    -1.0764060     0.8725640
units angstrom
no_reorient  #important for SAPT in psi4, default
symmetry c1  #important for SAPT in psi4, default
}

set PROPERTIES_ORIGIN ["COM"]
properties('MP2/aug-cc-pvtz', properties = ['dipole'])
--------------------------------------------------------------------------

    Molecular point group: c1
  Charge       = 0
  Multiplicity = 1
  Basis Set: AUG-CC-PVTZ
    Blend: AUG-CC-PVTZ
  Basis Set: (AUG-CC-PVTZ AUX)
    Blend: AUG-CC-PVTZ-JKFIT

    Orbital Energies [Eh]
    ---------------------

    Doubly Occupied:

       1A   -104.865718     2A   -104.865505     3A    -20.608101
       4A    -20.607113     5A    -11.428011     6A    -11.426830
       7A    -11.292284     8A    -11.291552     9A    -10.590128
      10A    -10.589919    11A     -8.056778    12A     -8.056571
      13A     -8.055033    14A     -8.054876    15A     -8.054824
      16A     -8.054670    17A     -1.452484    18A     -1.450941
      19A     -1.162717    20A     -1.151128    21A     -1.106982
      22A     -0.979111    23A     -0.795336    24A     -0.783412
      25A     -0.717561    26A     -0.698081    27A     -0.690784
      28A     -0.656939    29A     -0.655947    30A     -0.624569
      31A     -0.574511    32A     -0.569020    33A     -0.533433
      34A     -0.494380    35A     -0.481368    36A     -0.480463
      37A     -0.477795    38A     -0.469285    39A     -0.467864

  @DF-RHF Final Energy: -1222.68507526724238

   => Energetics <=

    Nuclear Repulsion Energy =            470.5704716768470917
    One-Electron Energy =               -2619.7670522142379923
    Two-Electron Energy =                 926.5115052701487457
    Total Energy =                      -1222.6850752672423823
  Basis Set: (AUG-CC-PVTZ AUX)
    Blend: AUG-CC-PVTZ-RI
    Molecular point group: c1

    Geometry (in Angstrom), charge = 0, multiplicity = 1:

       Center              X                  Y                   Z               Mass
    ------------   -----------------  -----------------  -----------------  -----------------
         CL          -3.377354680639     0.469748573339    -0.003505904339    34.968852682000
         CL           3.375137319361    -0.473397426661    -0.003595904339    34.968852682000
         O           -1.867312680639    -1.672204426661    -0.003745904339    15.994914619570
         O            1.865096319361     1.668556573339    -0.003339904339    15.994914619570
         C           -0.637491680639     0.414936573339    -0.003492904339    12.000000000000
         C            0.649497419361    -0.395179626661     0.041909495661    12.000000000000
         C           -1.855019680639    -0.468770426661    -0.003604904339    12.000000000000
         C            1.852802319361     0.465121573339    -0.003482904339    12.000000000000
         H           -0.686055680639     1.074585573339    -0.876095904339     1.007825032230
         H           -0.686062680639     1.074374573339     0.869270095661     1.007825032230
         H            0.683842319361    -1.078026426661    -0.876347904339     1.007825032230
         H            0.683839319361    -1.078230426661     0.869018095661     1.007825032230

  Basis Set: AUG-CC-PVTZ
    Blend: AUG-CC-PVTZ
  Basis Set: (AUG-CC-PVTZ AUX)
    Blend: AUG-CC-PVTZ-JKFIT
	 Reference Energy          =   -1222.6850752672423823 [Eh]
	 Singles Energy            =      -0.0000000000000000 [Eh]
	 Same-Spin Energy          =      -0.4259121089369901 [Eh]
	 Opposite-Spin Energy      =      -1.2694778617317268 [Eh]
	 Correlation Energy        =      -1.6953899706687170 [Eh]
	 Total Energy              =   -1224.3804652379110394 [Eh]

	 ================> DF-SCS-MP2 Energies <==================
	-----------------------------------------------------------
	 SCS Same-Spin Scale       =       0.3333333333333333 [-]
	 SCS Opposite-Spin Scale   =       1.2000000000000000 [-]
	 SCS Same-Spin Energy      =      -0.1419707029789967 [Eh]
	 SCS Opposite-Spin Energy  =      -1.5233734340780722 [Eh]
	 SCS Correlation Energy    =      -1.6653441370570690 [Eh]
	 SCS Total Energy          =   -1224.3504194042993731 [Eh]
	-----------------------------------------------------------

  Dipole Moment: [D]
     X:    -0.0343      Y:    -0.0206      Z:     0.0214     Total:     0.0454

*** Psi4 exiting successfully. Buy a developer a beer!
