                               Psi4 1.4a3.dev225

  ==> Input File <==

--------------------------------------------------------------------------
#psi4
#
memory 32 gb

molecule  {
0 1
 Cl       -3.3762460     0.4715730     0.0000400
 Cl        3.3762460    -0.4715730    -0.0000500
  O       -1.8662040    -1.6703800    -0.0002000
  O        1.8662050     1.6703810     0.0002060
  C       -0.6363830     0.4167610     0.0000530
  C        0.6286888    -0.4280833    -0.0227941
  C       -1.8539110    -0.4669460    -0.0000590
  C        1.8539110     0.4669460     0.0000630
  H       -0.6849470     1.0764100    -0.8725500
  H       -0.6849540     1.0761990     0.8728160
  H        0.6849510    -1.0762020    -0.8728020
  H        0.6849480    -1.0764060     0.8725640
units angstrom
no_reorient  #important for SAPT in psi4, default
symmetry c1  #important for SAPT in psi4, default
}

set PROPERTIES_ORIGIN ["COM"]
properties('MP2/aug-cc-pvtz', properties = ['dipole'])
--------------------------------------------------------------------------

    Molecular point group: c1
  Charge       = 0
  Multiplicity = 1
  Basis Set: AUG-CC-PVTZ
    Blend: AUG-CC-PVTZ
  Basis Set: (AUG-CC-PVTZ AUX)
    Blend: AUG-CC-PVTZ-JKFIT

    Orbital Energies [Eh]
    ---------------------

    Doubly Occupied:

       1A   -104.865054     2A   -104.864989     3A    -20.608200
       4A    -20.607827     5A    -11.427851     6A    -11.427300
       7A    -11.291929     8A    -11.291291     9A    -10.589496
      10A    -10.589434    11A     -8.056142    12A     -8.056081
      13A     -8.054405    14A     -8.054343    15A     -8.054245
      16A     -8.054185    17A     -1.452227    18A     -1.450716
      19A     -1.161335    20A     -1.150158    21A     -1.106360
      22A     -0.974967    23A     -0.793243    24A     -0.784365
      25A     -0.715764    26A     -0.700554    27A     -0.689647
      28A     -0.657028    29A     -0.651704    30A     -0.624238
      31A     -0.577413    32A     -0.571542    33A     -0.541633
      34A     -0.493175    35A     -0.481024    36A     -0.480096
      37A     -0.477896    38A     -0.467969    39A     -0.464979

  @DF-RHF Final Energy: -1222.68748805033465

   => Energetics <=

    Nuclear Repulsion Energy =            470.2435627393930986
    One-Electron Energy =               -2619.1404963552927256
    Two-Electron Energy =                 926.2094455655650336
    Total Energy =                      -1222.6874880503346503
  Basis Set: (AUG-CC-PVTZ AUX)
    Blend: AUG-CC-PVTZ-RI
    Molecular point group: c1

    Geometry (in Angstrom), charge = 0, multiplicity = 1:

       Center              X                  Y                   Z               Mass
    ------------   -----------------  -----------------  -----------------  -----------------
         CL          -3.375646382441     0.472455382602     0.001813660475    34.968852682000
         CL           3.376845617559    -0.470690617398     0.001723660475    34.968852682000
         O           -1.865604382441    -1.669497617398     0.001573660475    15.994914619570
         O            1.866804617559     1.671263382602     0.001979660475    15.994914619570
         C           -0.635783382441     0.417643382602     0.001826660475    12.000000000000
         C            0.629288417559    -0.427200917398    -0.021020439525    12.000000000000
         C           -1.853311382441    -0.466063617398     0.001714660475    12.000000000000
         C            1.854510617559     0.467828382602     0.001836660475    12.000000000000
         H           -0.684347382441     1.077292382602    -0.870776339525     1.007825032230
         H           -0.684354382441     1.077081382602     0.874589660475     1.007825032230
         H            0.685550617559    -1.075319617398    -0.871028339525     1.007825032230
         H            0.685547617559    -1.075523617398     0.874337660475     1.007825032230

  Basis Set: AUG-CC-PVTZ
    Blend: AUG-CC-PVTZ
  Basis Set: (AUG-CC-PVTZ AUX)
    Blend: AUG-CC-PVTZ-JKFIT
	 Reference Energy          =   -1222.6874880503346503 [Eh]
	 Singles Energy            =      -0.0000000000000000 [Eh]
	 Same-Spin Energy          =      -0.4256004615322895 [Eh]
	 Opposite-Spin Energy      =      -1.2690581383195481 [Eh]
	 Correlation Energy        =      -1.6946585998518375 [Eh]
	 Total Energy              =   -1224.3821466501865416 [Eh]

	 ================> DF-SCS-MP2 Energies <==================
	-----------------------------------------------------------
	 SCS Same-Spin Scale       =       0.3333333333333333 [-]
	 SCS Opposite-Spin Scale   =       1.2000000000000000 [-]
	 SCS Same-Spin Energy      =      -0.1418668205107632 [Eh]
	 SCS Opposite-Spin Energy  =      -1.5228697659834576 [Eh]
	 SCS Correlation Energy    =      -1.6647365864942207 [Eh]
	 SCS Total Energy          =   -1224.3522246368288506 [Eh]
	-----------------------------------------------------------

  Dipole Moment: [D]
     X:     0.0139      Y:     0.0105      Z:    -0.0105     Total:     0.0203

*** Psi4 exiting successfully. Buy a developer a beer!
