                               Psi4 1.4a3.dev225

  ==> Input File <==

--------------------------------------------------------------------------
#psi4
#
memory 32 gb

molecule  {
0 1
 Cl       -3.3762460     0.4715730     0.0000400
 Cl        3.3762460    -0.4715730    -0.0000500
  O       -1.8662040    -1.6703800    -0.0002000
  O        1.8662050     1.6703810     0.0002060
  C       -0.6363830     0.4167610     0.0000530
  C        0.6363830    -0.4167600    -0.0000420
  C       -1.8549324    -0.5669408    -0.0000707
  C        1.8539110     0.4669460     0.0000630
  H       -0.6849470     1.0764100    -0.8725500
  H       -0.6849540     1.0761990     0.8728160
  H        0.6849510    -1.0762020    -0.8728020
  H        0.6849480    -1.0764060     0.8725640
units angstrom
no_reorient  #important for SAPT in psi4, default
symmetry c1  #important for SAPT in psi4, default
}

set PROPERTIES_ORIGIN ["COM"]
properties('MP2/aug-cc-pvtz', properties = ['dipole'])
--------------------------------------------------------------------------

    Molecular point group: c1
  Charge       = 0
  Multiplicity = 1
  Basis Set: AUG-CC-PVTZ
    Blend: AUG-CC-PVTZ
  Basis Set: (AUG-CC-PVTZ AUX)
    Blend: AUG-CC-PVTZ-JKFIT

    Orbital Energies [Eh]
    ---------------------

    Doubly Occupied:

       1A   -104.865594     2A   -104.844203     3A    -20.624430
       4A    -20.608506     5A    -11.427989     6A    -11.419878
       7A    -11.293536     8A    -11.291925     9A    -10.590052
      10A    -10.568992    11A     -8.056699    12A     -8.054962
      13A     -8.054805    14A     -8.035525    15A     -8.033949
      16A     -8.033833    17A     -1.535437    18A     -1.451965
      19A     -1.158310    20A     -1.133614    21A     -1.099165
      22A     -0.964025    23A     -0.797247    24A     -0.788235
      25A     -0.732517    26A     -0.703691    27A     -0.699905
      28A     -0.668088    29A     -0.662443    30A     -0.647890
      31A     -0.588040    32A     -0.578867    33A     -0.544753
      34A     -0.489157    35A     -0.481241    36A     -0.472978
      37A     -0.471841    38A     -0.466184    39A     -0.447823

  @DF-RHF Final Energy: -1222.68078539146290

   => Energetics <=

    Nuclear Repulsion Energy =            470.6840584986022691
    One-Electron Energy =               -2619.9530982114929429
    Two-Electron Energy =                 926.5882543214277121
    Total Energy =                      -1222.6807853914631323
  Basis Set: (AUG-CC-PVTZ AUX)
    Blend: AUG-CC-PVTZ-RI
    Molecular point group: c1

    Geometry (in Angstrom), charge = 0, multiplicity = 1:

       Center              X                  Y                   Z               Mass
    ------------   -----------------  -----------------  -----------------  -----------------
         CL          -3.376166479908     0.479366697577     0.000041207465    34.968852682000
         CL           3.376325520092    -0.463779302423    -0.000048792535    34.968852682000
         O           -1.866124479908    -1.662586302423    -0.000198792535    15.994914619570
         O            1.866284520092     1.678174697577     0.000207207465    15.994914619570
         C           -0.636303479908     0.424554697577     0.000054207465    12.000000000000
         C            0.636462520092    -0.408966302423    -0.000040792535    12.000000000000
         C           -1.854852879908    -0.559147102423    -0.000069492535    12.000000000000
         C            1.853990520092     0.474739697577     0.000064207465    12.000000000000
         H           -0.684867479908     1.084203697577    -0.872548792535     1.007825032230
         H           -0.684874479908     1.083992697577     0.872817207465     1.007825032230
         H            0.685030520092    -1.068408302423    -0.872800792535     1.007825032230
         H            0.685027520092    -1.068612302423     0.872565207465     1.007825032230

  Basis Set: AUG-CC-PVTZ
    Blend: AUG-CC-PVTZ
  Basis Set: (AUG-CC-PVTZ AUX)
    Blend: AUG-CC-PVTZ-JKFIT
	 Reference Energy          =   -1222.6807853914629050 [Eh]
	 Singles Energy            =      -0.0000000000000000 [Eh]
	 Same-Spin Energy          =      -0.4229676521400669 [Eh]
	 Opposite-Spin Energy      =      -1.2633255867582809 [Eh]
	 Correlation Energy        =      -1.6862932388983478 [Eh]
	 Total Energy              =   -1224.3670786303612203 [Eh]

	 ================> DF-SCS-MP2 Energies <==================
	-----------------------------------------------------------
	 SCS Same-Spin Scale       =       0.3333333333333333 [-]
	 SCS Opposite-Spin Scale   =       1.2000000000000000 [-]
	 SCS Same-Spin Energy      =      -0.1409892173800223 [Eh]
	 SCS Opposite-Spin Energy  =      -1.5159907041099370 [Eh]
	 SCS Correlation Energy    =      -1.6569799214899592 [Eh]
	 SCS Total Energy          =   -1224.3377653129527971 [Eh]
	-----------------------------------------------------------

  Dipole Moment: [D]
     X:     0.4059      Y:    -0.7210      Z:    -0.0001     Total:     0.8274

*** Psi4 exiting successfully. Buy a developer a beer!
