                               Psi4 1.4a3.dev225

  ==> Input File <==

--------------------------------------------------------------------------
#psi4
#
memory 32 gb

molecule  {
0 1
 Cl       -3.3070699     0.5754795     0.0000526
 Cl        3.3762460    -0.4715730    -0.0000500
  O       -1.8662040    -1.6703800    -0.0002000
  O        1.8662050     1.6703810     0.0002060
  C       -0.6363830     0.4167610     0.0000530
  C        0.6363830    -0.4167600    -0.0000420
  C       -1.8539110    -0.4669460    -0.0000590
  C        1.8539110     0.4669460     0.0000630
  H       -0.6849470     1.0764100    -0.8725500
  H       -0.6849540     1.0761990     0.8728160
  H        0.6849510    -1.0762020    -0.8728020
  H        0.6849480    -1.0764060     0.8725640
units angstrom
no_reorient  #important for SAPT in psi4, default
symmetry c1  #important for SAPT in psi4, default
}

set PROPERTIES_ORIGIN ["COM"]
properties('MP2/aug-cc-pvtz', properties = ['dipole'])
--------------------------------------------------------------------------

    Molecular point group: c1
  Charge       = 0
  Multiplicity = 1
  Basis Set: AUG-CC-PVTZ
    Blend: AUG-CC-PVTZ
  Basis Set: (AUG-CC-PVTZ AUX)
    Blend: AUG-CC-PVTZ-JKFIT

    Orbital Energies [Eh]
    ---------------------

    Doubly Occupied:

       1A   -104.866679     2A   -104.864417     3A    -20.611210
       4A    -20.607107     5A    -11.428853     6A    -11.426608
       7A    -11.290045     8A    -11.288962     9A    -10.591214
      10A    -10.588867    11A     -8.057855    12A     -8.056115
      13A     -8.055955    14A     -8.055515    15A     -8.053777
      16A     -8.053619    17A     -1.452934    18A     -1.450496
      19A     -1.164628    20A     -1.151782    21A     -1.104367
      22A     -0.974469    23A     -0.794048    24A     -0.783466
      25A     -0.715256    26A     -0.699046    27A     -0.691154
      28A     -0.658130    29A     -0.651995    30A     -0.624387
      31A     -0.574965    32A     -0.570919    33A     -0.539496
      34A     -0.492877    35A     -0.483317    36A     -0.479823
      37A     -0.479543    38A     -0.469094    39A     -0.463691

  @DF-RHF Final Energy: -1222.68624450259699

   => Energetics <=

    Nuclear Repulsion Energy =            471.2361564898225765
    One-Electron Energy =               -2621.1114450981840491
    Two-Electron Energy =                 927.1890441057646512
    Total Energy =                      -1222.6862445025969919
  Basis Set: (AUG-CC-PVTZ AUX)
    Blend: AUG-CC-PVTZ-RI
    Molecular point group: c1

    Geometry (in Angstrom), charge = 0, multiplicity = 1:

       Center              X                  Y                   Z               Mass
    ------------   -----------------  -----------------  -----------------  -----------------
         CL          -3.322782040414     0.551878905073     0.000050033680    34.968852682000
         CL           3.360533859586    -0.495173594927    -0.000052566320    34.968852682000
         O           -1.881916140414    -1.693980594927    -0.000202566320    15.994914619570
         O            1.850492859586     1.646780405073     0.000203433680    15.994914619570
         C           -0.652095140414     0.393160405073     0.000050433680    12.000000000000
         C            0.620670859586    -0.440360594927    -0.000044566320    12.000000000000
         C           -1.869623140414    -0.490546594927    -0.000061566320    12.000000000000
         C            1.838198859586     0.443345405073     0.000060433680    12.000000000000
         H           -0.700659140414     1.052809405073    -0.872552566320     1.007825032230
         H           -0.700666140414     1.052598405073     0.872813433680     1.007825032230
         H            0.669238859586    -1.099802594927    -0.872804566320     1.007825032230
         H            0.669235859586    -1.100006594927     0.872561433680     1.007825032230

  Basis Set: AUG-CC-PVTZ
    Blend: AUG-CC-PVTZ
  Basis Set: (AUG-CC-PVTZ AUX)
    Blend: AUG-CC-PVTZ-JKFIT
	 Reference Energy          =   -1222.6862445025969919 [Eh]
	 Singles Energy            =      -0.0000000000000000 [Eh]
	 Same-Spin Energy          =      -0.4260280011083579 [Eh]
	 Opposite-Spin Energy      =      -1.2696853428418007 [Eh]
	 Correlation Energy        =      -1.6957133439501586 [Eh]
	 Total Energy              =   -1224.3819578465470386 [Eh]

	 ================> DF-SCS-MP2 Energies <==================
	-----------------------------------------------------------
	 SCS Same-Spin Scale       =       0.3333333333333333 [-]
	 SCS Opposite-Spin Scale   =       1.2000000000000000 [-]
	 SCS Same-Spin Energy      =      -0.1420093337027860 [Eh]
	 SCS Opposite-Spin Energy  =      -1.5236224114101609 [Eh]
	 SCS Correlation Energy    =      -1.6656317451129468 [Eh]
	 SCS Total Energy          =   -1224.3518762477099244 [Eh]
	-----------------------------------------------------------

  Dipole Moment: [D]
     X:    -0.0989      Y:    -0.0530      Z:     0.0000     Total:     0.1122

*** Psi4 exiting successfully. Buy a developer a beer!
