                               Psi4 1.4a3.dev225

  ==> Input File <==

--------------------------------------------------------------------------
#psi4
#
memory 32 gb

molecule  {
0 1
 Cl       -3.3425648     0.5241300     0.0000464
 Cl        3.3762460    -0.4715730    -0.0000500
  O       -1.8662040    -1.6703800    -0.0002000
  O        1.8662050     1.6703810     0.0002060
  C       -0.6363830     0.4167610     0.0000530
  C        0.6363830    -0.4167600    -0.0000420
  C       -1.8539110    -0.4669460    -0.0000590
  C        1.8539110     0.4669460     0.0000630
  H       -0.6849470     1.0764100    -0.8725500
  H       -0.6849540     1.0761990     0.8728160
  H        0.6849510    -1.0762020    -0.8728020
  H        0.6849480    -1.0764060     0.8725640
units angstrom
no_reorient  #important for SAPT in psi4, default
symmetry c1  #important for SAPT in psi4, default
}

set PROPERTIES_ORIGIN ["COM"]
properties('MP2/aug-cc-pvtz', properties = ['dipole'])
--------------------------------------------------------------------------

    Molecular point group: c1
  Charge       = 0
  Multiplicity = 1
  Basis Set: AUG-CC-PVTZ
    Blend: AUG-CC-PVTZ
  Basis Set: (AUG-CC-PVTZ AUX)
    Blend: AUG-CC-PVTZ-JKFIT

    Orbital Energies [Eh]
    ---------------------

    Doubly Occupied:

       1A   -104.865988     2A   -104.864820     3A    -20.609555
       4A    -20.607504     5A    -11.428178     6A    -11.427065
       7A    -11.290941     8A    -11.290161     9A    -10.590467
      10A    -10.589262    11A     -8.057112    12A     -8.055910
      13A     -8.055373    14A     -8.055213    15A     -8.054171
      16A     -8.054013    17A     -1.452508    18A     -1.450735
      19A     -1.163011    20A     -1.151315    21A     -1.105462
      22A     -0.975381    23A     -0.793949    24A     -0.783606
      25A     -0.715745    26A     -0.699405    27A     -0.690555
      28A     -0.657594    29A     -0.652596    30A     -0.624284
      31A     -0.574939    32A     -0.571112    33A     -0.539874
      34A     -0.493212    35A     -0.482152    36A     -0.480137
      37A     -0.478632    38A     -0.468855    39A     -0.465079

  @DF-RHF Final Energy: -1222.68749630537855

   => Energetics <=

    Nuclear Repulsion Energy =            470.7722891589264123
    One-Electron Energy =               -2620.1878216251889171
    Two-Electron Energy =                 926.7280361608840167
    Total Energy =                      -1222.6874963053783176
  Basis Set: (AUG-CC-PVTZ AUX)
    Blend: AUG-CC-PVTZ-RI
    Molecular point group: c1

    Geometry (in Angstrom), charge = 0, multiplicity = 1:

       Center              X                  Y                   Z               Mass
    ------------   -----------------  -----------------  -----------------  -----------------
         CL          -3.350214941691     0.512192477893     0.000045241894    34.968852682000
         CL           3.368595858309    -0.483510522107    -0.000051158106    34.968852682000
         O           -1.873854141691    -1.682317522107    -0.000201158106    15.994914619570
         O            1.858554858309     1.658443477893     0.000204841894    15.994914619570
         C           -0.644033141691     0.404823477893     0.000051841894    12.000000000000
         C            0.628732858309    -0.428697522107    -0.000043158106    12.000000000000
         C           -1.861561141691    -0.478883522107    -0.000060158106    12.000000000000
         C            1.846260858309     0.455008477893     0.000061841894    12.000000000000
         H           -0.692597141691     1.064472477893    -0.872551158106     1.007825032230
         H           -0.692604141691     1.064261477893     0.872814841894     1.007825032230
         H            0.677300858309    -1.088139522107    -0.872803158106     1.007825032230
         H            0.677297858309    -1.088343522107     0.872562841894     1.007825032230

  Basis Set: AUG-CC-PVTZ
    Blend: AUG-CC-PVTZ
  Basis Set: (AUG-CC-PVTZ AUX)
    Blend: AUG-CC-PVTZ-JKFIT
	 Reference Energy          =   -1222.6874963053785450 [Eh]
	 Singles Energy            =      -0.0000000000000000 [Eh]
	 Same-Spin Energy          =      -0.4258382899203275 [Eh]
	 Opposite-Spin Energy      =      -1.2693776416247020 [Eh]
	 Correlation Energy        =      -1.6952159315450295 [Eh]
	 Total Energy              =   -1224.3827122369236804 [Eh]

	 ================> DF-SCS-MP2 Energies <==================
	-----------------------------------------------------------
	 SCS Same-Spin Scale       =       0.3333333333333333 [-]
	 SCS Opposite-Spin Scale   =       1.2000000000000000 [-]
	 SCS Same-Spin Energy      =      -0.1419460966401092 [Eh]
	 SCS Opposite-Spin Energy  =      -1.5232531699496423 [Eh]
	 SCS Correlation Energy    =      -1.6651992665897515 [Eh]
	 SCS Total Energy          =   -1224.3526955719682974 [Eh]
	-----------------------------------------------------------

  Dipole Moment: [D]
     X:    -0.0495      Y:    -0.0264      Z:     0.0000     Total:     0.0561

*** Psi4 exiting successfully. Buy a developer a beer!
