                               Psi4 1.4a3.dev225

  ==> Input File <==

--------------------------------------------------------------------------
#psi4
#
memory 32 gb

molecule  {
0 1
 Cl       -3.3762460     0.4715730     0.0000400
 Cl        3.3762460    -0.4715730    -0.0000500
  O       -1.8662040    -1.6703800    -0.0002000
  O        1.8662050     1.6703810     0.0002060
  C       -0.6363830     0.4167610     0.0000530
  C        0.6363830    -0.4167600    -0.0000420
  C       -1.8709357    -0.4564503    -0.0000579
  C        1.8539110     0.4669460     0.0000630
  H       -0.6849470     1.0764100    -0.8725500
  H       -0.6849540     1.0761990     0.8728160
  H        0.6849510    -1.0762020    -0.8728020
  H        0.6849480    -1.0764060     0.8725640
units angstrom
no_reorient  #important for SAPT in psi4, default
symmetry c1  #important for SAPT in psi4, default
}

set PROPERTIES_ORIGIN ["COM"]
properties('MP2/aug-cc-pvtz', properties = ['dipole'])
--------------------------------------------------------------------------

    Molecular point group: c1
  Charge       = 0
  Multiplicity = 1
  Basis Set: AUG-CC-PVTZ
    Blend: AUG-CC-PVTZ
  Basis Set: (AUG-CC-PVTZ AUX)
    Blend: AUG-CC-PVTZ-JKFIT

    Orbital Energies [Eh]
    ---------------------

    Doubly Occupied:

       1A   -104.869969     2A   -104.864601     3A    -20.607119
       4A    -20.604770     5A    -11.427117     6A    -11.426790
       7A    -11.290879     8A    -11.290240     9A    -10.594541
      10A    -10.589037    11A     -8.061228    12A     -8.059433
      13A     -8.059261    14A     -8.055686    15A     -8.053946
      16A     -8.053788    17A     -1.450877    18A     -1.442457
      19A     -1.164182    20A     -1.152901    21A     -1.105879
      22A     -0.974490    23A     -0.793716    24A     -0.781970
      25A     -0.714281    26A     -0.697951    27A     -0.688369
      28A     -0.656488    29A     -0.651285    30A     -0.622330
      31A     -0.573323    32A     -0.569576    33A     -0.538470
      34A     -0.494718    35A     -0.482532    36A     -0.480000
      37A     -0.479000    38A     -0.468275    39A     -0.466622

  @DF-RHF Final Energy: -1222.68674934822479

   => Energetics <=

    Nuclear Repulsion Energy =            470.3178729067566337
    One-Electron Energy =               -2619.2930464461164775
    Two-Electron Energy =                 926.2884241911347090
    Total Energy =                      -1222.6867493482250211
  Basis Set: (AUG-CC-PVTZ AUX)
    Blend: AUG-CC-PVTZ-RI
    Molecular point group: c1

    Geometry (in Angstrom), charge = 0, multiplicity = 1:

       Center              X                  Y                   Z               Mass
    ------------   -----------------  -----------------  -----------------  -----------------
         CL          -3.374919136095     0.470754746192     0.000040209796    34.968852682000
         CL           3.377572863905    -0.472391253808    -0.000049790204    34.968852682000
         O           -1.864877136095    -1.671198253808    -0.000199790204    15.994914619570
         O            1.867531863905     1.669562746192     0.000206209796    15.994914619570
         C           -0.635056136095     0.415942746192     0.000053209796    12.000000000000
         C            0.637709863905    -0.417578253808    -0.000041790204    12.000000000000
         C           -1.869608836095    -0.457268553808    -0.000057690204    12.000000000000
         C            1.855237863905     0.466127746192     0.000063209796    12.000000000000
         H           -0.683620136095     1.075591746192    -0.872549790204     1.007825032230
         H           -0.683627136095     1.075380746192     0.872816209796     1.007825032230
         H            0.686277863905    -1.077020253808    -0.872801790204     1.007825032230
         H            0.686274863905    -1.077224253808     0.872564209796     1.007825032230

  Basis Set: AUG-CC-PVTZ
    Blend: AUG-CC-PVTZ
  Basis Set: (AUG-CC-PVTZ AUX)
    Blend: AUG-CC-PVTZ-JKFIT
	 Reference Energy          =   -1222.6867493482247937 [Eh]
	 Singles Energy            =      -0.0000000000000000 [Eh]
	 Same-Spin Energy          =      -0.4258777623637030 [Eh]
	 Opposite-Spin Energy      =      -1.2695966122258997 [Eh]
	 Correlation Energy        =      -1.6954743745896028 [Eh]
	 Total Energy              =   -1224.3822237228143877 [Eh]

	 ================> DF-SCS-MP2 Energies <==================
	-----------------------------------------------------------
	 SCS Same-Spin Scale       =       0.3333333333333333 [-]
	 SCS Opposite-Spin Scale   =       1.2000000000000000 [-]
	 SCS Same-Spin Energy      =      -0.1419592541212343 [Eh]
	 SCS Opposite-Spin Energy  =      -1.5235159346710796 [Eh]
	 SCS Correlation Energy    =      -1.6654751887923138 [Eh]
	 SCS Total Energy          =   -1224.3522245370170367 [Eh]
	-----------------------------------------------------------

  Dipole Moment: [D]
     X:    -0.1871      Y:     0.1044      Z:     0.0000     Total:     0.2143

*** Psi4 exiting successfully. Buy a developer a beer!
