                               Psi4 1.4a3.dev225

  ==> Input File <==

--------------------------------------------------------------------------
#psi4
#
memory 32 gb

molecule  {
0 1
 Cl       -3.3762460     0.4715730     0.0000400
 Cl        3.3762460    -0.4715730    -0.0000500
  O       -1.8662040    -1.6703800    -0.0002000
  O        1.8662050     1.6703810     0.0002060
  C       -0.6363830     0.4167610     0.0000530
  C        0.6363830    -0.4167600    -0.0000420
  C       -1.8964727    -0.4407067    -0.0000562
  C        1.8539110     0.4669460     0.0000630
  H       -0.6849470     1.0764100    -0.8725500
  H       -0.6849540     1.0761990     0.8728160
  H        0.6849510    -1.0762020    -0.8728020
  H        0.6849480    -1.0764060     0.8725640
units angstrom
no_reorient  #important for SAPT in psi4, default
symmetry c1  #important for SAPT in psi4, default
}

set PROPERTIES_ORIGIN ["COM"]
properties('MP2/aug-cc-pvtz', properties = ['dipole'])
--------------------------------------------------------------------------

    Molecular point group: c1
  Charge       = 0
  Multiplicity = 1
  Basis Set: AUG-CC-PVTZ
    Blend: AUG-CC-PVTZ
  Basis Set: (AUG-CC-PVTZ AUX)
    Blend: AUG-CC-PVTZ-JKFIT

    Orbital Energies [Eh]
    ---------------------

    Doubly Occupied:

       1A   -104.876763     2A   -104.863738     3A    -20.606020
       4A    -20.600280     5A    -11.426693     6A    -11.425772
       7A    -11.289542     8A    -11.288831     9A    -10.601609
      10A    -10.588177    11A     -8.068360    12A     -8.066478
      13A     -8.066282    14A     -8.054827    15A     -8.053088
      16A     -8.052930    17A     -1.449781    18A     -1.429174
      19A     -1.171733    20A     -1.153702    21A     -1.104273
      22A     -0.971809    23A     -0.793760    24A     -0.779661
      25A     -0.711881    26A     -0.695405    27A     -0.685870
      28A     -0.656062    29A     -0.648363    30A     -0.619954
      31A     -0.571026    32A     -0.567686    33A     -0.536037
      34A     -0.497046    35A     -0.484001    36A     -0.479802
      37A     -0.479175    38A     -0.468178    39A     -0.466310

  @DF-RHF Final Energy: -1222.68335474710261

   => Energetics <=

    Nuclear Repulsion Energy =            470.2719490269288372
    One-Electron Energy =               -2619.2104518623696094
    Two-Electron Energy =                 926.2551480883383874
    Total Energy =                      -1222.6833547471023849
  Basis Set: (AUG-CC-PVTZ AUX)
    Blend: AUG-CC-PVTZ-RI
    Molecular point group: c1

    Geometry (in Angstrom), charge = 0, multiplicity = 1:

       Center              X                  Y                   Z               Mass
    ------------   -----------------  -----------------  -----------------  -----------------
         CL          -3.372928707935     0.469527644153     0.000040077293    34.968852682000
         CL           3.379563292065    -0.473618355847    -0.000049922707    34.968852682000
         O           -1.862886707935    -1.672425355847    -0.000199922707    15.994914619570
         O            1.869522292065     1.668335644153     0.000206077293    15.994914619570
         C           -0.633065707935     0.414715644153     0.000053077293    12.000000000000
         C            0.639700292065    -0.418805355847    -0.000041922707    12.000000000000
         C           -1.893155407935    -0.442752055847    -0.000056122707    12.000000000000
         C            1.857228292065     0.464900644153     0.000063077293    12.000000000000
         H           -0.681629707935     1.074364644153    -0.872549922707     1.007825032230
         H           -0.681636707935     1.074153644153     0.872816077293     1.007825032230
         H            0.688268292065    -1.078247355847    -0.872801922707     1.007825032230
         H            0.688265292065    -1.078451355847     0.872564077293     1.007825032230

  Basis Set: AUG-CC-PVTZ
    Blend: AUG-CC-PVTZ
  Basis Set: (AUG-CC-PVTZ AUX)
    Blend: AUG-CC-PVTZ-JKFIT
	 Reference Energy          =   -1222.6833547471026122 [Eh]
	 Singles Energy            =      -0.0000000000000000 [Eh]
	 Same-Spin Energy          =      -0.4262527438402603 [Eh]
	 Opposite-Spin Energy      =      -1.2704190550777339 [Eh]
	 Correlation Energy        =      -1.6966717989179942 [Eh]
	 Total Energy              =   -1224.3800265460206447 [Eh]

	 ================> DF-SCS-MP2 Energies <==================
	-----------------------------------------------------------
	 SCS Same-Spin Scale       =       0.3333333333333333 [-]
	 SCS Opposite-Spin Scale   =       1.2000000000000000 [-]
	 SCS Same-Spin Energy      =      -0.1420842479467534 [Eh]
	 SCS Opposite-Spin Energy  =      -1.5245028660932807 [Eh]
	 SCS Correlation Energy    =      -1.6665871140400341 [Eh]
	 SCS Total Energy          =   -1224.3499418611427245 [Eh]
	-----------------------------------------------------------

  Dipole Moment: [D]
     X:    -0.4586      Y:     0.2560      Z:     0.0000     Total:     0.5252

*** Psi4 exiting successfully. Buy a developer a beer!
