                               Psi4 1.4a3.dev225

  ==> Input File <==

--------------------------------------------------------------------------
#psi4
#
memory 32 gb

molecule  {
0 1
 Cl       -3.3762460     0.4715730     0.0000400
 Cl        3.3762460    -0.4715730    -0.0000500
  O       -1.7403436    -1.6650724    -0.0001985
  O        1.8662050     1.6703810     0.0002060
  C       -0.6363830     0.4167610     0.0000530
  C        0.6363830    -0.4167600    -0.0000420
  C       -1.8539110    -0.4669460    -0.0000590
  C        1.8539110     0.4669460     0.0000630
  H       -0.6849470     1.0764100    -0.8725500
  H       -0.6849540     1.0761990     0.8728160
  H        0.6849510    -1.0762020    -0.8728020
  H        0.6849480    -1.0764060     0.8725640
units angstrom
no_reorient  #important for SAPT in psi4, default
symmetry c1  #important for SAPT in psi4, default
}

set PROPERTIES_ORIGIN ["COM"]
properties('MP2/aug-cc-pvtz', properties = ['dipole'])
--------------------------------------------------------------------------

    Molecular point group: c1
  Charge       = 0
  Multiplicity = 1
  Basis Set: AUG-CC-PVTZ
    Blend: AUG-CC-PVTZ
  Basis Set: (AUG-CC-PVTZ AUX)
    Blend: AUG-CC-PVTZ-JKFIT

    Orbital Energies [Eh]
    ---------------------

    Doubly Occupied:

       1A   -104.873447     2A   -104.862957     3A    -20.607787
       4A    -20.605145     5A    -11.427172     6A    -11.424645
       7A    -11.287641     8A    -11.285681     9A    -10.597464
      10A    -10.587415    11A     -8.064122    12A     -8.062352
      13A     -8.062185    14A     -8.054064    15A     -8.052329
      16A     -8.052170    17A     -1.452569    18A     -1.448694
      19A     -1.162508    20A     -1.151373    21A     -1.103700
      22A     -0.972828    23A     -0.793958    24A     -0.780055
      25A     -0.715582    26A     -0.697040    27A     -0.689810
      28A     -0.657390    29A     -0.649208    30A     -0.622326
      31A     -0.570809    32A     -0.568552    33A     -0.537404
      34A     -0.494189    35A     -0.486781    36A     -0.480470
      37A     -0.478489    38A     -0.467037    39A     -0.465123

  @DF-RHF Final Energy: -1222.68462074114041

   => Energetics <=

    Nuclear Repulsion Energy =            471.1069023402056359
    One-Electron Energy =               -2620.8781059224861565
    Two-Electron Energy =                 927.0865828411401708
    Total Energy =                      -1222.6846207411404066
  Basis Set: (AUG-CC-PVTZ AUX)
    Blend: AUG-CC-PVTZ-RI
    Molecular point group: c1

    Geometry (in Angstrom), charge = 0, multiplicity = 1:

       Center              X                  Y                   Z               Mass
    ------------   -----------------  -----------------  -----------------  -----------------
         CL          -3.389321835075     0.471021400530     0.000040139697    34.968852682000
         CL           3.363170164925    -0.472124599470    -0.000049860303    34.968852682000
         O           -1.753419435075    -1.665623999470    -0.000198360303    15.994914619570
         O            1.853129164925     1.669829400530     0.000206139697    15.994914619570
         C           -0.649458835075     0.416209400530     0.000053139697    12.000000000000
         C            0.623307164925    -0.417311599470    -0.000041860303    12.000000000000
         C           -1.866986835075    -0.467497599470    -0.000058860303    12.000000000000
         C            1.840835164925     0.466394400530     0.000063139697    12.000000000000
         H           -0.698022835075     1.075858400530    -0.872549860303     1.007825032230
         H           -0.698029835075     1.075647400530     0.872816139697     1.007825032230
         H            0.671875164925    -1.076753599470    -0.872801860303     1.007825032230
         H            0.671872164925    -1.076957599470     0.872564139697     1.007825032230

  Basis Set: AUG-CC-PVTZ
    Blend: AUG-CC-PVTZ
  Basis Set: (AUG-CC-PVTZ AUX)
    Blend: AUG-CC-PVTZ-JKFIT
	 Reference Energy          =   -1222.6846207411404066 [Eh]
	 Singles Energy            =      -0.0000000000000000 [Eh]
	 Same-Spin Energy          =      -0.4259306901276947 [Eh]
	 Opposite-Spin Energy      =      -1.2696794442816515 [Eh]
	 Correlation Energy        =      -1.6956101344093462 [Eh]
	 Total Energy              =   -1224.3802308755498416 [Eh]

	 ================> DF-SCS-MP2 Energies <==================
	-----------------------------------------------------------
	 SCS Same-Spin Scale       =       0.3333333333333333 [-]
	 SCS Opposite-Spin Scale   =       1.2000000000000000 [-]
	 SCS Same-Spin Energy      =      -0.1419768967092316 [Eh]
	 SCS Opposite-Spin Energy  =      -1.5236153331379818 [Eh]
	 SCS Correlation Energy    =      -1.6655922298472134 [Eh]
	 SCS Total Energy          =   -1224.3502129709875135 [Eh]
	-----------------------------------------------------------

  Dipole Moment: [D]
     X:    -0.3942      Y:     0.0121      Z:     0.0000     Total:     0.3944

*** Psi4 exiting successfully. Buy a developer a beer!
