                               Psi4 1.4a3.dev225

  ==> Input File <==

--------------------------------------------------------------------------
#psi4
#
memory 32 gb

molecule  {
0 1
 Cl       -3.3762460     0.4715730     0.0000400
 Cl        3.3762460    -0.4715730    -0.0000500
  O       -1.8662040    -1.6703800    -0.0002000
  O        1.8662050     1.6703810     0.0002060
  C       -0.6363830     0.4167610     0.0000530
  C        0.6363830    -0.4167600    -0.0000420
  C       -1.8539110    -0.4669460    -0.0000590
  C        1.6920520     0.3494655     0.0000490
  H       -0.6849470     1.0764100    -0.8725500
  H       -0.6849540     1.0761990     0.8728160
  H        0.6849510    -1.0762020    -0.8728020
  H        0.6849480    -1.0764060     0.8725640
units angstrom
no_reorient  #important for SAPT in psi4, default
symmetry c1  #important for SAPT in psi4, default
}

set PROPERTIES_ORIGIN ["COM"]
properties('MP2/aug-cc-pvtz', properties = ['dipole'])
--------------------------------------------------------------------------

    Molecular point group: c1
  Charge       = 0
  Multiplicity = 1
  Basis Set: AUG-CC-PVTZ
    Blend: AUG-CC-PVTZ
  Basis Set: (AUG-CC-PVTZ AUX)
    Blend: AUG-CC-PVTZ-JKFIT

    Orbital Energies [Eh]
    ---------------------

    Doubly Occupied:

       1A   -104.871697     2A   -104.859092     3A    -20.615446
       4A    -20.599343     5A    -11.442476     6A    -11.434990
       7A    -11.304039     8A    -11.294638     9A    -10.596030
      10A    -10.581962    11A     -8.062678    12A     -8.060922
      13A     -8.060761    14A     -8.048493    15A     -8.046860
      16A     -8.046735    17A     -1.459280    18A     -1.373276
      19A     -1.188981    20A     -1.155405    21A     -1.109052
      22A     -1.018755    23A     -0.800854    24A     -0.795463
      25A     -0.722879    26A     -0.712660    27A     -0.694289
      28A     -0.655284    29A     -0.637800    30A     -0.632815
      31A     -0.567521    32A     -0.564606    33A     -0.519321
      34A     -0.498541    35A     -0.486716    36A     -0.482199
      37A     -0.476240    38A     -0.462916    39A     -0.453990

  @DF-RHF Final Energy: -1222.61621959899617

   => Energetics <=

    Nuclear Repulsion Energy =            470.6479325764519785
    One-Electron Energy =               -2619.7382975201853696
    Two-Electron Energy =                 926.4741453447370532
    Total Energy =                      -1222.6162195989961674
  Basis Set: (AUG-CC-PVTZ AUX)
    Blend: AUG-CC-PVTZ-RI
    Molecular point group: c1

    Geometry (in Angstrom), charge = 0, multiplicity = 1:

       Center              X                  Y                   Z               Mass
    ------------   -----------------  -----------------  -----------------  -----------------
         CL          -3.363630328908     0.480729583964     0.000041386734    34.968852682000
         CL           3.388861671092    -0.462416416036    -0.000048613266    34.968852682000
         O           -1.853588328908    -1.661223416036    -0.000198613266    15.994914619570
         O            1.878820671092     1.679537583964     0.000207386734    15.994914619570
         C           -0.623767328908     0.425917583964     0.000054386734    12.000000000000
         C            0.648998671092    -0.407603416036    -0.000040613266    12.000000000000
         C           -1.841295328908    -0.457789416036    -0.000057613266    12.000000000000
         C            1.704667671092     0.358622083964     0.000050386734    12.000000000000
         H           -0.672331328908     1.085566583964    -0.872548613266     1.007825032230
         H           -0.672338328908     1.085355583964     0.872817386734     1.007825032230
         H            0.697566671092    -1.067045416036    -0.872800613266     1.007825032230
         H            0.697563671092    -1.067249416036     0.872565386734     1.007825032230

  Basis Set: AUG-CC-PVTZ
    Blend: AUG-CC-PVTZ
  Basis Set: (AUG-CC-PVTZ AUX)
    Blend: AUG-CC-PVTZ-JKFIT
	 Reference Energy          =   -1222.6162195989961674 [Eh]
	 Singles Energy            =      -0.0000000000000000 [Eh]
	 Same-Spin Energy          =      -0.4320342052776848 [Eh]
	 Opposite-Spin Energy      =      -1.2815346675055337 [Eh]
	 Correlation Energy        =      -1.7135688727832186 [Eh]
	 Total Energy              =   -1224.3297884717794659 [Eh]

	 ================> DF-SCS-MP2 Energies <==================
	-----------------------------------------------------------
	 SCS Same-Spin Scale       =       0.3333333333333333 [-]
	 SCS Opposite-Spin Scale   =       1.2000000000000000 [-]
	 SCS Same-Spin Energy      =      -0.1440114017592282 [Eh]
	 SCS Opposite-Spin Energy  =      -1.5378416010066405 [Eh]
	 SCS Correlation Energy    =      -1.6818530027658687 [Eh]
	 SCS Total Energy          =   -1224.2980726017619872 [Eh]
	-----------------------------------------------------------

  Dipole Moment: [D]
     X:    -1.0734      Y:    -0.3938      Z:    -0.0000     Total:     1.1434

*** Psi4 exiting successfully. Buy a developer a beer!
