                               Psi4 1.4a3.dev225

  ==> Input File <==

--------------------------------------------------------------------------
#psi4
#
memory 32 gb

molecule  {
0 1
 Cl       -3.3762460     0.4715730     0.0000400
 Cl        3.3762460    -0.4715730    -0.0000500
  O       -1.8662040    -1.6703800    -0.0002000
  O        1.8662050     1.6703810     0.0002060
  C       -0.6363830     0.4167610     0.0000530
  C        0.6743329    -0.3436142     0.1362288
  C       -1.8539110    -0.4669460    -0.0000590
  C        1.8539110     0.4669460     0.0000630
  H       -0.6849470     1.0764100    -0.8725500
  H       -0.6849540     1.0761990     0.8728160
  H        0.6849510    -1.0762020    -0.8728020
  H        0.6849480    -1.0764060     0.8725640
units angstrom
no_reorient  #important for SAPT in psi4, default
symmetry c1  #important for SAPT in psi4, default
}

set PROPERTIES_ORIGIN ["COM"]
properties('MP2/aug-cc-pvtz', properties = ['dipole'])
--------------------------------------------------------------------------

    Molecular point group: c1
  Charge       = 0
  Multiplicity = 1
  Basis Set: AUG-CC-PVTZ
    Blend: AUG-CC-PVTZ
  Basis Set: (AUG-CC-PVTZ AUX)
    Blend: AUG-CC-PVTZ-JKFIT

    Orbital Energies [Eh]
    ---------------------

    Doubly Occupied:

       1A   -104.866948     2A   -104.865971     3A    -20.608834
       4A    -20.604799     5A    -11.429314     6A    -11.425491
       7A    -11.295290     8A    -11.293063     9A    -10.591308
      10A    -10.590322    11A     -8.057961    12A     -8.056985
      13A     -8.056206    14A     -8.056050    15A     -8.055220
      16A     -8.055073    17A     -1.452843    18A     -1.451227
      19A     -1.164696    20A     -1.152285    21A     -1.108512
      22A     -0.985172    23A     -0.798945    24A     -0.785650
      25A     -0.720870    26A     -0.694837    27A     -0.692629
      28A     -0.660820    29A     -0.656454    30A     -0.626133
      31A     -0.577002    32A     -0.567354    33A     -0.510156
      34A     -0.495818    35A     -0.481865    36A     -0.481137
      37A     -0.476985    38A     -0.472031    39A     -0.468254

  @DF-RHF Final Energy: -1222.66491374804809

   => Energetics <=

    Nuclear Repulsion Energy =            470.9300341788979836
    One-Electron Energy =               -2620.4088724266703139
    Two-Electron Energy =                 926.8139244997241804
    Total Energy =                      -1222.6649137480480931
  Basis Set: (AUG-CC-PVTZ AUX)
    Blend: AUG-CC-PVTZ-RI
    Molecular point group: c1

    Geometry (in Angstrom), charge = 0, multiplicity = 1:

       Center              X                  Y                   Z               Mass
    ------------   -----------------  -----------------  -----------------  -----------------
         CL          -3.379204016538     0.465871614923    -0.010581047522    34.968852682000
         CL           3.373287983462    -0.477274385077    -0.010671047522    34.968852682000
         O           -1.869162016538    -1.676081385077    -0.010821047522    15.994914619570
         O            1.863246983462     1.664679614923    -0.010415047522    15.994914619570
         C           -0.639341016538     0.411059614923    -0.010568047522    12.000000000000
         C            0.671374883462    -0.349315585077     0.125607752478    12.000000000000
         C           -1.856869016538    -0.472647385077    -0.010680047522    12.000000000000
         C            1.850952983462     0.461244614923    -0.010558047522    12.000000000000
         H           -0.687905016538     1.070708614923    -0.883171047522     1.007825032230
         H           -0.687912016538     1.070497614923     0.862194952478     1.007825032230
         H            0.681992983462    -1.081903385077    -0.883423047522     1.007825032230
         H            0.681989983462    -1.082107385077     0.861942952478     1.007825032230

  Basis Set: AUG-CC-PVTZ
    Blend: AUG-CC-PVTZ
  Basis Set: (AUG-CC-PVTZ AUX)
    Blend: AUG-CC-PVTZ-JKFIT
	 Reference Energy          =   -1222.6649137480480931 [Eh]
	 Singles Energy            =      -0.0000000000000000 [Eh]
	 Same-Spin Energy          =      -0.4267560526861328 [Eh]
	 Opposite-Spin Energy      =      -1.2710924309764242 [Eh]
	 Correlation Energy        =      -1.6978484836625571 [Eh]
	 Total Energy              =   -1224.3627622317105761 [Eh]

	 ================> DF-SCS-MP2 Energies <==================
	-----------------------------------------------------------
	 SCS Same-Spin Scale       =       0.3333333333333333 [-]
	 SCS Opposite-Spin Scale   =       1.2000000000000000 [-]
	 SCS Same-Spin Energy      =      -0.1422520175620443 [Eh]
	 SCS Opposite-Spin Energy  =      -1.5253109171717090 [Eh]
	 SCS Correlation Energy    =      -1.6675629347337533 [Eh]
	 SCS Total Energy          =   -1224.3324766827818166 [Eh]
	-----------------------------------------------------------

  Dipole Moment: [D]
     X:    -0.1294      Y:    -0.0634      Z:     0.0649     Total:     0.1581

*** Psi4 exiting successfully. Buy a developer a beer!
