                               Psi4 1.4a3.dev225

  ==> Input File <==

--------------------------------------------------------------------------
#psi4
#
memory 32 gb

molecule  {
0 1
 Cl       -3.3596347     0.4979985     0.0000432
 Cl        3.3762460    -0.4715730    -0.0000500
  O       -1.8662040    -1.6703800    -0.0002000
  O        1.8662050     1.6703810     0.0002060
  C       -0.6363830     0.4167610     0.0000530
  C        0.6363830    -0.4167600    -0.0000420
  C       -1.8539110    -0.4669460    -0.0000590
  C        1.8539110     0.4669460     0.0000630
  H       -0.6849470     1.0764100    -0.8725500
  H       -0.6849540     1.0761990     0.8728160
  H        0.6849510    -1.0762020    -0.8728020
  H        0.6849480    -1.0764060     0.8725640
units angstrom
no_reorient  #important for SAPT in psi4, default
symmetry c1  #important for SAPT in psi4, default
}

set PROPERTIES_ORIGIN ["COM"]
properties('MP2/aug-cc-pvtz', properties = ['dipole'])
--------------------------------------------------------------------------

    Molecular point group: c1
  Charge       = 0
  Multiplicity = 1
  Basis Set: AUG-CC-PVTZ
    Blend: AUG-CC-PVTZ
  Basis Set: (AUG-CC-PVTZ AUX)
    Blend: AUG-CC-PVTZ-JKFIT

    Orbital Energies [Eh]
    ---------------------

    Doubly Occupied:

       1A   -104.865611     2A   -104.865018     3A    -20.608725
       4A    -20.607699     5A    -11.427843     6A    -11.427289
       7A    -11.291404     8A    -11.290730     9A    -10.590066
      10A    -10.589455    11A     -8.056712    12A     -8.056104
      13A     -8.054973    14A     -8.054814    15A     -8.054364
      16A     -8.054206    17A     -1.452373    18A     -1.450792
      19A     -1.162342    20A     -1.150952    21A     -1.105991
      22A     -0.975824    23A     -0.793912    24A     -0.783672
      25A     -0.715987    26A     -0.699591    27A     -0.690270
      28A     -0.657299    29A     -0.652897    30A     -0.624243
      31A     -0.574955    32A     -0.571205    33A     -0.540074
      34A     -0.493392    35A     -0.481581    36A     -0.480241
      37A     -0.478241    38A     -0.468591    39A     -0.465701

  @DF-RHF Final Energy: -1222.68788871565039

   => Energetics <=

    Nuclear Repulsion Energy =            470.5584513684941612
    One-Electron Energy =               -2619.7624030535807833
    Two-Electron Energy =                 926.5160629694360068
    Total Energy =                      -1222.6878887156503879
  Basis Set: (AUG-CC-PVTZ AUX)
    Blend: AUG-CC-PVTZ-RI
    Molecular point group: c1

    Geometry (in Angstrom), charge = 0, multiplicity = 1:

       Center              X                  Y                   Z               Mass
    ------------   -----------------  -----------------  -----------------  -----------------
         CL          -3.363407735064     0.491996256472     0.000042768713    34.968852682000
         CL           3.372472964936    -0.477575243528    -0.000050431287    34.968852682000
         O           -1.869977035064    -1.676382243528    -0.000200431287    15.994914619570
         O            1.862431964936     1.664378756472     0.000205568713    15.994914619570
         C           -0.640156035064     0.410758756472     0.000052568713    12.000000000000
         C            0.632609964936    -0.422762243528    -0.000042431287    12.000000000000
         C           -1.857684035064    -0.472948243528    -0.000059431287    12.000000000000
         C            1.850137964936     0.460943756472     0.000062568713    12.000000000000
         H           -0.688720035064     1.070407756472    -0.872550431287     1.007825032230
         H           -0.688727035064     1.070196756472     0.872815568713     1.007825032230
         H            0.681177964936    -1.082204243528    -0.872802431287     1.007825032230
         H            0.681174964936    -1.082408243528     0.872563568713     1.007825032230

  Basis Set: AUG-CC-PVTZ
    Blend: AUG-CC-PVTZ
  Basis Set: (AUG-CC-PVTZ AUX)
    Blend: AUG-CC-PVTZ-JKFIT
	 Reference Energy          =   -1222.6878887156503879 [Eh]
	 Singles Energy            =      -0.0000000000000000 [Eh]
	 Same-Spin Energy          =      -0.4257521764754001 [Eh]
	 Opposite-Spin Energy      =      -1.2692415514103916 [Eh]
	 Correlation Energy        =      -1.6949937278857918 [Eh]
	 Total Energy              =   -1224.3828824435361184 [Eh]

	 ================> DF-SCS-MP2 Energies <==================
	-----------------------------------------------------------
	 SCS Same-Spin Scale       =       0.3333333333333333 [-]
	 SCS Opposite-Spin Scale   =       1.2000000000000000 [-]
	 SCS Same-Spin Energy      =      -0.1419173921584667 [Eh]
	 SCS Opposite-Spin Energy  =      -1.5230898616924700 [Eh]
	 SCS Correlation Energy    =      -1.6650072538509366 [Eh]
	 SCS Total Energy          =   -1224.3528959695013327 [Eh]
	-----------------------------------------------------------

  Dipole Moment: [D]
     X:    -0.0248      Y:    -0.0132      Z:     0.0000     Total:     0.0281

*** Psi4 exiting successfully. Buy a developer a beer!
