                               Psi4 1.4a2.dev612

  ==> Input File <==

--------------------------------------------------------------------------
#psi4
#
memory 32 gb

molecule  {
0 1
  N        0.0678190     0.9536280     0.3022870
  N        2.3787710     0.9561460     0.2207080
  C       -1.1991060     0.3426720     0.1363540
  C        1.2435610     0.2442270     0.0818760
  C        0.1402100     2.4122570     0.3330790
  C       -1.5868590    -0.6993050     0.9921800
  C       -2.0897480     0.7954790    -0.8469150
  C        1.2411096    -1.0615004    -0.5142679
  C       -2.8402720    -1.2929990     0.8487880
  C       -3.3529590     0.2138150    -0.9676140
  C       -3.7300960    -0.8357430    -0.1274420
  C        2.4727450    -1.7522840    -0.4525030
  C        3.5488610     0.3171890     0.0404760
  C        3.6581100    -1.0291840    -0.2852360
  H        0.8914220     2.7227450     1.0594170
  H       -0.8398030     2.7868350     0.6320060
  H        0.4165240     2.8365740    -0.6404330
  H       -0.9028320    -1.0219250     1.7735780
  H       -1.7862700     1.5949720    -1.5186410
  H        0.3236690    -1.6661200    -0.4241870
  H       -3.1324200    -2.0992380     1.5176810
  H       -4.0389250     0.5738560    -1.7308950
  H       -4.7117870    -1.2913710    -0.2288330
  H        2.5003580    -2.8034100    -0.7313100
  H        4.4376410     0.9347650     0.1641390
  H        4.6312890    -1.4915970    -0.4182900
units angstrom
no_reorient  #important for SAPT in psi4, default
symmetry c1  #important for SAPT in psi4, default
}

set PROPERTIES_ORIGIN ["COM"]
properties('MP2/aug-cc-pvtz', properties = ['dipole'])
--------------------------------------------------------------------------

    Molecular point group: c1
  Charge       = 0
  Multiplicity = 1
  Basis Set: AUG-CC-PVTZ
    Blend: AUG-CC-PVTZ
  Basis Set: (AUG-CC-PVTZ AUX)
    Blend: AUG-CC-PVTZ-JKFIT

    Orbital Energies [Eh]
    ---------------------

    Doubly Occupied:

       1A    -15.579739     2A    -15.549395     3A    -11.320797
       4A    -11.280406     5A    -11.276017     6A    -11.260105
       7A    -11.250018     8A    -11.243714     9A    -11.243538
      10A    -11.239037    11A    -11.238105    12A    -11.237949
      13A    -11.231524    14A    -11.223404    15A     -1.294783
      16A     -1.220764    17A     -1.143941    18A     -1.075834
      19A     -1.027146    20A     -1.020451    21A     -1.004149
      22A     -0.926307    23A     -0.860215    24A     -0.841307
      25A     -0.833298    26A     -0.790680    27A     -0.729534
      28A     -0.691963    29A     -0.666298    30A     -0.656338
      31A     -0.648695    32A     -0.627866    33A     -0.610689
      34A     -0.600725    35A     -0.591529    36A     -0.586499
      37A     -0.566465    38A     -0.539626    39A     -0.531234
      40A     -0.526127    41A     -0.511740    42A     -0.503269
      43A     -0.500940    44A     -0.430558    45A     -0.410475
      46A     -0.375575    47A     -0.344290    48A     -0.338137
      49A     -0.290442

  @DF-RHF Final Energy:  -570.46726977123058

   => Energetics <=

    Nuclear Repulsion Energy =            818.9101460883305208
    One-Electron Energy =               -2397.7715543569001966
    Two-Electron Energy =                1008.3941384973390996
    Total Energy =                       -570.4672697712305762
  Basis Set: (AUG-CC-PVTZ AUX)
    Blend: AUG-CC-PVTZ-RI
    Molecular point group: c1

    Geometry (in Angstrom), charge = 0, multiplicity = 1:

       Center              X                  Y                   Z               Mass
    ------------   -----------------  -----------------  -----------------  -----------------
         N            0.056422893090     0.955351539681     0.315112633583    14.003074004430
         N            2.367374893090     0.957869539681     0.233533633583    14.003074004430
         C           -1.210502106910     0.344395539681     0.149179633583    12.000000000000
         C            1.232164893090     0.245950539681     0.094701633583    12.000000000000
         C            0.128813893090     2.413980539681     0.345904633583    12.000000000000
         C           -1.598255106910    -0.697581460319     1.005005633583    12.000000000000
         C           -2.101144106910     0.797202539681    -0.834089366417    12.000000000000
         C            1.229713493090    -1.059776860319    -0.501442266417    12.000000000000
         C           -2.851668106910    -1.291275460319     0.861613633583    12.000000000000
         C           -3.364355106910     0.215538539681    -0.954788366417    12.000000000000
         C           -3.741492106910    -0.834019460319    -0.114616366417    12.000000000000
         C            2.461348893090    -1.750560460319    -0.439677366417    12.000000000000
         C            3.537464893090     0.318912539681     0.053301633583    12.000000000000
         C            3.646713893090    -1.027460460319    -0.272410366417    12.000000000000
         H            0.880025893090     2.724468539681     1.072242633583     1.007825032230
         H           -0.851199106910     2.788558539681     0.644831633583     1.007825032230
         H            0.405127893090     2.838297539681    -0.627607366417     1.007825032230
         H           -0.914228106910    -1.020201460319     1.786403633583     1.007825032230
         H           -1.797666106910     1.596695539681    -1.505815366417     1.007825032230
         H            0.312272893090    -1.664396460319    -0.411361366417     1.007825032230
         H           -3.143816106910    -2.097514460319     1.530506633583     1.007825032230
         H           -4.050321106910     0.575579539681    -1.718069366417     1.007825032230
         H           -4.723183106910    -1.289647460319    -0.216007366417     1.007825032230
         H            2.488961893090    -2.801686460319    -0.718484366417     1.007825032230
         H            4.426244893090     0.936488539681     0.176964633583     1.007825032230
         H            4.619892893090    -1.489873460319    -0.405464366417     1.007825032230

  Basis Set: AUG-CC-PVTZ
    Blend: AUG-CC-PVTZ
  Basis Set: (AUG-CC-PVTZ AUX)
    Blend: AUG-CC-PVTZ-JKFIT
	 Reference Energy          =    -570.4672697712305762 [Eh]
	 Singles Energy            =      -0.0000000000000000 [Eh]
	 Same-Spin Energy          =      -0.6375889682928734 [Eh]
	 Opposite-Spin Energy      =      -1.9756287668726762 [Eh]
	 Correlation Energy        =      -2.6132177351655494 [Eh]
	 Total Energy              =    -573.0804875063961390 [Eh]

	 ================> DF-SCS-MP2 Energies <==================
	-----------------------------------------------------------
	 SCS Same-Spin Scale       =       0.3333333333333333 [-]
	 SCS Opposite-Spin Scale   =       1.2000000000000000 [-]
	 SCS Same-Spin Energy      =      -0.2125296560976244 [Eh]
	 SCS Opposite-Spin Energy  =      -2.3707545202472113 [Eh]
	 SCS Correlation Energy    =      -2.5832841763448360 [Eh]
	 SCS Total Energy          =    -573.0505539475753949 [Eh]
	-----------------------------------------------------------

  Dipole Moment: [D]
     X:    -1.1186      Y:    -0.8434      Z:    -0.3005     Total:     1.4328

*** Psi4 exiting successfully. Buy a developer a beer!
