                               Psi4 1.4a2.dev612

  ==> Input File <==

--------------------------------------------------------------------------
#psi4
#
memory 32 gb

molecule  {
0 1
  N        0.0678190     0.9536280     0.3022870
  N        2.3787710     0.9561460     0.2207080
  C       -1.1991060     0.3426720     0.1363540
  C        1.2435610     0.2442270     0.0818760
  C        0.1402100     2.4122570     0.3330790
  C       -1.5450365    -0.7032963     1.0829266
  C       -2.0897480     0.7954790    -0.8469150
  C        1.2497210    -1.1235430    -0.2722420
  C       -2.8402720    -1.2929990     0.8487880
  C       -3.3529590     0.2138150    -0.9676140
  C       -3.7300960    -0.8357430    -0.1274420
  C        2.4727450    -1.7522840    -0.4525030
  C        3.5488610     0.3171890     0.0404760
  C        3.6581100    -1.0291840    -0.2852360
  H        0.8914220     2.7227450     1.0594170
  H       -0.8398030     2.7868350     0.6320060
  H        0.4165240     2.8365740    -0.6404330
  H       -0.9028320    -1.0219250     1.7735780
  H       -1.7862700     1.5949720    -1.5186410
  H        0.3236690    -1.6661200    -0.4241870
  H       -3.1324200    -2.0992380     1.5176810
  H       -4.0389250     0.5738560    -1.7308950
  H       -4.7117870    -1.2913710    -0.2288330
  H        2.5003580    -2.8034100    -0.7313100
  H        4.4376410     0.9347650     0.1641390
  H        4.6312890    -1.4915970    -0.4182900
units angstrom
no_reorient  #important for SAPT in psi4, default
symmetry c1  #important for SAPT in psi4, default
}

set PROPERTIES_ORIGIN ["COM"]
properties('MP2/aug-cc-pvtz', properties = ['dipole'])
--------------------------------------------------------------------------

    Molecular point group: c1
  Charge       = 0
  Multiplicity = 1
  Basis Set: AUG-CC-PVTZ
    Blend: AUG-CC-PVTZ
  Basis Set: (AUG-CC-PVTZ AUX)
    Blend: AUG-CC-PVTZ-JKFIT

    Orbital Energies [Eh]
    ---------------------

    Doubly Occupied:

       1A    -15.577542     2A    -15.548773     3A    -11.316979
       4A    -11.286600     5A    -11.272553     6A    -11.255092
       7A    -11.249635     8A    -11.248889     9A    -11.246324
      10A    -11.240964    11A    -11.239866    12A    -11.238755
      13A    -11.227336    14A    -11.222681    15A     -1.294176
      16A     -1.219366    17A     -1.136995    18A     -1.079101
      19A     -1.027200    20A     -1.018358    21A     -1.002484
      22A     -0.926027    23A     -0.860681    24A     -0.846976
      25A     -0.834588    26A     -0.788184    27A     -0.729074
      28A     -0.698007    29A     -0.672467    30A     -0.660011
      31A     -0.644460    32A     -0.634307    33A     -0.614230
      34A     -0.602702    35A     -0.596120    36A     -0.581335
      37A     -0.567467    38A     -0.539072    39A     -0.535237
      40A     -0.529549    41A     -0.514712    42A     -0.504031
      43A     -0.494102    44A     -0.427660    45A     -0.413364
      46A     -0.377214    47A     -0.339621    48A     -0.338568
      49A     -0.287599

  @DF-RHF Final Energy:  -570.46969106189306

   => Energetics <=

    Nuclear Repulsion Energy =            818.3992867740730617
    One-Electron Energy =               -2396.7238939810517877
    Two-Electron Energy =                1007.8549161450856673
    Total Energy =                       -570.4696910618930588
  Basis Set: (AUG-CC-PVTZ AUX)
    Blend: AUG-CC-PVTZ-RI
    Molecular point group: c1

    Geometry (in Angstrom), charge = 0, multiplicity = 1:

       Center              X                  Y                   Z               Mass
    ------------   -----------------  -----------------  -----------------  -----------------
         N            0.053135513183     0.959655757995     0.293421873396    14.003074004430
         N            2.364087513183     0.962173757995     0.211842873396    14.003074004430
         C           -1.213789486817     0.348699757995     0.127488873396    12.000000000000
         C            1.228877513183     0.250254757995     0.073010873396    12.000000000000
         C            0.125526513183     2.418284757995     0.324213873396    12.000000000000
         C           -1.559719986817    -0.697268542005     1.074061473396    12.000000000000
         C           -2.104431486817     0.801506757995    -0.855780126604    12.000000000000
         C            1.235037513183    -1.117515242005    -0.281107126604    12.000000000000
         C           -2.854955486817    -1.286971242005     0.839922873396    12.000000000000
         C           -3.367642486817     0.219842757995    -0.976479126604    12.000000000000
         C           -3.744779486817    -0.829715242005    -0.136307126604    12.000000000000
         C            2.458061513183    -1.746256242005    -0.461368126604    12.000000000000
         C            3.534177513183     0.323216757995     0.031610873396    12.000000000000
         C            3.643426513183    -1.023156242005    -0.294101126604    12.000000000000
         H            0.876738513183     2.728772757995     1.050551873396     1.007825032230
         H           -0.854486486817     2.792862757995     0.623140873396     1.007825032230
         H            0.401840513183     2.842601757995    -0.649298126604     1.007825032230
         H           -0.917515486817    -1.015897242005     1.764712873396     1.007825032230
         H           -1.800953486817     1.600999757995    -1.527506126604     1.007825032230
         H            0.308985513183    -1.660092242005    -0.433052126604     1.007825032230
         H           -3.147103486817    -2.093210242005     1.508815873396     1.007825032230
         H           -4.053608486817     0.579883757995    -1.739760126604     1.007825032230
         H           -4.726470486817    -1.285343242005    -0.237698126604     1.007825032230
         H            2.485674513183    -2.797382242005    -0.740175126604     1.007825032230
         H            4.422957513183     0.940792757995     0.155273873396     1.007825032230
         H            4.616605513183    -1.485569242005    -0.427155126604     1.007825032230

  Basis Set: AUG-CC-PVTZ
    Blend: AUG-CC-PVTZ
  Basis Set: (AUG-CC-PVTZ AUX)
    Blend: AUG-CC-PVTZ-JKFIT
	 Reference Energy          =    -570.4696910618930588 [Eh]
	 Singles Energy            =      -0.0000000000000000 [Eh]
	 Same-Spin Energy          =      -0.6373098962451330 [Eh]
	 Opposite-Spin Energy      =      -1.9752695536189382 [Eh]
	 Correlation Energy        =      -2.6125794498640711 [Eh]
	 Total Energy              =    -573.0822705117570877 [Eh]

	 ================> DF-SCS-MP2 Energies <==================
	-----------------------------------------------------------
	 SCS Same-Spin Scale       =       0.3333333333333333 [-]
	 SCS Opposite-Spin Scale   =       1.2000000000000000 [-]
	 SCS Same-Spin Energy      =      -0.2124366320817110 [Eh]
	 SCS Opposite-Spin Energy  =      -2.3703234643427256 [Eh]
	 SCS Correlation Energy    =      -2.5827600964244364 [Eh]
	 SCS Total Energy          =    -573.0524511583174672 [Eh]
	-----------------------------------------------------------

  Dipole Moment: [D]
     X:    -1.2144      Y:    -0.8921      Z:    -0.4655     Total:     1.5771

*** Psi4 exiting successfully. Buy a developer a beer!
