                               Psi4 1.4a2.dev612

  ==> Input File <==

--------------------------------------------------------------------------
#psi4
#
memory 32 gb

molecule  {
0 1
  N        0.0678190     0.9536280     0.3022870
  N        2.3787710     0.9561460     0.2207080
  C       -1.1991060     0.3426720     0.1363540
  C        1.2435610     0.2442270     0.0818760
  C        0.1402100     2.4122570     0.3330790
  C       -1.5868590    -0.6993050     0.9921800
  C       -2.0897480     0.7954790    -0.8469150
  C        1.2479987    -1.1111345    -0.3206472
  C       -2.8402720    -1.2929990     0.8487880
  C       -3.3529590     0.2138150    -0.9676140
  C       -3.7300960    -0.8357430    -0.1274420
  C        2.4727450    -1.7522840    -0.4525030
  C        3.5488610     0.3171890     0.0404760
  C        3.6581100    -1.0291840    -0.2852360
  H        0.8914220     2.7227450     1.0594170
  H       -0.8398030     2.7868350     0.6320060
  H        0.4165240     2.8365740    -0.6404330
  H       -0.9028320    -1.0219250     1.7735780
  H       -1.7862700     1.5949720    -1.5186410
  H        0.3236690    -1.6661200    -0.4241870
  H       -3.1324200    -2.0992380     1.5176810
  H       -4.0389250     0.5738560    -1.7308950
  H       -4.7117870    -1.2913710    -0.2288330
  H        2.5003580    -2.8034100    -0.7313100
  H        4.4376410     0.9347650     0.1641390
  H        4.6312890    -1.4915970    -0.4182900
units angstrom
no_reorient  #important for SAPT in psi4, default
symmetry c1  #important for SAPT in psi4, default
}

set PROPERTIES_ORIGIN ["COM"]
properties('MP2/aug-cc-pvtz', properties = ['dipole'])
--------------------------------------------------------------------------

    Molecular point group: c1
  Charge       = 0
  Multiplicity = 1
  Basis Set: AUG-CC-PVTZ
    Blend: AUG-CC-PVTZ
  Basis Set: (AUG-CC-PVTZ AUX)
    Blend: AUG-CC-PVTZ-JKFIT

    Orbital Energies [Eh]
    ---------------------

    Doubly Occupied:

       1A    -15.578952     2A    -15.549057     3A    -11.317244
       4A    -11.280317     5A    -11.272684     6A    -11.255330
       7A    -11.249649     8A    -11.243787     9A    -11.243505
      10A    -11.239278    11A    -11.238280    12A    -11.237919
      13A    -11.227693    14A    -11.222911    15A     -1.294714
      16A     -1.220361    17A     -1.143976    18A     -1.078940
      19A     -1.028439    20A     -1.020580    21A     -1.004799
      22A     -0.926753    23A     -0.860406    24A     -0.843111
      25A     -0.833340    26A     -0.791959    27A     -0.730308
      28A     -0.693369    29A     -0.669176    30A     -0.658136
      31A     -0.648151    32A     -0.629186    33A     -0.614484
      34A     -0.602391    35A     -0.591236    36A     -0.584722
      37A     -0.568263    38A     -0.539112    39A     -0.534639
      40A     -0.528339    41A     -0.511408    42A     -0.505048
      43A     -0.501146    44A     -0.429909    45A     -0.413275
      46A     -0.377170    47A     -0.344231    48A     -0.339176
      49A     -0.288700

  @DF-RHF Final Energy:  -570.48362984074834

   => Energetics <=

    Nuclear Repulsion Energy =            819.7177125018770312
    One-Electron Energy =               -2399.3915696083799958
    Two-Electron Energy =                1009.1902272657546291
    Total Energy =                       -570.4836298407483355
  Basis Set: (AUG-CC-PVTZ AUX)
    Blend: AUG-CC-PVTZ-RI
    Molecular point group: c1

    Geometry (in Angstrom), charge = 0, multiplicity = 1:

       Center              X                  Y                   Z               Mass
    ------------   -----------------  -----------------  -----------------  -----------------
         N            0.055973848124     0.958586787065     0.302492058953    14.003074004430
         N            2.366925848124     0.961104787065     0.220913058953    14.003074004430
         C           -1.210951151876     0.347630787065     0.136559058953    12.000000000000
         C            1.231715848124     0.249185787065     0.082081058953    12.000000000000
         C            0.128364848124     2.417215787065     0.333284058953    12.000000000000
         C           -1.598704151876    -0.694346212935     0.992385058953    12.000000000000
         C           -2.101593151876     0.800437787065    -0.846709941047    12.000000000000
         C            1.236153548124    -1.106175712935    -0.320442141047    12.000000000000
         C           -2.852117151876    -1.288040212935     0.848993058953    12.000000000000
         C           -3.364804151876     0.218773787065    -0.967408941047    12.000000000000
         C           -3.741941151876    -0.830784212935    -0.127236941047    12.000000000000
         C            2.460899848124    -1.747325212935    -0.452297941047    12.000000000000
         C            3.537015848124     0.322147787065     0.040681058953    12.000000000000
         C            3.646264848124    -1.024225212935    -0.285030941047    12.000000000000
         H            0.879576848124     2.727703787065     1.059622058953     1.007825032230
         H           -0.851648151876     2.791793787065     0.632211058953     1.007825032230
         H            0.404678848124     2.841532787065    -0.640227941047     1.007825032230
         H           -0.914677151876    -1.016966212935     1.773783058953     1.007825032230
         H           -1.798115151876     1.599930787065    -1.518435941047     1.007825032230
         H            0.311823848124    -1.661161212935    -0.423981941047     1.007825032230
         H           -3.144265151876    -2.094279212935     1.517886058953     1.007825032230
         H           -4.050770151876     0.578814787065    -1.730689941047     1.007825032230
         H           -4.723632151876    -1.286412212935    -0.228627941047     1.007825032230
         H            2.488512848124    -2.798451212935    -0.731104941047     1.007825032230
         H            4.425795848124     0.939723787065     0.164344058953     1.007825032230
         H            4.619443848124    -1.486638212935    -0.418084941047     1.007825032230

  Basis Set: AUG-CC-PVTZ
    Blend: AUG-CC-PVTZ
  Basis Set: (AUG-CC-PVTZ AUX)
    Blend: AUG-CC-PVTZ-JKFIT
	 Reference Energy          =    -570.4836298407483355 [Eh]
	 Singles Energy            =      -0.0000000000000000 [Eh]
	 Same-Spin Energy          =      -0.6371142603716057 [Eh]
	 Opposite-Spin Energy      =      -1.9739211432115751 [Eh]
	 Correlation Energy        =      -2.6110354035831809 [Eh]
	 Total Energy              =    -573.0946652443315088 [Eh]

	 ================> DF-SCS-MP2 Energies <==================
	-----------------------------------------------------------
	 SCS Same-Spin Scale       =       0.3333333333333333 [-]
	 SCS Opposite-Spin Scale   =       1.2000000000000000 [-]
	 SCS Same-Spin Energy      =      -0.2123714201238686 [Eh]
	 SCS Opposite-Spin Energy  =      -2.3687053718538902 [Eh]
	 SCS Correlation Energy    =      -2.5810767919777589 [Eh]
	 SCS Total Energy          =    -573.0647066327261427 [Eh]
	-----------------------------------------------------------

  Dipole Moment: [D]
     X:    -1.1922      Y:    -0.9036      Z:    -0.4167     Total:     1.5529

*** Psi4 exiting successfully. Buy a developer a beer!
