                               Psi4 1.4a2.dev612

  ==> Input File <==

--------------------------------------------------------------------------
#psi4
#
memory 32 gb

molecule  {
0 1
  N        0.0678190     0.9536280     0.3022870
  N        2.3787710     0.9561460     0.2207080
  C       -1.1991060     0.3426720     0.1363540
  C        1.2435610     0.2442270     0.0818760
  C        0.1402100     2.4122570     0.3330790
  C       -1.4823027    -0.7092833     1.2190465
  C       -2.0897480     0.7954790    -0.8469150
  C        1.2497210    -1.1235430    -0.2722420
  C       -2.8402720    -1.2929990     0.8487880
  C       -3.3529590     0.2138150    -0.9676140
  C       -3.7300960    -0.8357430    -0.1274420
  C        2.4727450    -1.7522840    -0.4525030
  C        3.5488610     0.3171890     0.0404760
  C        3.6581100    -1.0291840    -0.2852360
  H        0.8914220     2.7227450     1.0594170
  H       -0.8398030     2.7868350     0.6320060
  H        0.4165240     2.8365740    -0.6404330
  H       -0.9028320    -1.0219250     1.7735780
  H       -1.7862700     1.5949720    -1.5186410
  H        0.3236690    -1.6661200    -0.4241870
  H       -3.1324200    -2.0992380     1.5176810
  H       -4.0389250     0.5738560    -1.7308950
  H       -4.7117870    -1.2913710    -0.2288330
  H        2.5003580    -2.8034100    -0.7313100
  H        4.4376410     0.9347650     0.1641390
  H        4.6312890    -1.4915970    -0.4182900
units angstrom
no_reorient  #important for SAPT in psi4, default
symmetry c1  #important for SAPT in psi4, default
}

set PROPERTIES_ORIGIN ["COM"]
properties('MP2/aug-cc-pvtz', properties = ['dipole'])
--------------------------------------------------------------------------

    Molecular point group: c1
  Charge       = 0
  Multiplicity = 1
  Basis Set: AUG-CC-PVTZ
    Blend: AUG-CC-PVTZ
  Basis Set: (AUG-CC-PVTZ AUX)
    Blend: AUG-CC-PVTZ-JKFIT

    Orbital Energies [Eh]
    ---------------------

    Doubly Occupied:

       1A    -15.575827     2A    -15.548533     3A    -11.316687
       4A    -11.298238     5A    -11.272432     6A    -11.261173
       7A    -11.254967     8A    -11.251598     9A    -11.248004
      10A    -11.247305    11A    -11.241581    12A    -11.240278
      13A    -11.227040    14A    -11.222494    15A     -1.293488
      16A     -1.218246    17A     -1.130186    18A     -1.078940
      19A     -1.026356    20A     -1.016266    21A     -1.000658
      22A     -0.925655    23A     -0.871035    24A     -0.853914
      25A     -0.835010    26A     -0.782738    27A     -0.728933
      28A     -0.712895    29A     -0.676977    30A     -0.662627
      31A     -0.641930    32A     -0.637719    33A     -0.613776
      34A     -0.603347    35A     -0.595709    36A     -0.577449
      37A     -0.565880    38A     -0.540948    39A     -0.535245
      40A     -0.532915    41A     -0.519586    42A     -0.495410
      43A     -0.478986    44A     -0.422504    45A     -0.413044
      46A     -0.376813    47A     -0.338683    48A     -0.332385
      49A     -0.286096

  @DF-RHF Final Energy:  -570.38717337196204

   => Energetics <=

    Nuclear Repulsion Energy =            816.3798867014555753
    One-Electron Energy =               -2392.4771072210510283
    Two-Electron Energy =                1005.7100471476333041
    Total Energy =                       -570.3871733719620352
  Basis Set: (AUG-CC-PVTZ AUX)
    Blend: AUG-CC-PVTZ-RI
    Molecular point group: c1

    Geometry (in Angstrom), charge = 0, multiplicity = 1:

       Center              X                  Y                   Z               Mass
    ------------   -----------------  -----------------  -----------------  -----------------
         N            0.049046401819     0.960046002325     0.284549312991    14.003074004430
         N            2.359998401819     0.962564002325     0.202970312991    14.003074004430
         C           -1.217878598181     0.349090002325     0.118616312991    12.000000000000
         C            1.224788401819     0.250645002325     0.064138312991    12.000000000000
         C            0.121437401819     2.418675002325     0.315341312991    12.000000000000
         C           -1.501075298181    -0.702865297675     1.201308812991    12.000000000000
         C           -2.108520598181     0.801897002325    -0.864652687009    12.000000000000
         C            1.230948401819    -1.117124997675    -0.289979687009    12.000000000000
         C           -2.859044598181    -1.286580997675     0.831050312991    12.000000000000
         C           -3.371731598181     0.220233002325    -0.985351687009    12.000000000000
         C           -3.748868598181    -0.829324997675    -0.145179687009    12.000000000000
         C            2.453972401819    -1.745865997675    -0.470240687009    12.000000000000
         C            3.530088401819     0.323607002325     0.022738312991    12.000000000000
         C            3.639337401819    -1.022765997675    -0.302973687009    12.000000000000
         H            0.872649401819     2.729163002325     1.041679312991     1.007825032230
         H           -0.858575598181     2.793253002325     0.614268312991     1.007825032230
         H            0.397751401819     2.842992002325    -0.658170687009     1.007825032230
         H           -0.921604598181    -1.015506997675     1.755840312991     1.007825032230
         H           -1.805042598181     1.601390002325    -1.536378687009     1.007825032230
         H            0.304896401819    -1.659701997675    -0.441924687009     1.007825032230
         H           -3.151192598181    -2.092819997675     1.499943312991     1.007825032230
         H           -4.057697598181     0.580274002325    -1.748632687009     1.007825032230
         H           -4.730559598181    -1.284952997675    -0.246570687009     1.007825032230
         H            2.481585401819    -2.796991997675    -0.749047687009     1.007825032230
         H            4.418868401819     0.941183002325     0.146401312991     1.007825032230
         H            4.612516401819    -1.485178997675    -0.436027687009     1.007825032230

  Basis Set: AUG-CC-PVTZ
    Blend: AUG-CC-PVTZ
  Basis Set: (AUG-CC-PVTZ AUX)
    Blend: AUG-CC-PVTZ-JKFIT
	 Reference Energy          =    -570.3871733719620352 [Eh]
	 Singles Energy            =      -0.0000000000000000 [Eh]
	 Same-Spin Energy          =      -0.6386561471892614 [Eh]
	 Opposite-Spin Energy      =      -1.9805274403067403 [Eh]
	 Correlation Energy        =      -2.6191835874960017 [Eh]
	 Total Energy              =    -573.0063569594580031 [Eh]

	 ================> DF-SCS-MP2 Energies <==================
	-----------------------------------------------------------
	 SCS Same-Spin Scale       =       0.3333333333333333 [-]
	 SCS Opposite-Spin Scale   =       1.2000000000000000 [-]
	 SCS Same-Spin Energy      =      -0.2128853823964205 [Eh]
	 SCS Opposite-Spin Energy  =      -2.3766329283680885 [Eh]
	 SCS Correlation Energy    =      -2.5895183107645088 [Eh]
	 SCS Total Energy          =    -572.9766916827265959 [Eh]
	-----------------------------------------------------------

  Dipole Moment: [D]
     X:    -1.2729      Y:    -0.8573      Z:    -0.5610     Total:     1.6341

*** Psi4 exiting successfully. Buy a developer a beer!
