                               Psi4 1.4a2.dev612

  ==> Input File <==

--------------------------------------------------------------------------
#psi4
#
memory 32 gb

molecule  {
0 1
  N        0.0678190     0.9536280     0.3022870
  N        2.3787710     0.9561460     0.2207080
  C       -1.1991060     0.3426720     0.1363540
  C        1.2435610     0.2442270     0.0818760
  C        0.1402100     2.4122570     0.3330790
  C       -1.5659477    -0.7013007     1.0375533
  C       -2.0897480     0.7954790    -0.8469150
  C        1.2497210    -1.1235430    -0.2722420
  C       -2.8402720    -1.2929990     0.8487880
  C       -3.3529590     0.2138150    -0.9676140
  C       -3.7300960    -0.8357430    -0.1274420
  C        2.4727450    -1.7522840    -0.4525030
  C        3.5488610     0.3171890     0.0404760
  C        3.6581100    -1.0291840    -0.2852360
  H        0.8914220     2.7227450     1.0594170
  H       -0.8398030     2.7868350     0.6320060
  H        0.4165240     2.8365740    -0.6404330
  H       -0.9028320    -1.0219250     1.7735780
  H       -1.7862700     1.5949720    -1.5186410
  H        0.3236690    -1.6661200    -0.4241870
  H       -3.1324200    -2.0992380     1.5176810
  H       -4.0389250     0.5738560    -1.7308950
  H       -4.7117870    -1.2913710    -0.2288330
  H        2.5003580    -2.8034100    -0.7313100
  H        4.4376410     0.9347650     0.1641390
  H        4.6312890    -1.4915970    -0.4182900
units angstrom
no_reorient  #important for SAPT in psi4, default
symmetry c1  #important for SAPT in psi4, default
}

set PROPERTIES_ORIGIN ["COM"]
properties('MP2/aug-cc-pvtz', properties = ['dipole'])
--------------------------------------------------------------------------

    Molecular point group: c1
  Charge       = 0
  Multiplicity = 1
  Basis Set: AUG-CC-PVTZ
    Blend: AUG-CC-PVTZ
  Basis Set: (AUG-CC-PVTZ AUX)
    Blend: AUG-CC-PVTZ-JKFIT

    Orbital Energies [Eh]
    ---------------------

    Doubly Occupied:

       1A    -15.578273     2A    -15.548861     3A    -11.317075
       4A    -11.283256     5A    -11.272563     6A    -11.255091
       7A    -11.249260     8A    -11.246346     9A    -11.244938
      10A    -11.239528    11A    -11.239280    12A    -11.238458
      13A    -11.227418    14A    -11.222734    15A     -1.294457
      16A     -1.219838    17A     -1.140246    18A     -1.079137
      19A     -1.027756    20A     -1.019461    21A     -1.003552
      22A     -0.926397    23A     -0.860320    24A     -0.844643
      25A     -0.833959    26A     -0.790130    27A     -0.729641
      28A     -0.695057    29A     -0.670725    30A     -0.658853
      31A     -0.646215    32A     -0.631662    33A     -0.614459
      34A     -0.602620    35A     -0.594234    36A     -0.582830
      37A     -0.567999    38A     -0.538932    39A     -0.535295
      40A     -0.528620    41A     -0.510815    42A     -0.507321
      43A     -0.498201    44A     -0.428819    45A     -0.413462
      46A     -0.377290    47A     -0.341846    48A     -0.338935
      49A     -0.288058

  @DF-RHF Final Energy:  -570.48040319337701

   => Energetics <=

    Nuclear Repulsion Energy =            819.0846117977920358
    One-Electron Energy =               -2398.1202972810260690
    Two-Electron Energy =                1008.5552822898569048
    Total Energy =                       -570.4804031933770148
  Basis Set: (AUG-CC-PVTZ AUX)
    Blend: AUG-CC-PVTZ-RI
    Molecular point group: c1

    Geometry (in Angstrom), charge = 0, multiplicity = 1:

       Center              X                  Y                   Z               Mass
    ------------   -----------------  -----------------  -----------------  -----------------
         N            0.054498545959     0.959525680897     0.296379393531    14.003074004430
         N            2.365450545959     0.962043680897     0.214800393531    14.003074004430
         C           -1.212426454041     0.348569680897     0.130446393531    12.000000000000
         C            1.230240545959     0.250124680897     0.075968393531    12.000000000000
         C            0.126889545959     2.418154680897     0.327171393531    12.000000000000
         C           -1.579268154041    -0.695403019103     1.031645693531    12.000000000000
         C           -2.103068454041     0.801376680897    -0.852822606469    12.000000000000
         C            1.236400545959    -1.117645319103    -0.278149606469    12.000000000000
         C           -2.853592454041    -1.287101319103     0.842880393531    12.000000000000
         C           -3.366279454041     0.219712680897    -0.973521606469    12.000000000000
         C           -3.743416454041    -0.829845319103    -0.133349606469    12.000000000000
         C            2.459424545959    -1.746386319103    -0.458410606469    12.000000000000
         C            3.535540545959     0.323086680897     0.034568393531    12.000000000000
         C            3.644789545959    -1.023286319103    -0.291143606469    12.000000000000
         H            0.878101545959     2.728642680897     1.053509393531     1.007825032230
         H           -0.853123454041     2.792732680897     0.626098393531     1.007825032230
         H            0.403203545959     2.842471680897    -0.646340606469     1.007825032230
         H           -0.916152454041    -1.016027319103     1.767670393531     1.007825032230
         H           -1.799590454041     1.600869680897    -1.524548606469     1.007825032230
         H            0.310348545959    -1.660222319103    -0.430094606469     1.007825032230
         H           -3.145740454041    -2.093340319103     1.511773393531     1.007825032230
         H           -4.052245454041     0.579753680897    -1.736802606469     1.007825032230
         H           -4.725107454041    -1.285473319103    -0.234740606469     1.007825032230
         H            2.487037545959    -2.797512319103    -0.737217606469     1.007825032230
         H            4.424320545959     0.940662680897     0.158231393531     1.007825032230
         H            4.617968545959    -1.485699319103    -0.424197606469     1.007825032230

  Basis Set: AUG-CC-PVTZ
    Blend: AUG-CC-PVTZ
  Basis Set: (AUG-CC-PVTZ AUX)
    Blend: AUG-CC-PVTZ-JKFIT
	 Reference Energy          =    -570.4804031933770148 [Eh]
	 Singles Energy            =      -0.0000000000000000 [Eh]
	 Same-Spin Energy          =      -0.6371405533279790 [Eh]
	 Opposite-Spin Energy      =      -1.9743827504023841 [Eh]
	 Correlation Energy        =      -2.6115233037303631 [Eh]
	 Total Energy              =    -573.0919264971073517 [Eh]

	 ================> DF-SCS-MP2 Energies <==================
	-----------------------------------------------------------
	 SCS Same-Spin Scale       =       0.3333333333333333 [-]
	 SCS Opposite-Spin Scale   =       1.2000000000000000 [-]
	 SCS Same-Spin Energy      =      -0.2123801844426597 [Eh]
	 SCS Opposite-Spin Energy  =      -2.3692593004828608 [Eh]
	 SCS Correlation Energy    =      -2.5816394849255206 [Eh]
	 SCS Total Energy          =    -573.0620426783025323 [Eh]
	-----------------------------------------------------------

  Dipole Moment: [D]
     X:    -1.2038      Y:    -0.8976      Z:    -0.4479     Total:     1.5670

*** Psi4 exiting successfully. Buy a developer a beer!
