                               Psi4 1.4a2.dev612

  ==> Input File <==

--------------------------------------------------------------------------
#psi4
#
memory 32 gb

molecule  {
0 1
  N        0.0678190     0.9536280     0.3022870
  N        2.3787710     0.9561460     0.2207080
  C       -1.1991060     0.3426720     0.1363540
  C        1.2435610     0.2442270     0.0818760
  C        0.1402100     2.4122570     0.3330790
  C       -1.4613914    -0.7112789     1.2644198
  C       -2.0897480     0.7954790    -0.8469150
  C        1.2497210    -1.1235430    -0.2722420
  C       -2.8402720    -1.2929990     0.8487880
  C       -3.3529590     0.2138150    -0.9676140
  C       -3.7300960    -0.8357430    -0.1274420
  C        2.4727450    -1.7522840    -0.4525030
  C        3.5488610     0.3171890     0.0404760
  C        3.6581100    -1.0291840    -0.2852360
  H        0.8914220     2.7227450     1.0594170
  H       -0.8398030     2.7868350     0.6320060
  H        0.4165240     2.8365740    -0.6404330
  H       -0.9028320    -1.0219250     1.7735780
  H       -1.7862700     1.5949720    -1.5186410
  H        0.3236690    -1.6661200    -0.4241870
  H       -3.1324200    -2.0992380     1.5176810
  H       -4.0389250     0.5738560    -1.7308950
  H       -4.7117870    -1.2913710    -0.2288330
  H        2.5003580    -2.8034100    -0.7313100
  H        4.4376410     0.9347650     0.1641390
  H        4.6312890    -1.4915970    -0.4182900
units angstrom
no_reorient  #important for SAPT in psi4, default
symmetry c1  #important for SAPT in psi4, default
}

set PROPERTIES_ORIGIN ["COM"]
properties('MP2/aug-cc-pvtz', properties = ['dipole'])
--------------------------------------------------------------------------

    Molecular point group: c1
  Charge       = 0
  Multiplicity = 1
  Basis Set: AUG-CC-PVTZ
    Blend: AUG-CC-PVTZ
  Basis Set: (AUG-CC-PVTZ AUX)
    Blend: AUG-CC-PVTZ-JKFIT

    Orbital Energies [Eh]
    ---------------------

    Doubly Occupied:

       1A    -15.575446     2A    -15.548478     3A    -11.316601
       4A    -11.302480     5A    -11.272374     6A    -11.265399
       7A    -11.254898     8A    -11.253773     9A    -11.249881
      10A    -11.247791    11A    -11.242354    12A    -11.240975
      13A    -11.226946    14A    -11.222437    15A     -1.293321
      16A     -1.217969    17A     -1.128893    18A     -1.078883
      19A     -1.026292    20A     -1.016649    21A     -1.000528
      22A     -0.926050    23A     -0.878537    24A     -0.854404
      25A     -0.834865    26A     -0.781256    27A     -0.729896
      28A     -0.717013    29A     -0.677874    30A     -0.663147
      31A     -0.642484    32A     -0.636787    33A     -0.613568
      34A     -0.603528    35A     -0.594616    36A     -0.576509
      37A     -0.565466    38A     -0.542188    39A     -0.535357
      40A     -0.533541    41A     -0.520044    42A     -0.493349
      43A     -0.473459    44A     -0.419941    45A     -0.412908
      46A     -0.376617    47A     -0.338900    48A     -0.330059
      49A     -0.285580

  @DF-RHF Final Energy:  -570.33914928779802

   => Energetics <=

    Nuclear Repulsion Energy =            815.7314083570746561
    One-Electron Energy =               -2391.0604922949041793
    Two-Electron Energy =                1004.9899346500316142
    Total Energy =                       -570.3391492877980227
  Basis Set: (AUG-CC-PVTZ AUX)
    Blend: AUG-CC-PVTZ-RI
    Molecular point group: c1

    Geometry (in Angstrom), charge = 0, multiplicity = 1:

       Center              X                  Y                   Z               Mass
    ------------   -----------------  -----------------  -----------------  -----------------
         N            0.047683362525     0.960176079423     0.281591792856    14.003074004430
         N            2.358635362525     0.962694079423     0.200012792856    14.003074004430
         C           -1.219241637475     0.349220079423     0.115658792856    12.000000000000
         C            1.223425362525     0.250775079423     0.061180792856    12.000000000000
         C            0.120074362525     2.418805079423     0.312383792856    12.000000000000
         C           -1.481527037475    -0.704730820577     1.243724592856    12.000000000000
         C           -2.109883637475     0.802027079423    -0.867610207144    12.000000000000
         C            1.229585362525    -1.116994920577    -0.292937207144    12.000000000000
         C           -2.860407637475    -1.286450920577     0.828092792856    12.000000000000
         C           -3.373094637475     0.220363079423    -0.988309207144    12.000000000000
         C           -3.750231637475    -0.829194920577    -0.148137207144    12.000000000000
         C            2.452609362525    -1.745735920577    -0.473198207144    12.000000000000
         C            3.528725362525     0.323737079423     0.019780792856    12.000000000000
         C            3.637974362525    -1.022635920577    -0.305931207144    12.000000000000
         H            0.871286362525     2.729293079423     1.038721792856     1.007825032230
         H           -0.859938637475     2.793383079423     0.611310792856     1.007825032230
         H            0.396388362525     2.843122079423    -0.661128207144     1.007825032230
         H           -0.922967637475    -1.015376920577     1.752882792856     1.007825032230
         H           -1.806405637475     1.601520079423    -1.539336207144     1.007825032230
         H            0.303533362525    -1.659571920577    -0.444882207144     1.007825032230
         H           -3.152555637475    -2.092689920577     1.496985792856     1.007825032230
         H           -4.059060637475     0.580404079423    -1.751590207144     1.007825032230
         H           -4.731922637475    -1.284822920577    -0.249528207144     1.007825032230
         H            2.480222362525    -2.796861920577    -0.752005207144     1.007825032230
         H            4.417505362525     0.941313079423     0.143443792856     1.007825032230
         H            4.611153362525    -1.485048920577    -0.438985207144     1.007825032230

  Basis Set: AUG-CC-PVTZ
    Blend: AUG-CC-PVTZ
  Basis Set: (AUG-CC-PVTZ AUX)
    Blend: AUG-CC-PVTZ-JKFIT
	 Reference Energy          =    -570.3391492877980227 [Eh]
	 Singles Energy            =      -0.0000000000000000 [Eh]
	 Same-Spin Energy          =      -0.6393775830221818 [Eh]
	 Opposite-Spin Energy      =      -1.9830659769036114 [Eh]
	 Correlation Energy        =      -2.6224435599257934 [Eh]
	 Total Energy              =    -572.9615928477238640 [Eh]

	 ================> DF-SCS-MP2 Energies <==================
	-----------------------------------------------------------
	 SCS Same-Spin Scale       =       0.3333333333333333 [-]
	 SCS Opposite-Spin Scale   =       1.2000000000000000 [-]
	 SCS Same-Spin Energy      =      -0.2131258610073939 [Eh]
	 SCS Opposite-Spin Energy  =      -2.3796791722843338 [Eh]
	 SCS Correlation Energy    =      -2.5928050332917278 [Eh]
	 SCS Total Energy          =    -572.9319543210897336 [Eh]
	-----------------------------------------------------------

  Dipole Moment: [D]
     X:    -1.2979      Y:    -0.8407      Z:    -0.6046     Total:     1.6604

*** Psi4 exiting successfully. Buy a developer a beer!
