                               Psi4 1.4a2.dev612

  ==> Input File <==

--------------------------------------------------------------------------
#psi4
#
memory 32 gb

molecule  {
0 1
  N        0.0678190     0.9536280     0.3022870
  N        2.3787710     0.9561460     0.2207080
  C       -1.1991060     0.3426720     0.1363540
  C        1.2435610     0.2442270     0.0818760
  C        0.1402100     2.4122570     0.3330790
  C       -1.5868590    -0.6993050     0.9921800
  C       -2.0897480     0.7954790    -0.8469150
  C        1.2445542    -1.0863174    -0.4174576
  C       -2.8402720    -1.2929990     0.8487880
  C       -3.3529590     0.2138150    -0.9676140
  C       -3.7300960    -0.8357430    -0.1274420
  C        2.4727450    -1.7522840    -0.4525030
  C        3.5488610     0.3171890     0.0404760
  C        3.6581100    -1.0291840    -0.2852360
  H        0.8914220     2.7227450     1.0594170
  H       -0.8398030     2.7868350     0.6320060
  H        0.4165240     2.8365740    -0.6404330
  H       -0.9028320    -1.0219250     1.7735780
  H       -1.7862700     1.5949720    -1.5186410
  H        0.3236690    -1.6661200    -0.4241870
  H       -3.1324200    -2.0992380     1.5176810
  H       -4.0389250     0.5738560    -1.7308950
  H       -4.7117870    -1.2913710    -0.2288330
  H        2.5003580    -2.8034100    -0.7313100
  H        4.4376410     0.9347650     0.1641390
  H        4.6312890    -1.4915970    -0.4182900
units angstrom
no_reorient  #important for SAPT in psi4, default
symmetry c1  #important for SAPT in psi4, default
}

set PROPERTIES_ORIGIN ["COM"]
properties('MP2/aug-cc-pvtz', properties = ['dipole'])
--------------------------------------------------------------------------

    Molecular point group: c1
  Charge       = 0
  Multiplicity = 1
  Basis Set: AUG-CC-PVTZ
    Blend: AUG-CC-PVTZ
  Basis Set: (AUG-CC-PVTZ AUX)
    Blend: AUG-CC-PVTZ-JKFIT

    Orbital Energies [Eh]
    ---------------------

    Doubly Occupied:

       1A    -15.579082     2A    -15.549235     3A    -11.318400
       4A    -11.280376     5A    -11.273785     6A    -11.257017
       7A    -11.249742     8A    -11.243798     9A    -11.243579
      10A    -11.239172    11A    -11.238214    12A    -11.237968
      13A    -11.229038    14A    -11.223157    15A     -1.294688
      16A     -1.220469    17A     -1.143973    18A     -1.077801
      19A     -1.028005    20A     -1.020577    21A     -1.004581
      22A     -0.926556    23A     -0.860415    24A     -0.842414
      25A     -0.833411    26A     -0.791503    27A     -0.730013
      28A     -0.692817    29A     -0.668149    30A     -0.657617
      31A     -0.648510    32A     -0.628753    33A     -0.612998
      34A     -0.601687    35A     -0.591424    36A     -0.585806
      37A     -0.567536    38A     -0.539427    39A     -0.532944
      40A     -0.527983    41A     -0.511594    42A     -0.504487
      43A     -0.501117    44A     -0.430223    45A     -0.412182
      46A     -0.376538    47A     -0.344328    48A     -0.338722
      49A     -0.289384

  @DF-RHF Final Energy:  -570.47831507990168

   => Energetics <=

    Nuclear Repulsion Energy =            819.4314053902638761
    One-Electron Energy =               -2398.8170491146543100
    Two-Electron Energy =                1008.9073286444886435
    Total Energy =                       -570.4783150799016767
  Basis Set: (AUG-CC-PVTZ AUX)
    Blend: AUG-CC-PVTZ-RI
    Molecular point group: c1

    Geometry (in Angstrom), charge = 0, multiplicity = 1:

       Center              X                  Y                   Z               Mass
    ------------   -----------------  -----------------  -----------------  -----------------
         N            0.056198367348     0.956969160114     0.308802349527    14.003074004430
         N            2.367150367348     0.959487160114     0.227223349527    14.003074004430
         C           -1.210726632652     0.346013160114     0.142869349527    12.000000000000
         C            1.231940367348     0.247568160114     0.088391349527    12.000000000000
         C            0.128589367348     2.415598160114     0.339594349527    12.000000000000
         C           -1.598479632652    -0.695963839886     0.998695349527    12.000000000000
         C           -2.101368632652     0.798820160114    -0.840399650473    12.000000000000
         C            1.232933567348    -1.082976239886    -0.410942250473    12.000000000000
         C           -2.851892632652    -1.289657839886     0.855303349527    12.000000000000
         C           -3.364579632652     0.217156160114    -0.961098650473    12.000000000000
         C           -3.741716632652    -0.832401839886    -0.120926650473    12.000000000000
         C            2.461124367348    -1.748942839886    -0.445987650473    12.000000000000
         C            3.537240367348     0.320530160114     0.046991349527    12.000000000000
         C            3.646489367348    -1.025842839886    -0.278720650473    12.000000000000
         H            0.879801367348     2.726086160114     1.065932349527     1.007825032230
         H           -0.851423632652     2.790176160114     0.638521349527     1.007825032230
         H            0.404903367348     2.839915160114    -0.633917650473     1.007825032230
         H           -0.914452632652    -1.018583839886     1.780093349527     1.007825032230
         H           -1.797890632652     1.598313160114    -1.512125650473     1.007825032230
         H            0.312048367348    -1.662778839886    -0.417671650473     1.007825032230
         H           -3.144040632652    -2.095896839886     1.524196349527     1.007825032230
         H           -4.050545632652     0.577197160114    -1.724379650473     1.007825032230
         H           -4.723407632652    -1.288029839886    -0.222317650473     1.007825032230
         H            2.488737367348    -2.800068839886    -0.724794650473     1.007825032230
         H            4.426020367348     0.938106160114     0.170654349527     1.007825032230
         H            4.619668367348    -1.488255839886    -0.411774650473     1.007825032230

  Basis Set: AUG-CC-PVTZ
    Blend: AUG-CC-PVTZ
  Basis Set: (AUG-CC-PVTZ AUX)
    Blend: AUG-CC-PVTZ-JKFIT
	 Reference Energy          =    -570.4783150799016767 [Eh]
	 Singles Energy            =      -0.0000000000000000 [Eh]
	 Same-Spin Energy          =      -0.6372610810692675 [Eh]
	 Opposite-Spin Energy      =      -1.9743803601636520 [Eh]
	 Correlation Energy        =      -2.6116414412329196 [Eh]
	 Total Energy              =    -573.0899565211345816 [Eh]

	 ================> DF-SCS-MP2 Energies <==================
	-----------------------------------------------------------
	 SCS Same-Spin Scale       =       0.3333333333333333 [-]
	 SCS Opposite-Spin Scale   =       1.2000000000000000 [-]
	 SCS Same-Spin Energy      =      -0.2124203603564225 [Eh]
	 SCS Opposite-Spin Energy  =      -2.3692564321963823 [Eh]
	 SCS Correlation Energy    =      -2.5816767925528046 [Eh]
	 SCS Total Energy          =    -573.0599918724544750 [Eh]
	-----------------------------------------------------------

  Dipole Moment: [D]
     X:    -1.1638      Y:    -0.8888      Z:    -0.3652     Total:     1.5092

*** Psi4 exiting successfully. Buy a developer a beer!
