                               Psi4 1.4a2.dev612

  ==> Input File <==

--------------------------------------------------------------------------
#psi4
#
memory 32 gb

molecule  {
0 1
  N        0.0678190     0.9536280     0.3022870
  N        2.3787710     0.9561460     0.2207080
  C       -1.1991060     0.3426720     0.1363540
  C        1.2435610     0.2442270     0.0818760
  C        0.1402100     2.4122570     0.3330790
  C       -1.5032139    -0.7072876     1.1736732
  C       -2.0897480     0.7954790    -0.8469150
  C        1.2497210    -1.1235430    -0.2722420
  C       -2.8402720    -1.2929990     0.8487880
  C       -3.3529590     0.2138150    -0.9676140
  C       -3.7300960    -0.8357430    -0.1274420
  C        2.4727450    -1.7522840    -0.4525030
  C        3.5488610     0.3171890     0.0404760
  C        3.6581100    -1.0291840    -0.2852360
  H        0.8914220     2.7227450     1.0594170
  H       -0.8398030     2.7868350     0.6320060
  H        0.4165240     2.8365740    -0.6404330
  H       -0.9028320    -1.0219250     1.7735780
  H       -1.7862700     1.5949720    -1.5186410
  H        0.3236690    -1.6661200    -0.4241870
  H       -3.1324200    -2.0992380     1.5176810
  H       -4.0389250     0.5738560    -1.7308950
  H       -4.7117870    -1.2913710    -0.2288330
  H        2.5003580    -2.8034100    -0.7313100
  H        4.4376410     0.9347650     0.1641390
  H        4.6312890    -1.4915970    -0.4182900
units angstrom
no_reorient  #important for SAPT in psi4, default
symmetry c1  #important for SAPT in psi4, default
}

set PROPERTIES_ORIGIN ["COM"]
properties('MP2/aug-cc-pvtz', properties = ['dipole'])
--------------------------------------------------------------------------

    Molecular point group: c1
  Charge       = 0
  Multiplicity = 1
  Basis Set: AUG-CC-PVTZ
    Blend: AUG-CC-PVTZ
  Basis Set: (AUG-CC-PVTZ AUX)
    Blend: AUG-CC-PVTZ-JKFIT

    Orbital Energies [Eh]
    ---------------------

    Doubly Occupied:

       1A    -15.576310     2A    -15.548605     3A    -11.316782
       4A    -11.294143     5A    -11.272484     6A    -11.257103
       7A    -11.255026     8A    -11.249643     9A    -11.248260
      10A    -11.244990    11A    -11.240902    12A    -11.239670
      13A    -11.227142    14A    -11.222557    15A     -1.293689
      16A     -1.218572    17A     -1.131960    18A     -1.078998
      19A     -1.026523    20A     -1.016578    21A     -1.001031
      22A     -0.925592    23A     -0.865213    24A     -0.852568
      25A     -0.835063    26A     -0.784422    27A     -0.728592
      28A     -0.707682    29A     -0.675800    30A     -0.661962
      31A     -0.641917    32A     -0.637831    33A     -0.613947
      34A     -0.603140    35A     -0.596474    36A     -0.578575
      37A     -0.566373    38A     -0.540017    39A     -0.535198
      40A     -0.531949    41A     -0.518756    42A     -0.497877
      43A     -0.484413    44A     -0.424582    45A     -0.413157
      46A     -0.376977    47A     -0.338593    48A     -0.334726
      49A     -0.286613

  @DF-RHF Final Energy:  -570.42410059975691

   => Energetics <=

    Nuclear Repulsion Energy =            817.0431228848264027
    One-Electron Energy =               -2393.8964891284372243
    Two-Electron Energy =                1006.4292656438537961
    Total Energy =                       -570.4241005997569118
  Basis Set: (AUG-CC-PVTZ AUX)
    Blend: AUG-CC-PVTZ-RI
    Molecular point group: c1

    Geometry (in Angstrom), charge = 0, multiplicity = 1:

       Center              X                  Y                   Z               Mass
    ------------   -----------------  -----------------  -----------------  -----------------
         N            0.050409434595     0.959915918709     0.287506833126    14.003074004430
         N            2.361361434595     0.962433918709     0.205927833126    14.003074004430
         C           -1.216515565405     0.348959918709     0.121573833126    12.000000000000
         C            1.226151434595     0.250514918709     0.067095833126    12.000000000000
         C            0.122800434595     2.418544918709     0.318298833126    12.000000000000
         C           -1.520623465405    -0.700999681291     1.158893033126    12.000000000000
         C           -2.107157565405     0.801766918709    -0.861695166874    12.000000000000
         C            1.232311434595    -1.117255081291    -0.287022166874    12.000000000000
         C           -2.857681565405    -1.286711081291     0.834007833126    12.000000000000
         C           -3.370368565405     0.220102918709    -0.982394166874    12.000000000000
         C           -3.747505565405    -0.829455081291    -0.142222166874    12.000000000000
         C            2.455335434595    -1.745996081291    -0.467283166874    12.000000000000
         C            3.531451434595     0.323476918709     0.025695833126    12.000000000000
         C            3.640700434595    -1.022896081291    -0.300016166874    12.000000000000
         H            0.874012434595     2.729032918709     1.044636833126     1.007825032230
         H           -0.857212565405     2.793122918709     0.617225833126     1.007825032230
         H            0.399114434595     2.842861918709    -0.655213166874     1.007825032230
         H           -0.920241565405    -1.015637081291     1.758797833126     1.007825032230
         H           -1.803679565405     1.601259918709    -1.533421166874     1.007825032230
         H            0.306259434595    -1.659832081291    -0.438967166874     1.007825032230
         H           -3.149829565405    -2.092950081291     1.502900833126     1.007825032230
         H           -4.056334565405     0.580143918709    -1.745675166874     1.007825032230
         H           -4.729196565405    -1.285083081291    -0.243613166874     1.007825032230
         H            2.482948434595    -2.797122081291    -0.746090166874     1.007825032230
         H            4.420231434595     0.941052918709     0.149358833126     1.007825032230
         H            4.613879434595    -1.485309081291    -0.433070166874     1.007825032230

  Basis Set: AUG-CC-PVTZ
    Blend: AUG-CC-PVTZ
  Basis Set: (AUG-CC-PVTZ AUX)
    Blend: AUG-CC-PVTZ-JKFIT
	 Reference Energy          =    -570.4241005997569118 [Eh]
	 Singles Energy            =      -0.0000000000000000 [Eh]
	 Same-Spin Energy          =      -0.6380688144651798 [Eh]
	 Opposite-Spin Energy      =      -1.9783641131036493 [Eh]
	 Correlation Energy        =      -2.6164329275688294 [Eh]
	 Total Energy              =    -573.0405335273256924 [Eh]

	 ================> DF-SCS-MP2 Energies <==================
	-----------------------------------------------------------
	 SCS Same-Spin Scale       =       0.3333333333333333 [-]
	 SCS Opposite-Spin Scale   =       1.2000000000000000 [-]
	 SCS Same-Spin Energy      =      -0.2126896048217266 [Eh]
	 SCS Opposite-Spin Energy  =      -2.3740369357243791 [Eh]
	 SCS Correlation Energy    =      -2.5867265405461057 [Eh]
	 SCS Total Energy          =    -573.0108271403030358 [Eh]
	-----------------------------------------------------------

  Dipole Moment: [D]
     X:    -1.2499      Y:    -0.8716      Z:    -0.5227     Total:     1.6110

*** Psi4 exiting successfully. Buy a developer a beer!
