                               Psi4 1.4a2.dev612

  ==> Input File <==

--------------------------------------------------------------------------
#psi4
#
memory 32 gb

molecule  {
0 1
  N        0.0678190     0.9536280     0.3022870
  N        2.3787710     0.9561460     0.2207080
  C       -1.1991060     0.3426720     0.1363540
  C        1.2435610     0.2442270     0.0818760
  C        0.1402100     2.4122570     0.3330790
  C       -1.5868590    -0.6993050     0.9921800
  C       -2.0897480     0.7954790    -0.8469150
  C        1.2428319    -1.0739089    -0.4658628
  C       -2.8402720    -1.2929990     0.8487880
  C       -3.3529590     0.2138150    -0.9676140
  C       -3.7300960    -0.8357430    -0.1274420
  C        2.4727450    -1.7522840    -0.4525030
  C        3.5488610     0.3171890     0.0404760
  C        3.6581100    -1.0291840    -0.2852360
  H        0.8914220     2.7227450     1.0594170
  H       -0.8398030     2.7868350     0.6320060
  H        0.4165240     2.8365740    -0.6404330
  H       -0.9028320    -1.0219250     1.7735780
  H       -1.7862700     1.5949720    -1.5186410
  H        0.3236690    -1.6661200    -0.4241870
  H       -3.1324200    -2.0992380     1.5176810
  H       -4.0389250     0.5738560    -1.7308950
  H       -4.7117870    -1.2913710    -0.2288330
  H        2.5003580    -2.8034100    -0.7313100
  H        4.4376410     0.9347650     0.1641390
  H        4.6312890    -1.4915970    -0.4182900
units angstrom
no_reorient  #important for SAPT in psi4, default
symmetry c1  #important for SAPT in psi4, default
}

set PROPERTIES_ORIGIN ["COM"]
properties('MP2/aug-cc-pvtz', properties = ['dipole'])
--------------------------------------------------------------------------

    Molecular point group: c1
  Charge       = 0
  Multiplicity = 1
  Basis Set: AUG-CC-PVTZ
    Blend: AUG-CC-PVTZ
  Basis Set: (AUG-CC-PVTZ AUX)
    Blend: AUG-CC-PVTZ-JKFIT

    Orbital Energies [Eh]
    ---------------------

    Doubly Occupied:

       1A    -15.579341     2A    -15.549314     3A    -11.319455
       4A    -11.280394     5A    -11.274760     6A    -11.258401
       7A    -11.249856     8A    -11.243767     9A    -11.243572
      10A    -11.239108    11A    -11.238162    12A    -11.237968
      13A    -11.230148    14A    -11.223277    15A     -1.294718
      16A     -1.220591    17A     -1.143960    18A     -1.076910
      19A     -1.027631    20A     -1.020530    21A     -1.004395
      22A     -0.926436    23A     -0.860344    24A     -0.841902
      25A     -0.833376    26A     -0.791130    27A     -0.729784
      28A     -0.692410    29A     -0.667315    30A     -0.657037
      31A     -0.648627    32A     -0.628363    33A     -0.611931
      34A     -0.601248    35A     -0.591498    36A     -0.586205
      37A     -0.567038    38A     -0.539546    39A     -0.532078
      40A     -0.527253    41A     -0.511670    42A     -0.503973
      43A     -0.501053    44A     -0.430398    45A     -0.411399
      46A     -0.376092    47A     -0.344324    48A     -0.338443
      49A     -0.289864

  @DF-RHF Final Energy:  -570.47352189042613

   => Energetics <=

    Nuclear Repulsion Energy =            819.1992353464072494
    One-Electron Energy =               -2398.3515273661778338
    Two-Electron Energy =                1008.6787701293444570
    Total Energy =                       -570.4735218904261274
  Basis Set: (AUG-CC-PVTZ AUX)
    Blend: AUG-CC-PVTZ-RI
    Molecular point group: c1

    Geometry (in Angstrom), charge = 0, multiplicity = 1:

       Center              X                  Y                   Z               Mass
    ------------   -----------------  -----------------  -----------------  -----------------
         N            0.056310630219     0.956160349897     0.311957494814    14.003074004430
         N            2.367262630219     0.958678349897     0.230378494814    14.003074004430
         C           -1.210614369781     0.345204349897     0.146024494814    12.000000000000
         C            1.232052630219     0.246759349897     0.091546494814    12.000000000000
         C            0.128701630219     2.414789349897     0.342749494814    12.000000000000
         C           -1.598367369781    -0.696772650103     1.001850494814    12.000000000000
         C           -2.101256369781     0.798011349897    -0.837244505186    12.000000000000
         C            1.231323530219    -1.071376550103    -0.456192305186    12.000000000000
         C           -2.851780369781    -1.290466650103     0.858458494814    12.000000000000
         C           -3.364467369781     0.216347349897    -0.957943505186    12.000000000000
         C           -3.741604369781    -0.833210650103    -0.117771505186    12.000000000000
         C            2.461236630219    -1.749751650103    -0.442832505186    12.000000000000
         C            3.537352630219     0.319721349897     0.050146494814    12.000000000000
         C            3.646601630219    -1.026651650103    -0.275565505186    12.000000000000
         H            0.879913630219     2.725277349897     1.069087494814     1.007825032230
         H           -0.851311369781     2.789367349897     0.641676494814     1.007825032230
         H            0.405015630219     2.839106349897    -0.630762505186     1.007825032230
         H           -0.914340369781    -1.019392650103     1.783248494814     1.007825032230
         H           -1.797778369781     1.597504349897    -1.508970505186     1.007825032230
         H            0.312160630219    -1.663587650103    -0.414516505186     1.007825032230
         H           -3.143928369781    -2.096705650103     1.527351494814     1.007825032230
         H           -4.050433369781     0.576388349897    -1.721224505186     1.007825032230
         H           -4.723295369781    -1.288838650103    -0.219162505186     1.007825032230
         H            2.488849630219    -2.800877650103    -0.721639505186     1.007825032230
         H            4.426132630219     0.937297349897     0.173809494814     1.007825032230
         H            4.619780630219    -1.489064650103    -0.408619505186     1.007825032230

  Basis Set: AUG-CC-PVTZ
    Blend: AUG-CC-PVTZ
  Basis Set: (AUG-CC-PVTZ AUX)
    Blend: AUG-CC-PVTZ-JKFIT
	 Reference Energy          =    -570.4735218904261274 [Eh]
	 Singles Energy            =      -0.0000000000000000 [Eh]
	 Same-Spin Energy          =      -0.6374036475517573 [Eh]
	 Opposite-Spin Energy      =      -1.9749064216712902 [Eh]
	 Correlation Energy        =      -2.6123100692230476 [Eh]
	 Total Energy              =    -573.0858319596492265 [Eh]

	 ================> DF-SCS-MP2 Energies <==================
	-----------------------------------------------------------
	 SCS Same-Spin Scale       =       0.3333333333333333 [-]
	 SCS Opposite-Spin Scale   =       1.2000000000000000 [-]
	 SCS Same-Spin Energy      =      -0.2124678825172524 [Eh]
	 SCS Opposite-Spin Energy  =      -2.3698877060055481 [Eh]
	 SCS Correlation Energy    =      -2.5823555885228004 [Eh]
	 SCS Total Energy          =    -573.0558774789489007 [Eh]
	-----------------------------------------------------------

  Dipole Moment: [D]
     X:    -1.1430      Y:    -0.8699      Z:    -0.3346     Total:     1.4749

*** Psi4 exiting successfully. Buy a developer a beer!
