                               Psi4 1.4a2.dev612

  ==> Input File <==

--------------------------------------------------------------------------
#psi4
#
memory 32 gb

molecule  {
0 1
  N        0.0678190     0.9536280     0.3022870
  N        2.3787710     0.9561460     0.2207080
  C       -1.1991060     0.3426720     0.1363540
  C        1.2435610     0.2442270     0.0818760
  C        0.1402100     2.4122570     0.3330790
  C       -1.5241252    -0.7052920     1.1282999
  C       -2.0897480     0.7954790    -0.8469150
  C        1.2497210    -1.1235430    -0.2722420
  C       -2.8402720    -1.2929990     0.8487880
  C       -3.3529590     0.2138150    -0.9676140
  C       -3.7300960    -0.8357430    -0.1274420
  C        2.4727450    -1.7522840    -0.4525030
  C        3.5488610     0.3171890     0.0404760
  C        3.6581100    -1.0291840    -0.2852360
  H        0.8914220     2.7227450     1.0594170
  H       -0.8398030     2.7868350     0.6320060
  H        0.4165240     2.8365740    -0.6404330
  H       -0.9028320    -1.0219250     1.7735780
  H       -1.7862700     1.5949720    -1.5186410
  H        0.3236690    -1.6661200    -0.4241870
  H       -3.1324200    -2.0992380     1.5176810
  H       -4.0389250     0.5738560    -1.7308950
  H       -4.7117870    -1.2913710    -0.2288330
  H        2.5003580    -2.8034100    -0.7313100
  H        4.4376410     0.9347650     0.1641390
  H        4.6312890    -1.4915970    -0.4182900
units angstrom
no_reorient  #important for SAPT in psi4, default
symmetry c1  #important for SAPT in psi4, default
}

set PROPERTIES_ORIGIN ["COM"]
properties('MP2/aug-cc-pvtz', properties = ['dipole'])
--------------------------------------------------------------------------

    Molecular point group: c1
  Charge       = 0
  Multiplicity = 1
  Basis Set: AUG-CC-PVTZ
    Blend: AUG-CC-PVTZ
  Basis Set: (AUG-CC-PVTZ AUX)
    Blend: AUG-CC-PVTZ-JKFIT

    Orbital Energies [Eh]
    ---------------------

    Doubly Occupied:

       1A    -15.576885     2A    -15.548686     3A    -11.316881
       4A    -11.290246     5A    -11.272526     6A    -11.255069
       7A    -11.253240     8A    -11.248556     9A    -11.247890
      10A    -11.242878    11A    -11.240328    12A    -11.239160
      13A    -11.227242    14A    -11.222621    15A     -1.293919
      16A     -1.218945    17A     -1.134229    18A     -1.079054
      19A     -1.026799    20A     -1.017343    21A     -1.001641
      22A     -0.925742    23A     -0.861952    24A     -0.849981
      25A     -0.834949    26A     -0.786258    27A     -0.728693
      28A     -0.702384    29A     -0.674266    30A     -0.661095
      31A     -0.642908    32A     -0.636552    33A     -0.614086
      34A     -0.602907    35A     -0.596728    36A     -0.579882
      37A     -0.566914    38A     -0.539409    39A     -0.535201
      40A     -0.530743    41A     -0.517268    42A     -0.500772
      43A     -0.489499    44A     -0.426271    45A     -0.413262
      46A     -0.377110    47A     -0.338664    48A     -0.337033
      49A     -0.287116

  @DF-RHF Final Energy:  -570.45123732079696

   => Energetics <=

    Nuclear Repulsion Energy =            817.7175026049513917
    One-Electron Energy =               -2395.3139091789767008
    Two-Electron Energy =                1007.1451692532284596
    Total Energy =                       -570.4512373207969631
  Basis Set: (AUG-CC-PVTZ AUX)
    Blend: AUG-CC-PVTZ-RI
    Molecular point group: c1

    Geometry (in Angstrom), charge = 0, multiplicity = 1:

       Center              X                  Y                   Z               Mass
    ------------   -----------------  -----------------  -----------------  -----------------
         N            0.051772473889     0.959785841611     0.290464353261    14.003074004430
         N            2.362724473889     0.962303841611     0.208885353261    14.003074004430
         C           -1.215152526111     0.348829841611     0.124531353261    12.000000000000
         C            1.227514473889     0.250384841611     0.070053353261    12.000000000000
         C            0.124163473889     2.418414841611     0.321256353261    12.000000000000
         C           -1.540171726111    -0.699134158389     1.116477253261    12.000000000000
         C           -2.105794526111     0.801636841611    -0.858737646739    12.000000000000
         C            1.233674473889    -1.117385158389    -0.284064646739    12.000000000000
         C           -2.856318526111    -1.286841158389     0.836965353261    12.000000000000
         C           -3.369005526111     0.219972841611    -0.979436646739    12.000000000000
         C           -3.746142526111    -0.829585158389    -0.139264646739    12.000000000000
         C            2.456698473889    -1.746126158389    -0.464325646739    12.000000000000
         C            3.532814473889     0.323346841611     0.028653353261    12.000000000000
         C            3.642063473889    -1.023026158389    -0.297058646739    12.000000000000
         H            0.875375473889     2.728902841611     1.047594353261     1.007825032230
         H           -0.855849526111     2.792992841611     0.620183353261     1.007825032230
         H            0.400477473889     2.842731841611    -0.652255646739     1.007825032230
         H           -0.918878526111    -1.015767158389     1.761755353261     1.007825032230
         H           -1.802316526111     1.601129841611    -1.530463646739     1.007825032230
         H            0.307622473889    -1.659962158389    -0.436009646739     1.007825032230
         H           -3.148466526111    -2.093080158389     1.505858353261     1.007825032230
         H           -4.054971526111     0.580013841611    -1.742717646739     1.007825032230
         H           -4.727833526111    -1.285213158389    -0.240655646739     1.007825032230
         H            2.484311473889    -2.797252158389    -0.743132646739     1.007825032230
         H            4.421594473889     0.940922841611     0.152316353261     1.007825032230
         H            4.615242473889    -1.485439158389    -0.430112646739     1.007825032230

  Basis Set: AUG-CC-PVTZ
    Blend: AUG-CC-PVTZ
  Basis Set: (AUG-CC-PVTZ AUX)
    Blend: AUG-CC-PVTZ-JKFIT
	 Reference Energy          =    -570.4512373207969631 [Eh]
	 Singles Energy            =      -0.0000000000000000 [Eh]
	 Same-Spin Energy          =      -0.6376194218015493 [Eh]
	 Opposite-Spin Energy      =      -1.9766021856334826 [Eh]
	 Correlation Energy        =      -2.6142216074350317 [Eh]
	 Total Energy              =    -573.0654589282320330 [Eh]

	 ================> DF-SCS-MP2 Energies <==================
	-----------------------------------------------------------
	 SCS Same-Spin Scale       =       0.3333333333333333 [-]
	 SCS Opposite-Spin Scale   =       1.2000000000000000 [-]
	 SCS Same-Spin Energy      =      -0.2125398072671831 [Eh]
	 SCS Opposite-Spin Energy  =      -2.3719226227601791 [Eh]
	 SCS Correlation Energy    =      -2.5844624300273620 [Eh]
	 SCS Total Energy          =    -573.0356997508242785 [Eh]
	-----------------------------------------------------------

  Dipole Moment: [D]
     X:    -1.2300      Y:    -0.8833      Z:    -0.4907     Total:     1.5919

*** Psi4 exiting successfully. Buy a developer a beer!
