                               Psi4 1.4a2.dev612

  ==> Input File <==

--------------------------------------------------------------------------
#psi4
#
memory 32 gb

molecule  {
0 1
  N        0.0678190     0.9536280     0.3022870
  N        2.3787710     0.9561460     0.2207080
  C       -1.1991060     0.3426720     0.1363540
  C        1.2435610     0.2442270     0.0818760
  C        0.1402100     2.4122570     0.3330790
  C       -1.5868590    -0.6993050     0.9921800
  C       -2.0897480     0.7954790    -0.8469150
  C        1.2393874    -1.0490919    -0.5626731
  C       -2.8402720    -1.2929990     0.8487880
  C       -3.3529590     0.2138150    -0.9676140
  C       -3.7300960    -0.8357430    -0.1274420
  C        2.4727450    -1.7522840    -0.4525030
  C        3.5488610     0.3171890     0.0404760
  C        3.6581100    -1.0291840    -0.2852360
  H        0.8914220     2.7227450     1.0594170
  H       -0.8398030     2.7868350     0.6320060
  H        0.4165240     2.8365740    -0.6404330
  H       -0.9028320    -1.0219250     1.7735780
  H       -1.7862700     1.5949720    -1.5186410
  H        0.3236690    -1.6661200    -0.4241870
  H       -3.1324200    -2.0992380     1.5176810
  H       -4.0389250     0.5738560    -1.7308950
  H       -4.7117870    -1.2913710    -0.2288330
  H        2.5003580    -2.8034100    -0.7313100
  H        4.4376410     0.9347650     0.1641390
  H        4.6312890    -1.4915970    -0.4182900
units angstrom
no_reorient  #important for SAPT in psi4, default
symmetry c1  #important for SAPT in psi4, default
}

set PROPERTIES_ORIGIN ["COM"]
properties('MP2/aug-cc-pvtz', properties = ['dipole'])
--------------------------------------------------------------------------

    Molecular point group: c1
  Charge       = 0
  Multiplicity = 1
  Basis Set: AUG-CC-PVTZ
    Blend: AUG-CC-PVTZ
  Basis Set: (AUG-CC-PVTZ AUX)
    Blend: AUG-CC-PVTZ-JKFIT

    Orbital Energies [Eh]
    ---------------------

    Doubly Occupied:

       1A    -15.580282     2A    -15.549487     3A    -11.322396
       4A    -11.280416     5A    -11.277556     6A    -11.262091
       7A    -11.250231     8A    -11.243640     9A    -11.243478
      10A    -11.238961    11A    -11.238051    12A    -11.237907
      13A    -11.233142    14A    -11.223548    15A     -1.294888
      16A     -1.220995    17A     -1.143918    18A     -1.074606
      19A     -1.026548    20A     -1.020337    21A     -1.003832
      22A     -0.926174    23A     -0.860021    24A     -0.840653
      25A     -0.833178    26A     -0.790174    27A     -0.729291
      28A     -0.691515    29A     -0.665131    30A     -0.655616
      31A     -0.648707    32A     -0.627283    33A     -0.609345
      34A     -0.600094    35A     -0.591466    36A     -0.586676
      37A     -0.565834    38A     -0.539653    39A     -0.530380
      40A     -0.524656    41A     -0.511803    42A     -0.502375
      43A     -0.500706    44A     -0.430683    45A     -0.409422
      46A     -0.375006    47A     -0.344229    48A     -0.337813
      49A     -0.291122

  @DF-RHF Final Energy:  -570.45953061343153

   => Energetics <=

    Nuclear Repulsion Energy =            818.5665157612064604
    One-Electron Energy =               -2397.0814618585409335
    Two-Electron Energy =                1008.0554154839028342
    Total Energy =                       -570.4595306134315251
  Basis Set: (AUG-CC-PVTZ AUX)
    Blend: AUG-CC-PVTZ-RI
    Molecular point group: c1

    Geometry (in Angstrom), charge = 0, multiplicity = 1:

       Center              X                  Y                   Z               Mass
    ------------   -----------------  -----------------  -----------------  -----------------
         N            0.056535149443     0.954542729464     0.318267778869    14.003074004430
         N            2.367487149443     0.957060729464     0.236688778869    14.003074004430
         C           -1.210389850557     0.343586729464     0.152334778869    12.000000000000
         C            1.232277149443     0.245141729464     0.097856778869    12.000000000000
         C            0.128926149443     2.413171729464     0.349059778869    12.000000000000
         C           -1.598142850557    -0.698390270536     1.008160778869    12.000000000000
         C           -2.101031850557     0.796393729464    -0.830934221131    12.000000000000
         C            1.228103549443    -1.048177170536    -0.546692321131    12.000000000000
         C           -2.851555850557    -1.292084270536     0.864768778869    12.000000000000
         C           -3.364242850557     0.214729729464    -0.951633221131    12.000000000000
         C           -3.741379850557    -0.834828270536    -0.111461221131    12.000000000000
         C            2.461461149443    -1.751369270536    -0.436522221131    12.000000000000
         C            3.537577149443     0.318103729464     0.056456778869    12.000000000000
         C            3.646826149443    -1.028269270536    -0.269255221131    12.000000000000
         H            0.880138149443     2.723659729464     1.075397778869     1.007825032230
         H           -0.851086850557     2.787749729464     0.647986778869     1.007825032230
         H            0.405240149443     2.837488729464    -0.624452221131     1.007825032230
         H           -0.914115850557    -1.021010270536     1.789558778869     1.007825032230
         H           -1.797553850557     1.595886729464    -1.502660221131     1.007825032230
         H            0.312385149443    -1.665205270536    -0.408206221131     1.007825032230
         H           -3.143703850557    -2.098323270536     1.533661778869     1.007825032230
         H           -4.050208850557     0.574770729464    -1.714914221131     1.007825032230
         H           -4.723070850557    -1.290456270536    -0.212852221131     1.007825032230
         H            2.489074149443    -2.802495270536    -0.715329221131     1.007825032230
         H            4.426357149443     0.935679729464     0.180119778869     1.007825032230
         H            4.620005149443    -1.490682270536    -0.402309221131     1.007825032230

  Basis Set: AUG-CC-PVTZ
    Blend: AUG-CC-PVTZ
  Basis Set: (AUG-CC-PVTZ AUX)
    Blend: AUG-CC-PVTZ-JKFIT
	 Reference Energy          =    -570.4595306134315251 [Eh]
	 Singles Energy            =      -0.0000000000000000 [Eh]
	 Same-Spin Energy          =      -0.6378126483342488 [Eh]
	 Opposite-Spin Energy      =      -1.9765337024841556 [Eh]
	 Correlation Energy        =      -2.6143463508184044 [Eh]
	 Total Energy              =    -573.0738769642499619 [Eh]

	 ================> DF-SCS-MP2 Energies <==================
	-----------------------------------------------------------
	 SCS Same-Spin Scale       =       0.3333333333333333 [-]
	 SCS Opposite-Spin Scale   =       1.2000000000000000 [-]
	 SCS Same-Spin Energy      =      -0.2126042161114162 [Eh]
	 SCS Opposite-Spin Energy  =      -2.3718404429809867 [Eh]
	 SCS Correlation Energy    =      -2.5844446590924028 [Eh]
	 SCS Total Energy          =    -573.0439752725238804 [Eh]
	-----------------------------------------------------------

  Dipole Moment: [D]
     X:    -1.0911      Y:    -0.8091      Z:    -0.2627     Total:     1.3836

*** Psi4 exiting successfully. Buy a developer a beer!
