                               Psi4 1.4a2.dev612

  ==> Input File <==

--------------------------------------------------------------------------
#psi4
#
memory 32 gb

molecule  {
0 1
  N        0.0678190     0.9536280     0.3022870
  N        2.3787710     0.9561460     0.2207080
  C       -1.1991060     0.3426720     0.1363540
  C        1.2435610     0.2442270     0.0818760
  C        0.1402100     2.4122570     0.3330790
  C       -1.5868590    -0.6993050     0.9921800
  C       -2.0897480     0.7954790    -0.8469150
  C        1.2462765    -1.0987260    -0.3690524
  C       -2.8402720    -1.2929990     0.8487880
  C       -3.3529590     0.2138150    -0.9676140
  C       -3.7300960    -0.8357430    -0.1274420
  C        2.4727450    -1.7522840    -0.4525030
  C        3.5488610     0.3171890     0.0404760
  C        3.6581100    -1.0291840    -0.2852360
  H        0.8914220     2.7227450     1.0594170
  H       -0.8398030     2.7868350     0.6320060
  H        0.4165240     2.8365740    -0.6404330
  H       -0.9028320    -1.0219250     1.7735780
  H       -1.7862700     1.5949720    -1.5186410
  H        0.3236690    -1.6661200    -0.4241870
  H       -3.1324200    -2.0992380     1.5176810
  H       -4.0389250     0.5738560    -1.7308950
  H       -4.7117870    -1.2913710    -0.2288330
  H        2.5003580    -2.8034100    -0.7313100
  H        4.4376410     0.9347650     0.1641390
  H        4.6312890    -1.4915970    -0.4182900
units angstrom
no_reorient  #important for SAPT in psi4, default
symmetry c1  #important for SAPT in psi4, default
}

set PROPERTIES_ORIGIN ["COM"]
properties('MP2/aug-cc-pvtz', properties = ['dipole'])
--------------------------------------------------------------------------

    Molecular point group: c1
  Charge       = 0
  Multiplicity = 1
  Basis Set: AUG-CC-PVTZ
    Blend: AUG-CC-PVTZ
  Basis Set: (AUG-CC-PVTZ AUX)
    Blend: AUG-CC-PVTZ-JKFIT

    Orbital Energies [Eh]
    ---------------------

    Doubly Occupied:

       1A    -15.578954     2A    -15.549151     3A    -11.317658
       4A    -11.280352     5A    -11.273094     6A    -11.255985
       7A    -11.249673     8A    -11.243804     9A    -11.243557
      10A    -11.239229    11A    -11.238254    12A    -11.237952
      13A    -11.228214    14A    -11.223037    15A     -1.294688
      16A     -1.220394    17A     -1.143979    18A     -1.078483
      19A     -1.028273    20A     -1.020594    21A     -1.004714
      22A     -0.926664    23A     -0.860434    24A     -0.842823
      25A     -0.833400    26A     -0.791784    27A     -0.730195
      28A     -0.693148    29A     -0.668775    30A     -0.658001
      31A     -0.648350    32A     -0.629028    33A     -0.613854
      34A     -0.602064    35A     -0.591333    36A     -0.585309
      37A     -0.567947    38A     -0.539280    39A     -0.533813
      40A     -0.528329    41A     -0.511507    42A     -0.504838
      43A     -0.501147    44A     -0.430054    45A     -0.412812
      46A     -0.376901    47A     -0.344298    48A     -0.338968
      49A     -0.288996

  @DF-RHF Final Energy:  -570.48167713350733

   => Energetics <=

    Nuclear Repulsion Energy =            819.6047122389633159
    One-Electron Energy =               -2399.1645953248098522
    Two-Electron Energy =                1009.0782059523393173
    Total Energy =                       -570.4816771335073327
  Basis Set: (AUG-CC-PVTZ AUX)
    Blend: AUG-CC-PVTZ-RI
    Molecular point group: c1

    Geometry (in Angstrom), charge = 0, multiplicity = 1:

       Center              X                  Y                   Z               Mass
    ------------   -----------------  -----------------  -----------------  -----------------
         N            0.056086104477     0.957777976848     0.305647204240    14.003074004430
         N            2.367038104477     0.960295976848     0.224068204240    14.003074004430
         C           -1.210838895523     0.346821976848     0.139714204240    12.000000000000
         C            1.231828104477     0.248376976848     0.085236204240    12.000000000000
         C            0.128477104477     2.416406976848     0.336439204240    12.000000000000
         C           -1.598591895523    -0.695155023152     0.995540204240    12.000000000000
         C           -2.101480895523     0.799628976848    -0.843554795760    12.000000000000
         C            1.234543604477    -1.094576023152    -0.365692195760    12.000000000000
         C           -2.852004895523    -1.288849023152     0.852148204240    12.000000000000
         C           -3.364691895523     0.217964976848    -0.964253795760    12.000000000000
         C           -3.741828895523    -0.831593023152    -0.124081795760    12.000000000000
         C            2.461012104477    -1.748134023152    -0.449142795760    12.000000000000
         C            3.537128104477     0.321338976848     0.043836204240    12.000000000000
         C            3.646377104477    -1.025034023152    -0.281875795760    12.000000000000
         H            0.879689104477     2.726894976848     1.062777204240     1.007825032230
         H           -0.851535895523     2.790984976848     0.635366204240     1.007825032230
         H            0.404791104477     2.840723976848    -0.637072795760     1.007825032230
         H           -0.914564895523    -1.017775023152     1.776938204240     1.007825032230
         H           -1.798002895523     1.599121976848    -1.515280795760     1.007825032230
         H            0.311936104477    -1.661970023152    -0.420826795760     1.007825032230
         H           -3.144152895523    -2.095088023152     1.521041204240     1.007825032230
         H           -4.050657895523     0.578005976848    -1.727534795760     1.007825032230
         H           -4.723519895523    -1.287221023152    -0.225472795760     1.007825032230
         H            2.488625104477    -2.799260023152    -0.727949795760     1.007825032230
         H            4.425908104477     0.938914976848     0.167499204240     1.007825032230
         H            4.619556104477    -1.487447023152    -0.414929795760     1.007825032230

  Basis Set: AUG-CC-PVTZ
    Blend: AUG-CC-PVTZ
  Basis Set: (AUG-CC-PVTZ AUX)
    Blend: AUG-CC-PVTZ-JKFIT
	 Reference Energy          =    -570.4816771335073327 [Eh]
	 Singles Energy            =      -0.0000000000000000 [Eh]
	 Same-Spin Energy          =      -0.6371642278792806 [Eh]
	 Opposite-Spin Energy      =      -1.9740559458257001 [Eh]
	 Correlation Energy        =      -2.6112201737049805 [Eh]
	 Total Energy              =    -573.0928973072122972 [Eh]

	 ================> DF-SCS-MP2 Energies <==================
	-----------------------------------------------------------
	 SCS Same-Spin Scale       =       0.3333333333333333 [-]
	 SCS Opposite-Spin Scale   =       1.2000000000000000 [-]
	 SCS Same-Spin Energy      =      -0.2123880759597602 [Eh]
	 SCS Opposite-Spin Energy  =      -2.3688671349908401 [Eh]
	 SCS Correlation Energy    =      -2.5812552109506002 [Eh]
	 SCS Total Energy          =    -573.0629323444579768 [Eh]
	-----------------------------------------------------------

  Dipole Moment: [D]
     X:    -1.1803      Y:    -0.9000      Z:    -0.3924     Total:     1.5353

*** Psi4 exiting successfully. Buy a developer a beer!
