                               Psi4 1.3.2 release

  ==> Input File <==

--------------------------------------------------------------------------
#psi4
#
memory 32 gb

molecule  {
0 1
  S        1.0053540    -0.0074810    -0.7736030
  S       -1.6960990    -1.1658100     0.0116150
  O        1.1339470    -1.3419000    -1.3567350
  O        1.3858060     1.2139170    -1.4782970
  N        1.8781370    -0.0233820     0.6524530
  C       -0.6861290     0.1873580    -0.3161810
  C        1.8702590     1.2384050     1.3961810
  C        1.6932100    -1.2084810     1.4940670
  C       -1.3340060     1.3908220    -0.1017950
  C       -2.6674560     1.1993540     0.3271550
  C       -2.9984720    -0.1352680     0.4414500
  H        2.0840190     2.0584320     0.7119160
  H        2.6656140     1.1849010     2.1428720
  H        0.9115380     1.4151000     1.9054530
  H        1.7293810    -2.1000160     0.8695980
  H        0.7471110    -1.1811200     2.0534300
  H        2.5234680    -1.2398400     2.2034110
  H       -0.8634200     2.3493520    -0.2940320
  H       -3.4402596     2.0015626     0.2983006
  H       -3.9505650    -0.5636820     0.7303990
units angstrom
no_reorient  #important for SAPT in psi4, default
symmetry c1  #important for SAPT in psi4, default
}

set PROPERTIES_ORIGIN ["COM"]
properties('MP2/aug-cc-pvtz', properties = ['dipole'])
--------------------------------------------------------------------------

    Molecular point group: c1
  Charge       = 0
  Multiplicity = 1
  Basis Set: AUG-CC-PVTZ
    Blend: AUG-CC-PVTZ
  Basis Set: (AUG-CC-PVTZ AUX)
    Blend: AUG-CC-PVTZ-JKFIT

    Orbital Energies [Eh]
    ---------------------

    Doubly Occupied:

       1A    -92.208401     2A    -92.016659     3A    -20.550030
       4A    -20.549501     5A    -15.606439     6A    -11.298843
       7A    -11.296507     8A    -11.277358     9A    -11.271928
      10A    -11.270610    11A    -11.266482    12A     -9.172563
      13A     -9.016160    14A     -6.857686    15A     -6.857406
      16A     -6.857043    17A     -6.696989    18A     -6.696464
      19A     -6.695705    20A     -1.455963    21A     -1.340136
      22A     -1.252778    23A     -1.201557    24A     -1.031258
      25A     -1.017005    26A     -0.981613    27A     -0.945989
      28A     -0.853271    29A     -0.784410    30A     -0.753661
      31A     -0.725834    32A     -0.703514    33A     -0.662070
      34A     -0.657908    35A     -0.625805    36A     -0.616113
      37A     -0.588613    38A     -0.579550    39A     -0.571896
      40A     -0.564063    41A     -0.547864    42A     -0.541795
      43A     -0.509794    44A     -0.500625    45A     -0.497538
      46A     -0.473272    47A     -0.467231    48A     -0.417674
      49A     -0.372354    50A     -0.354211

  @DF-RHF Final Energy: -1231.78526648934030

   => Energetics <=

    Nuclear Repulsion Energy =            892.3200808607598447
    One-Electron Energy =               -3468.0944123321391999
    Two-Electron Energy =                1343.9890649820390536
    Total Energy =                      -1231.7852664893403016
  Basis Set: (AUG-CC-PVTZ AUX)
    Blend: AUG-CC-PVTZ-RI
    Molecular point group: c1

    Geometry (in Angstrom), charge = 0, multiplicity = 1:

       Center              X                  Y                   Z               Mass
    ------------   -----------------  -----------------  -----------------  -----------------
         S            1.018584008382     0.012755695214    -0.716133532066    31.972071174400
         S           -1.682868991618    -1.145573304786     0.069084467934    31.972071174400
         O            1.147177008382    -1.321663304786    -1.299265532066    15.994914619570
         O            1.399036008382     1.234153695214    -1.420827532066    15.994914619570
         N            1.891367008382    -0.003145304786     0.709922467934    14.003074004430
         C           -0.672898991618     0.207594695214    -0.258711532066    12.000000000000
         C            1.883489008382     1.258641695214     1.453650467934    12.000000000000
         C            1.706440008382    -1.188244304786     1.551536467934    12.000000000000
         C           -1.320775991618     1.411058695214    -0.044325532066    12.000000000000
         C           -2.654225991618     1.219590695214     0.384624467934    12.000000000000
         C           -2.985241991618    -0.115031304786     0.498919467934    12.000000000000
         H            2.097249008382     2.078668695214     0.769385467934     1.007825032230
         H            2.678844008382     1.205137695214     2.200341467934     1.007825032230
         H            0.924768008382     1.435336695214     1.962922467934     1.007825032230
         H            1.742611008382    -2.079779304786     0.927067467934     1.007825032230
         H            0.760341008382    -1.160883304786     2.110899467934     1.007825032230
         H            2.536698008382    -1.219603304786     2.260880467934     1.007825032230
         H           -0.850189991618     2.369588695214    -0.236562532066     1.007825032230
         H           -3.427029591618     2.021799295214     0.355770067934     1.007825032230
         H           -3.937334991618    -0.543445304786     0.787868467934     1.007825032230

  Basis Set: AUG-CC-PVTZ
    Blend: AUG-CC-PVTZ
  Basis Set: (AUG-CC-PVTZ AUX)
    Blend: AUG-CC-PVTZ-JKFIT
	 Reference Energy          =   -1231.7852664893403016 [Eh]
	 Singles Energy            =      -0.0000000000000000 [Eh]
	 Same-Spin Energy          =      -0.5863294041204916 [Eh]
	 Opposite-Spin Energy      =      -1.7444729256340317 [Eh]
	 Correlation Energy        =      -2.3308023297545235 [Eh]
	 Total Energy              =   -1234.1160688190948349 [Eh]

	 ================> DF-SCS-MP2 Energies <==================
	-----------------------------------------------------------
	 SCS Same-Spin Scale       =       0.3333333333333333 [-]
	 SCS Opposite-Spin Scale   =       1.2000000000000000 [-]
	 SCS Same-Spin Energy      =      -0.1954431347068305 [Eh]
	 SCS Opposite-Spin Energy  =      -2.0933675107608378 [Eh]
	 SCS Correlation Energy    =      -2.2888106454676684 [Eh]
	 SCS Total Energy          =   -1234.0740771348080216 [Eh]
	-----------------------------------------------------------

  Dipole Moment: [D]
     X:    -2.5941      Y:     0.7098      Z:     4.5805     Total:     5.3117

*** Psi4 exiting successfully. Buy a developer a beer!
