                               Psi4 1.3.2 release

  ==> Input File <==

--------------------------------------------------------------------------
#psi4
#
memory 32 gb

molecule  {
0 1
  S        1.0053540    -0.0074810    -0.7736030
  S       -1.6960990    -1.1658100     0.0116150
  O        1.1339470    -1.3419000    -1.3567350
  O        1.3858060     1.2139170    -1.4782970
  N        1.8781370    -0.0233820     0.6524530
  C       -0.6861290     0.1873580    -0.3161810
  C        1.8702590     1.2384050     1.3961810
  C        1.6932100    -1.2084810     1.4940670
  C       -1.3340060     1.3908220    -0.1017950
  C       -2.6674560     1.1993540     0.3271550
  C       -2.9984720    -0.1352680     0.4414500
  H        2.0840190     2.0584320     0.7119160
  H        2.6656140     1.1849010     2.1428720
  H        0.9115380     1.4151000     1.9054530
  H        1.7293810    -2.1000160     0.8695980
  H        0.7471110    -1.1811200     2.0534300
  H        2.5234680    -1.2398400     2.2034110
  H       -0.9583013     2.3444866    -0.5785911
  H       -3.3646430     2.0039100     0.5365790
  H       -3.9505650    -0.5636820     0.7303990
units angstrom
no_reorient  #important for SAPT in psi4, default
symmetry c1  #important for SAPT in psi4, default
}

set PROPERTIES_ORIGIN ["COM"]
properties('MP2/aug-cc-pvtz', properties = ['dipole'])
--------------------------------------------------------------------------

    Molecular point group: c1
  Charge       = 0
  Multiplicity = 1
  Basis Set: AUG-CC-PVTZ
    Blend: AUG-CC-PVTZ
  Basis Set: (AUG-CC-PVTZ AUX)
    Blend: AUG-CC-PVTZ-JKFIT

    Orbital Energies [Eh]
    ---------------------

    Doubly Occupied:

       1A    -92.208411     2A    -92.016713     3A    -20.549753
       4A    -20.549308     5A    -15.606887     6A    -11.299831
       7A    -11.295376     8A    -11.279409     9A    -11.270996
      10A    -11.270655    11A    -11.264408    12A     -9.172563
      13A     -9.016212    14A     -6.857654    15A     -6.857437
      16A     -6.857040    17A     -6.697040    18A     -6.696512
      19A     -6.695758    20A     -1.455836    21A     -1.339965
      22A     -1.252774    23A     -1.201311    24A     -1.031465
      25A     -1.015683    26A     -0.981234    27A     -0.945860
      28A     -0.853037    29A     -0.785310    30A     -0.749725
      31A     -0.723023    32A     -0.703565    33A     -0.661944
      34A     -0.658556    35A     -0.627958    36A     -0.616072
      37A     -0.585033    38A     -0.578250    39A     -0.571819
      40A     -0.563487    41A     -0.545144    42A     -0.541401
      43A     -0.509364    44A     -0.500460    45A     -0.497678
      46A     -0.473076    47A     -0.468022    48A     -0.417068
      49A     -0.372000    50A     -0.354130

  @DF-RHF Final Energy: -1231.78222842622154

   => Energetics <=

    Nuclear Repulsion Energy =            892.1512427831212335
    One-Electron Energy =               -3467.7825229232307720
    Two-Electron Energy =                1343.8490517138880023
    Total Energy =                      -1231.7822284262215362
  Basis Set: (AUG-CC-PVTZ AUX)
    Blend: AUG-CC-PVTZ-RI
    Molecular point group: c1

    Geometry (in Angstrom), charge = 0, multiplicity = 1:

       Center              X                  Y                   Z               Mass
    ------------   -----------------  -----------------  -----------------  -----------------
         S            1.018685655961     0.012768981099    -0.715889338225    31.972071174400
         S           -1.682767344039    -1.145560018901     0.069328661775    31.972071174400
         O            1.147278655961    -1.321650018901    -1.299021338225    15.994914619570
         O            1.399137655961     1.234166981099    -1.420583338225    15.994914619570
         N            1.891468655961    -0.003132018901     0.710166661775    14.003074004430
         C           -0.672797344039     0.207607981099    -0.258467338225    12.000000000000
         C            1.883590655961     1.258654981099     1.453894661775    12.000000000000
         C            1.706541655961    -1.188231018901     1.551780661775    12.000000000000
         C           -1.320674344039     1.411071981099    -0.044081338225    12.000000000000
         C           -2.654124344039     1.219603981099     0.384868661775    12.000000000000
         C           -2.985140344039    -0.115018018901     0.499163661775    12.000000000000
         H            2.097350655961     2.078681981099     0.769629661775     1.007825032230
         H            2.678945655961     1.205150981099     2.200585661775     1.007825032230
         H            0.924869655961     1.435349981099     1.963166661775     1.007825032230
         H            1.742712655961    -2.079766018901     0.927311661775     1.007825032230
         H            0.760442655961    -1.160870018901     2.111143661775     1.007825032230
         H            2.536799655961    -1.219590018901     2.261124661775     1.007825032230
         H           -0.944969644039     2.364736581099    -0.520877438225     1.007825032230
         H           -3.351311344039     2.024159981099     0.594292661775     1.007825032230
         H           -3.937233344039    -0.543432018901     0.788112661775     1.007825032230

  Basis Set: AUG-CC-PVTZ
    Blend: AUG-CC-PVTZ
  Basis Set: (AUG-CC-PVTZ AUX)
    Blend: AUG-CC-PVTZ-JKFIT
	 Reference Energy          =   -1231.7822284262215362 [Eh]
	 Singles Energy            =      -0.0000000000000000 [Eh]
	 Same-Spin Energy          =      -0.5867043805510418 [Eh]
	 Opposite-Spin Energy      =      -1.7450998437778749 [Eh]
	 Correlation Energy        =      -2.3318042243289168 [Eh]
	 Total Energy              =   -1234.1140326505503708 [Eh]

	 ================> DF-SCS-MP2 Energies <==================
	-----------------------------------------------------------
	 SCS Same-Spin Scale       =       0.3333333333333333 [-]
	 SCS Opposite-Spin Scale   =       1.2000000000000000 [-]
	 SCS Same-Spin Energy      =      -0.1955681268503472 [Eh]
	 SCS Opposite-Spin Energy  =      -2.0941198125334499 [Eh]
	 SCS Correlation Energy    =      -2.2896879393837972 [Eh]
	 SCS Total Energy          =   -1234.0719163656053752 [Eh]
	-----------------------------------------------------------

  Dipole Moment: [D]
     X:    -2.6543      Y:     0.6965      Z:     4.5751     Total:     5.3349

*** Psi4 exiting successfully. Buy a developer a beer!
