                               Psi4 1.3.2 release

  ==> Input File <==

--------------------------------------------------------------------------
#psi4
#
memory 32 gb

molecule  {
0 1
  S        1.0053540    -0.0074810    -0.7736030
  S       -1.6960990    -1.1658100     0.0116150
  O        1.1339470    -1.3419000    -1.3567350
  O        1.3858060     1.2139170    -1.4782970
  N        1.8781370    -0.0233820     0.6524530
  C       -0.6861290     0.1873580    -0.3161810
  C        1.8702590     1.2384050     1.3961810
  C        1.6932100    -1.2084810     1.4940670
  C       -1.3340060     1.3908220    -0.1017950
  C       -2.6674560     1.1993540     0.3271550
  C       -2.9984720    -0.1352680     0.4414500
  H        2.0840190     2.0584320     0.7119160
  H        2.6656140     1.1849010     2.1428720
  H        0.9115380     1.4151000     1.9054530
  H        1.7293810    -2.1000160     0.8695980
  H        0.7471110    -1.1811200     2.0534300
  H        2.5234680    -1.2398400     2.2034110
  H       -0.8634200     2.3493520    -0.2940320
  H       -3.3646430     2.0039100     0.5365790
  H       -3.9354090    -0.5638143     0.7780465
units angstrom
no_reorient  #important for SAPT in psi4, default
symmetry c1  #important for SAPT in psi4, default
}

set PROPERTIES_ORIGIN ["COM"]
properties('MP2/aug-cc-pvtz', properties = ['dipole'])
--------------------------------------------------------------------------

    Molecular point group: c1
  Charge       = 0
  Multiplicity = 1
  Basis Set: AUG-CC-PVTZ
    Blend: AUG-CC-PVTZ
  Basis Set: (AUG-CC-PVTZ AUX)
    Blend: AUG-CC-PVTZ-JKFIT

    Orbital Energies [Eh]
    ---------------------

    Doubly Occupied:

       1A    -92.208300     2A    -92.016046     3A    -20.549779
       4A    -20.549290     5A    -15.606631     6A    -11.298620
       7A    -11.295616     8A    -11.277031     9A    -11.272129
      10A    -11.270774    11A    -11.264216    12A     -9.172456
      13A     -9.015557    14A     -6.857571    15A     -6.857307
      16A     -6.856934    17A     -6.696395    18A     -6.695867
      19A     -6.695106    20A     -1.455792    21A     -1.339935
      22A     -1.252891    23A     -1.201233    24A     -1.031426
      25A     -1.017169    26A     -0.981787    27A     -0.946178
      28A     -0.853391    29A     -0.786437    30A     -0.753552
      31A     -0.727506    32A     -0.703888    33A     -0.662082
      34A     -0.658738    35A     -0.627905    36A     -0.616259
      37A     -0.588360    38A     -0.579315    39A     -0.572203
      40A     -0.564015    41A     -0.549489    42A     -0.541955
      43A     -0.509569    44A     -0.500996    45A     -0.497503
      46A     -0.473071    47A     -0.468085    48A     -0.417463
      49A     -0.372340    50A     -0.353987

  @DF-RHF Final Energy: -1231.78919498348569

   => Energetics <=

    Nuclear Repulsion Energy =            892.4674678728586059
    One-Electron Energy =               -3468.3930416396869987
    Two-Electron Energy =                1344.1363787833424794
    Total Energy =                      -1231.7891949834856860
  Basis Set: (AUG-CC-PVTZ AUX)
    Blend: AUG-CC-PVTZ-RI
    Molecular point group: c1

    Geometry (in Angstrom), charge = 0, multiplicity = 1:

       Center              X                  Y                   Z               Mass
    ------------   -----------------  -----------------  -----------------  -----------------
         S            1.018105059061     0.012744007539    -0.717642181325    31.972071174400
         S           -1.683347940939    -1.145584992461     0.067575818675    31.972071174400
         O            1.146698059061    -1.321674992461    -1.300774181325    15.994914619570
         O            1.398557059061     1.234142007539    -1.422336181325    15.994914619570
         N            1.890888059061    -0.003156992461     0.708413818675    14.003074004430
         C           -0.673377940939     0.207583007539    -0.260220181325    12.000000000000
         C            1.883010059061     1.258630007539     1.452141818675    12.000000000000
         C            1.705961059061    -1.188255992461     1.550027818675    12.000000000000
         C           -1.321254940939     1.411047007539    -0.045834181325    12.000000000000
         C           -2.654704940939     1.219579007539     0.383115818675    12.000000000000
         C           -2.985720940939    -0.115042992461     0.497410818675    12.000000000000
         H            2.096770059061     2.078657007539     0.767876818675     1.007825032230
         H            2.678365059061     1.205126007539     2.198832818675     1.007825032230
         H            0.924289059061     1.435325007539     1.961413818675     1.007825032230
         H            1.742132059061    -2.079790992461     0.925558818675     1.007825032230
         H            0.759862059061    -1.160894992461     2.109390818675     1.007825032230
         H            2.536219059061    -1.219614992461     2.259371818675     1.007825032230
         H           -0.850668940939     2.369577007539    -0.238071181325     1.007825032230
         H           -3.351891940939     2.024135007539     0.592539818675     1.007825032230
         H           -3.922657940939    -0.543589292461     0.834007318675     1.007825032230

  Basis Set: AUG-CC-PVTZ
    Blend: AUG-CC-PVTZ
  Basis Set: (AUG-CC-PVTZ AUX)
    Blend: AUG-CC-PVTZ-JKFIT
	 Reference Energy          =   -1231.7891949834856860 [Eh]
	 Singles Energy            =      -0.0000000000000000 [Eh]
	 Same-Spin Energy          =      -0.5861523854876640 [Eh]
	 Opposite-Spin Energy      =      -1.7440431535953962 [Eh]
	 Correlation Energy        =      -2.3301955390830602 [Eh]
	 Total Energy              =   -1234.1193905225686649 [Eh]

	 ================> DF-SCS-MP2 Energies <==================
	-----------------------------------------------------------
	 SCS Same-Spin Scale       =       0.3333333333333333 [-]
	 SCS Opposite-Spin Scale   =       1.2000000000000000 [-]
	 SCS Same-Spin Energy      =      -0.1953841284958880 [Eh]
	 SCS Opposite-Spin Energy  =      -2.0928517843144752 [Eh]
	 SCS Correlation Energy    =      -2.2882359128103631 [Eh]
	 SCS Total Energy          =   -1234.0774308962959367 [Eh]
	-----------------------------------------------------------

  Dipole Moment: [D]
     X:    -2.5554      Y:     0.7493      Z:     4.8092     Total:     5.4973

*** Psi4 exiting successfully. Buy a developer a beer!
