                               Psi4 1.3.2 release

  ==> Input File <==

--------------------------------------------------------------------------
#psi4
#
memory 32 gb

molecule  {
0 1
  S        1.0053540    -0.0074810    -0.7736030
  S       -1.6960990    -1.1658100     0.0116150
  O        1.1339470    -1.3419000    -1.3567350
  O        1.3858060     1.2139170    -1.4782970
  N        1.8781370    -0.0233820     0.6524530
  C       -0.6861290     0.1873580    -0.3161810
  C        1.8702590     1.2384050     1.3961810
  C        1.6932100    -1.2084810     1.4940670
  C       -1.4173522     1.3898425    -0.3899832
  C       -2.6674560     1.1993540     0.3271550
  C       -2.9984720    -0.1352680     0.4414500
  H        2.0840190     2.0584320     0.7119160
  H        2.6656140     1.1849010     2.1428720
  H        0.9115380     1.4151000     1.9054530
  H        1.7293810    -2.1000160     0.8695980
  H        0.7471110    -1.1811200     2.0534300
  H        2.5234680    -1.2398400     2.2034110
  H       -0.8634200     2.3493520    -0.2940320
  H       -3.3646430     2.0039100     0.5365790
  H       -3.9505650    -0.5636820     0.7303990
units angstrom
no_reorient  #important for SAPT in psi4, default
symmetry c1  #important for SAPT in psi4, default
}

set PROPERTIES_ORIGIN ["COM"]
properties('MP2/aug-cc-pvtz', properties = ['dipole'])
--------------------------------------------------------------------------

    Molecular point group: c1
  Charge       = 0
  Multiplicity = 1
  Basis Set: AUG-CC-PVTZ
    Blend: AUG-CC-PVTZ
  Basis Set: (AUG-CC-PVTZ AUX)
    Blend: AUG-CC-PVTZ-JKFIT

    Orbital Energies [Eh]
    ---------------------

    Doubly Occupied:

       1A    -92.209135     2A    -92.016973     3A    -20.550199
       4A    -20.550042     5A    -15.607981     6A    -11.306415
       7A    -11.293997     8A    -11.284408     9A    -11.273312
      10A    -11.271789    11A    -11.268529    12A     -9.173376
      13A     -9.016571    14A     -6.858477    15A     -6.858237
      16A     -6.857823    17A     -6.697403    18A     -6.696853
      19A     -6.696122    20A     -1.456572    21A     -1.340535
      22A     -1.254058    23A     -1.196410    24A     -1.030018
      25A     -1.011812    26A     -0.982862    27A     -0.946915
      28A     -0.853857    29A     -0.781687    30A     -0.750931
      31A     -0.720306    32A     -0.704179    33A     -0.662922
      34A     -0.658679    35A     -0.625110    36A     -0.616897
      37A     -0.581886    38A     -0.577854    39A     -0.572788
      40A     -0.561275    41A     -0.545563    42A     -0.542919
      43A     -0.507656    44A     -0.499814    45A     -0.497042
      46A     -0.473567    47A     -0.469796    48A     -0.417257
      49A     -0.370362    50A     -0.352694

  @DF-RHF Final Energy: -1231.76358100971083

   => Energetics <=

    Nuclear Repulsion Energy =            890.6528467970733800
    One-Electron Energy =               -3464.7291279237097115
    Two-Electron Energy =                1342.3127001169254982
    Total Energy =                      -1231.7635810097108333
  Basis Set: (AUG-CC-PVTZ AUX)
    Blend: AUG-CC-PVTZ-RI
    Molecular point group: c1

    Geometry (in Angstrom), charge = 0, multiplicity = 1:

       Center              X                  Y                   Z               Mass
    ------------   -----------------  -----------------  -----------------  -----------------
         S            1.023421233300     0.012804846336    -0.699285419010    31.972071174400
         S           -1.678031766700    -1.145524153664     0.085932580990    31.972071174400
         O            1.152014233300    -1.321614153664    -1.282417419010    15.994914619570
         O            1.403873233300     1.234202846336    -1.403979419010    15.994914619570
         N            1.896204233300    -0.003096153664     0.726770580990    14.003074004430
         C           -0.668061766700     0.207643846336    -0.241863419010    12.000000000000
         C            1.888326233300     1.258690846336     1.470498580990    12.000000000000
         C            1.711277233300    -1.188195153664     1.568384580990    12.000000000000
         C           -1.399284966700     1.410128346336    -0.315665619010    12.000000000000
         C           -2.649388766700     1.219639846336     0.401472580990    12.000000000000
         C           -2.980404766700    -0.114982153664     0.515767580990    12.000000000000
         H            2.102086233300     2.078717846336     0.786233580990     1.007825032230
         H            2.683681233300     1.205186846336     2.217189580990     1.007825032230
         H            0.929605233300     1.435385846336     1.979770580990     1.007825032230
         H            1.747448233300    -2.079730153664     0.943915580990     1.007825032230
         H            0.765178233300    -1.160834153664     2.127747580990     1.007825032230
         H            2.541535233300    -1.219554153664     2.277728580990     1.007825032230
         H           -0.845352766700     2.369637846336    -0.219714419010     1.007825032230
         H           -3.346575766700     2.024195846336     0.610896580990     1.007825032230
         H           -3.932497766700    -0.543396153664     0.804716580990     1.007825032230

  Basis Set: AUG-CC-PVTZ
    Blend: AUG-CC-PVTZ
  Basis Set: (AUG-CC-PVTZ AUX)
    Blend: AUG-CC-PVTZ-JKFIT
	 Reference Energy          =   -1231.7635810097108333 [Eh]
	 Singles Energy            =      -0.0000000000000000 [Eh]
	 Same-Spin Energy          =      -0.5873053630325831 [Eh]
	 Opposite-Spin Energy      =      -1.7477514916522243 [Eh]
	 Correlation Energy        =      -2.3350568546848072 [Eh]
	 Total Energy              =   -1234.0986378643956414 [Eh]

	 ================> DF-SCS-MP2 Energies <==================
	-----------------------------------------------------------
	 SCS Same-Spin Scale       =       0.3333333333333333 [-]
	 SCS Opposite-Spin Scale   =       1.2000000000000000 [-]
	 SCS Same-Spin Energy      =      -0.1957684543441943 [Eh]
	 SCS Opposite-Spin Energy  =      -2.0973017899826689 [Eh]
	 SCS Correlation Energy    =      -2.2930702443268633 [Eh]
	 SCS Total Energy          =   -1234.0566512540376607 [Eh]
	-----------------------------------------------------------

  Dipole Moment: [D]
     X:    -2.5025      Y:     0.6201      Z:     4.9261     Total:     5.5600

*** Psi4 exiting successfully. Buy a developer a beer!
