                               Psi4 1.3.2 release

  ==> Input File <==

--------------------------------------------------------------------------
#psi4
#
memory 32 gb

molecule  {
0 1
  S        1.0053540    -0.0074810    -0.7736030
  S       -1.6960990    -1.1658100     0.0116150
  O        1.1339470    -1.3419000    -1.3567350
  O        1.3858060     1.2139170    -1.4782970
  N        1.8781370    -0.0233820     0.6524530
  C       -0.6861290     0.1873580    -0.3161810
  C        1.8702590     1.2384050     1.3961810
  C        1.6932100    -1.2084810     1.4940670
  C       -1.3340060     1.3908220    -0.1017950
  C       -2.6674560     1.1993540     0.3271550
  C       -2.9984720    -0.1352680     0.4414500
  H        2.0840190     2.0584320     0.7119160
  H        2.6656140     1.1849010     2.1428720
  H        0.9115380     1.4151000     1.9054530
  H        1.7293810    -2.1000160     0.8695980
  H        0.7471110    -1.1811200     2.0534300
  H        2.5234680    -1.2398400     2.2034110
  H       -0.8792335     2.3485411    -0.3414585
  H       -3.3646430     2.0039100     0.5365790
  H       -3.9505650    -0.5636820     0.7303990
units angstrom
no_reorient  #important for SAPT in psi4, default
symmetry c1  #important for SAPT in psi4, default
}

set PROPERTIES_ORIGIN ["COM"]
properties('MP2/aug-cc-pvtz', properties = ['dipole'])
--------------------------------------------------------------------------

    Molecular point group: c1
  Charge       = 0
  Multiplicity = 1
  Basis Set: AUG-CC-PVTZ
    Blend: AUG-CC-PVTZ
  Basis Set: (AUG-CC-PVTZ AUX)
    Blend: AUG-CC-PVTZ-JKFIT

    Orbital Energies [Eh]
    ---------------------

    Doubly Occupied:

       1A    -92.208304     2A    -92.016082     3A    -20.549768
       4A    -20.549349     5A    -15.606576     6A    -11.298710
       7A    -11.295521     8A    -11.277022     9A    -11.271892
      10A    -11.270693    11A    -11.264222    12A     -9.172459
      13A     -9.015594    14A     -6.857572    15A     -6.857312
      16A     -6.856938    17A     -6.696431    18A     -6.695902
      19A     -6.695143    20A     -1.455805    21A     -1.339958
      22A     -1.252810    23A     -1.201232    24A     -1.031433
      25A     -1.017082    26A     -0.981638    27A     -0.946111
      28A     -0.853356    29A     -0.786415    30A     -0.753199
      31A     -0.727364    32A     -0.703818    33A     -0.662043
      34A     -0.658728    35A     -0.627847    36A     -0.616198
      37A     -0.588011    38A     -0.579202    39A     -0.572157
      40A     -0.563893    41A     -0.549423    42A     -0.541814
      43A     -0.509564    44A     -0.500965    45A     -0.497550
      46A     -0.473095    47A     -0.467961    48A     -0.417411
      49A     -0.372341    50A     -0.354021

  @DF-RHF Final Energy: -1231.78903246878349

   => Energetics <=

    Nuclear Repulsion Energy =            892.4348844138744425
    One-Electron Energy =               -3468.3319662720377892
    Two-Electron Energy =                1344.1080493893798575
    Total Energy =                      -1231.7890324687834891
  Basis Set: (AUG-CC-PVTZ AUX)
    Blend: AUG-CC-PVTZ-RI
    Molecular point group: c1

    Geometry (in Angstrom), charge = 0, multiplicity = 1:

       Center              X                  Y                   Z               Mass
    ------------   -----------------  -----------------  -----------------  -----------------
         S            1.018268465430     0.012747588080    -0.717140536249    31.972071174400
         S           -1.683184534570    -1.145581411920     0.068077463751    31.972071174400
         O            1.146861465430    -1.321671411920    -1.300272536249    15.994914619570
         O            1.398720465430     1.234145588080    -1.421834536249    15.994914619570
         N            1.891051465430    -0.003153411920     0.708915463751    14.003074004430
         C           -0.673214534570     0.207586588080    -0.259718536249    12.000000000000
         C            1.883173465430     1.258633588080     1.452643463751    12.000000000000
         C            1.706124465430    -1.188252411920     1.550529463751    12.000000000000
         C           -1.321091534570     1.411050588080    -0.045332536249    12.000000000000
         C           -2.654541534570     1.219582588080     0.383617463751    12.000000000000
         C           -2.985557534570    -0.115039411920     0.497912463751    12.000000000000
         H            2.096933465430     2.078660588080     0.768378463751     1.007825032230
         H            2.678528465430     1.205129588080     2.199334463751     1.007825032230
         H            0.924452465430     1.435328588080     1.961915463751     1.007825032230
         H            1.742295465430    -2.079787411920     0.926060463751     1.007825032230
         H            0.760025465430    -1.160891411920     2.109892463751     1.007825032230
         H            2.536382465430    -1.219611411920     2.259873463751     1.007825032230
         H           -0.866319034570     2.368769688080    -0.284996036249     1.007825032230
         H           -3.351728534570     2.024138588080     0.593041463751     1.007825032230
         H           -3.937650534570    -0.543453411920     0.786861463751     1.007825032230

  Basis Set: AUG-CC-PVTZ
    Blend: AUG-CC-PVTZ
  Basis Set: (AUG-CC-PVTZ AUX)
    Blend: AUG-CC-PVTZ-JKFIT
	 Reference Energy          =   -1231.7890324687834891 [Eh]
	 Singles Energy            =      -0.0000000000000000 [Eh]
	 Same-Spin Energy          =      -0.5861818494805615 [Eh]
	 Opposite-Spin Energy      =      -1.7440772849882991 [Eh]
	 Correlation Energy        =      -2.3302591344688608 [Eh]
	 Total Energy              =   -1234.1192916032523499 [Eh]

	 ================> DF-SCS-MP2 Energies <==================
	-----------------------------------------------------------
	 SCS Same-Spin Scale       =       0.3333333333333333 [-]
	 SCS Opposite-Spin Scale   =       1.2000000000000000 [-]
	 SCS Same-Spin Energy      =      -0.1953939498268538 [Eh]
	 SCS Opposite-Spin Energy  =      -2.0928927419859589 [Eh]
	 SCS Correlation Energy    =      -2.2882866918128126 [Eh]
	 SCS Total Energy          =   -1234.0773191605962893 [Eh]
	-----------------------------------------------------------

  Dipole Moment: [D]
     X:    -2.5815      Y:     0.7474      Z:     4.7359     Total:     5.4453

*** Psi4 exiting successfully. Buy a developer a beer!
