                               Psi4 1.3.2 release

  ==> Input File <==

--------------------------------------------------------------------------
#psi4
#
memory 32 gb

molecule  {
0 1
  S        1.0053540    -0.0074810    -0.7736030
  S       -1.6960990    -1.1658100     0.0116150
  O        1.1339470    -1.3419000    -1.3567350
  O        1.3858060     1.2139170    -1.4782970
  N        1.8781370    -0.0233820     0.6524530
  C       -0.6861290     0.1873580    -0.3161810
  C        1.8702590     1.2384050     1.3961810
  C        1.6932100    -1.2084810     1.4940670
  C       -1.3340060     1.3908220    -0.1017950
  C       -2.6674560     1.1993540     0.3271550
  C       -2.9984720    -0.1352680     0.4414500
  H        2.0840190     2.0584320     0.7119160
  H        2.6656140     1.1849010     2.1428720
  H        0.9115380     1.4151000     1.9054530
  H        1.7293810    -2.1000160     0.8695980
  H        0.7471110    -1.1811200     2.0534300
  H        2.5234680    -1.2398400     2.2034110
  H       -0.8634200     2.3493520    -0.2940320
  H       -3.3646430     2.0039100     0.5365790
  H       -3.8899412    -0.5642111     0.9209888
units angstrom
no_reorient  #important for SAPT in psi4, default
symmetry c1  #important for SAPT in psi4, default
}

set PROPERTIES_ORIGIN ["COM"]
properties('MP2/aug-cc-pvtz', properties = ['dipole'])
--------------------------------------------------------------------------

    Molecular point group: c1
  Charge       = 0
  Multiplicity = 1
  Basis Set: AUG-CC-PVTZ
    Blend: AUG-CC-PVTZ
  Basis Set: (AUG-CC-PVTZ AUX)
    Blend: AUG-CC-PVTZ-JKFIT

    Orbital Energies [Eh]
    ---------------------

    Doubly Occupied:

       1A    -92.208412     2A    -92.016016     3A    -20.549838
       4A    -20.549230     5A    -15.607018     6A    -11.298905
       7A    -11.296705     8A    -11.277072     9A    -11.272359
      10A    -11.270996    11A    -11.264521    12A     -9.172568
      13A     -9.015535    14A     -6.857674    15A     -6.857428
      16A     -6.857044    17A     -6.696371    18A     -6.695837
      19A     -6.695080    20A     -1.455857    21A     -1.339967
      22A     -1.253150    23A     -1.201261    24A     -1.031171
      25A     -1.017096    26A     -0.982021    27A     -0.946184
      28A     -0.853127    29A     -0.784518    30A     -0.753647
      31A     -0.727158    32A     -0.703983    33A     -0.662178
      34A     -0.658401    35A     -0.627725    36A     -0.616335
      37A     -0.587895    38A     -0.579192    39A     -0.572397
      40A     -0.564220    41A     -0.547893    42A     -0.542147
      43A     -0.509626    44A     -0.501014    45A     -0.497485
      46A     -0.473086    47A     -0.468494    48A     -0.417412
      49A     -0.372380    50A     -0.353875

  @DF-RHF Final Energy: -1231.78716531809800

   => Energetics <=

    Nuclear Repulsion Energy =            892.4227575475676986
    One-Electron Energy =               -3468.3008336506113665
    Two-Electron Energy =                1344.0909107849458906
    Total Energy =                      -1231.7871653180980047
  Basis Set: (AUG-CC-PVTZ AUX)
    Blend: AUG-CC-PVTZ-RI
    Molecular point group: c1

    Geometry (in Angstrom), charge = 0, multiplicity = 1:

       Center              X                  Y                   Z               Mass
    ------------   -----------------  -----------------  -----------------  -----------------
         S            1.017865154377     0.012746101200    -0.718396396997    31.972071174400
         S           -1.683587845623    -1.145582898800     0.066821603003    31.972071174400
         O            1.146458154377    -1.321672898800    -1.301528396997    15.994914619570
         O            1.398317154377     1.234144101200    -1.423090396997    15.994914619570
         N            1.890648154377    -0.003154898800     0.707659603003    14.003074004430
         C           -0.673617845623     0.207585101200    -0.260974396997    12.000000000000
         C            1.882770154377     1.258632101200     1.451387603003    12.000000000000
         C            1.705721154377    -1.188253898800     1.549273603003    12.000000000000
         C           -1.321494845623     1.411049101200    -0.046588396997    12.000000000000
         C           -2.654944845623     1.219581101200     0.382361603003    12.000000000000
         C           -2.985960845623    -0.115040898800     0.496656603003    12.000000000000
         H            2.096530154377     2.078659101200     0.767122603003     1.007825032230
         H            2.678125154377     1.205128101200     2.198078603003     1.007825032230
         H            0.924049154377     1.435327101200     1.960659603003     1.007825032230
         H            1.741892154377    -2.079788898800     0.924804603003     1.007825032230
         H            0.759622154377    -1.160892898800     2.108636603003     1.007825032230
         H            2.535979154377    -1.219612898800     2.258617603003     1.007825032230
         H           -0.850908845623     2.369579101200    -0.238825396997     1.007825032230
         H           -3.352131845623     2.024137101200     0.591785603003     1.007825032230
         H           -3.877430045623    -0.543983998800     0.976195403003     1.007825032230

  Basis Set: AUG-CC-PVTZ
    Blend: AUG-CC-PVTZ
  Basis Set: (AUG-CC-PVTZ AUX)
    Blend: AUG-CC-PVTZ-JKFIT
	 Reference Energy          =   -1231.7871653180980047 [Eh]
	 Singles Energy            =      -0.0000000000000000 [Eh]
	 Same-Spin Energy          =      -0.5863081777795880 [Eh]
	 Opposite-Spin Energy      =      -1.7443727304694780 [Eh]
	 Correlation Energy        =      -2.3306809082490663 [Eh]
	 Total Energy              =   -1234.1178462263471829 [Eh]

	 ================> DF-SCS-MP2 Energies <==================
	-----------------------------------------------------------
	 SCS Same-Spin Scale       =       0.3333333333333333 [-]
	 SCS Opposite-Spin Scale   =       1.2000000000000000 [-]
	 SCS Same-Spin Energy      =      -0.1954360592598627 [Eh]
	 SCS Opposite-Spin Energy  =      -2.0932472765633734 [Eh]
	 SCS Correlation Energy    =      -2.2886833358232361 [Eh]
	 SCS Total Energy          =   -1234.0758486539211845 [Eh]
	-----------------------------------------------------------

  Dipole Moment: [D]
     X:    -2.4916      Y:     0.7587      Z:     4.9216     Total:     5.5682

*** Psi4 exiting successfully. Buy a developer a beer!
