                               Psi4 1.3.2 release

  ==> Input File <==

--------------------------------------------------------------------------
#psi4
#
memory 32 gb

molecule  {
0 1
  S        1.0053540    -0.0074810    -0.7736030
  S       -1.6960990    -1.1658100     0.0116150
  O        1.1339470    -1.3419000    -1.3567350
  O        1.3858060     1.2139170    -1.4782970
  N        1.8781370    -0.0233820     0.6524530
  C       -0.6861290     0.1873580    -0.3161810
  C        1.8702590     1.2384050     1.3961810
  C        1.6932100    -1.2084810     1.4940670
  C       -1.3340060     1.3908220    -0.1017950
  C       -2.6674560     1.1993540     0.3271550
  C       -2.9984720    -0.1352680     0.4414500
  H        2.0840190     2.0584320     0.7119160
  H        2.6656140     1.1849010     2.1428720
  H        0.9115380     1.4151000     1.9054530
  H        1.7293810    -2.1000160     0.8695980
  H        0.7471110    -1.1811200     2.0534300
  H        2.5234680    -1.2398400     2.2034110
  H       -0.8634200     2.3493520    -0.2940320
  H       -3.4553829     2.0010932     0.2506449
  H       -3.9505650    -0.5636820     0.7303990
units angstrom
no_reorient  #important for SAPT in psi4, default
symmetry c1  #important for SAPT in psi4, default
}

set PROPERTIES_ORIGIN ["COM"]
properties('MP2/aug-cc-pvtz', properties = ['dipole'])
--------------------------------------------------------------------------

    Molecular point group: c1
  Charge       = 0
  Multiplicity = 1
  Basis Set: AUG-CC-PVTZ
    Blend: AUG-CC-PVTZ
  Basis Set: (AUG-CC-PVTZ AUX)
    Blend: AUG-CC-PVTZ-JKFIT

    Orbital Energies [Eh]
    ---------------------

    Doubly Occupied:

       1A    -92.208456     2A    -92.016881     3A    -20.550113
       4A    -20.549565     5A    -15.606453     6A    -11.298931
       7A    -11.296881     8A    -11.277496     9A    -11.271924
      10A    -11.270624    11A    -11.267446    12A     -9.172620
      13A     -9.016381    14A     -6.857743    15A     -6.857461
      16A     -6.857099    17A     -6.697207    18A     -6.696683
      19A     -6.695924    20A     -1.456029    21A     -1.340206
      22A     -1.252801    23A     -1.201683    24A     -1.031202
      25A     -1.016929    26A     -0.981620    27A     -0.945958
      28A     -0.853253    29A     -0.783648    30A     -0.753729
      31A     -0.725155    32A     -0.703411    33A     -0.662103
      34A     -0.657509    35A     -0.625095    36A     -0.616066
      37A     -0.588740    38A     -0.579637    39A     -0.571859
      40A     -0.564090    41A     -0.546994    42A     -0.541799
      43A     -0.509835    44A     -0.500470    45A     -0.497538
      46A     -0.473336    47A     -0.467076    48A     -0.417739
      49A     -0.372329    50A     -0.354284

  @DF-RHF Final Energy: -1231.78329329897542

   => Energetics <=

    Nuclear Repulsion Energy =            892.2673300255963795
    One-Electron Energy =               -3467.9852267110850335
    Two-Electron Energy =                1343.9346033865131176
    Total Energy =                      -1231.7832932989754227
  Basis Set: (AUG-CC-PVTZ AUX)
    Blend: AUG-CC-PVTZ-RI
    Molecular point group: c1

    Geometry (in Angstrom), charge = 0, multiplicity = 1:

       Center              X                  Y                   Z               Mass
    ------------   -----------------  -----------------  -----------------  -----------------
         S            1.018663804425     0.012758171939    -0.715882083224    31.972071174400
         S           -1.682789195575    -1.145570828061     0.069335916776    31.972071174400
         O            1.147256804425    -1.321660828061    -1.299014083224    15.994914619570
         O            1.399115804425     1.234156171939    -1.420576083224    15.994914619570
         N            1.891446804425    -0.003142828061     0.710173916776    14.003074004430
         C           -0.672819195575     0.207597171939    -0.258460083224    12.000000000000
         C            1.883568804425     1.258644171939     1.453901916776    12.000000000000
         C            1.706519804425    -1.188241828061     1.551787916776    12.000000000000
         C           -1.320696195575     1.411061171939    -0.044074083224    12.000000000000
         C           -2.654146195575     1.219593171939     0.384875916776    12.000000000000
         C           -2.985162195575    -0.115028828061     0.499170916776    12.000000000000
         H            2.097328804425     2.078671171939     0.769636916776     1.007825032230
         H            2.678923804425     1.205140171939     2.200592916776     1.007825032230
         H            0.924847804425     1.435339171939     1.963173916776     1.007825032230
         H            1.742690804425    -2.079776828061     0.927318916776     1.007825032230
         H            0.760420804425    -1.160880828061     2.111150916776     1.007825032230
         H            2.536777804425    -1.219600828061     2.261131916776     1.007825032230
         H           -0.850110195575     2.369591171939    -0.236311083224     1.007825032230
         H           -3.442073095575     2.021332371939     0.308365816776     1.007825032230
         H           -3.937255195575    -0.543442828061     0.788119916776     1.007825032230

  Basis Set: AUG-CC-PVTZ
    Blend: AUG-CC-PVTZ
  Basis Set: (AUG-CC-PVTZ AUX)
    Blend: AUG-CC-PVTZ-JKFIT
	 Reference Energy          =   -1231.7832932989754227 [Eh]
	 Singles Energy            =      -0.0000000000000000 [Eh]
	 Same-Spin Energy          =      -0.5864073559554517 [Eh]
	 Opposite-Spin Energy      =      -1.7446839215851959 [Eh]
	 Correlation Energy        =      -2.3310912775406476 [Eh]
	 Total Energy              =   -1234.1143845765161586 [Eh]

	 ================> DF-SCS-MP2 Energies <==================
	-----------------------------------------------------------
	 SCS Same-Spin Scale       =       0.3333333333333333 [-]
	 SCS Opposite-Spin Scale   =       1.2000000000000000 [-]
	 SCS Same-Spin Energy      =      -0.1954691186518172 [Eh]
	 SCS Opposite-Spin Energy  =      -2.0936207059022349 [Eh]
	 SCS Correlation Energy    =      -2.2890898245540523 [Eh]
	 SCS Total Energy          =   -1234.0723831235295620 [Eh]
	-----------------------------------------------------------

  Dipole Moment: [D]
     X:    -2.5901      Y:     0.6936      Z:     4.5419     Total:     5.2743

*** Psi4 exiting successfully. Buy a developer a beer!
