                               Psi4 1.3.2 release

  ==> Input File <==

--------------------------------------------------------------------------
#psi4
#
memory 32 gb

molecule  {
0 1
  S        1.0053540    -0.0074810    -0.7736030
  S       -1.6960990    -1.1658100     0.0116150
  O        1.1339470    -1.3419000    -1.3567350
  O        1.3858060     1.2139170    -1.4782970
  N        1.8781370    -0.0233820     0.6524530
  C       -0.6861290     0.1873580    -0.3161810
  C        1.8702590     1.2384050     1.3961810
  C        1.6932100    -1.2084810     1.4940670
  C       -1.3340060     1.3908220    -0.1017950
  C       -2.6674560     1.1993540     0.3271550
  C       -2.9984720    -0.1352680     0.4414500
  H        2.0840190     2.0584320     0.7119160
  H        2.6656140     1.1849010     2.1428720
  H        0.9115380     1.4151000     1.9054530
  H        1.7293810    -2.1000160     0.8695980
  H        0.7471110    -1.1811200     2.0534300
  H        2.5234680    -1.2398400     2.2034110
  H       -0.8634200     2.3493520    -0.2940320
  H       -3.3646430     2.0039100     0.5365790
  H       -3.9202531    -0.5639465     0.8256939
units angstrom
no_reorient  #important for SAPT in psi4, default
symmetry c1  #important for SAPT in psi4, default
}

set PROPERTIES_ORIGIN ["COM"]
properties('MP2/aug-cc-pvtz', properties = ['dipole'])
--------------------------------------------------------------------------

    Molecular point group: c1
  Charge       = 0
  Multiplicity = 1
  Basis Set: AUG-CC-PVTZ
    Blend: AUG-CC-PVTZ
  Basis Set: (AUG-CC-PVTZ AUX)
    Blend: AUG-CC-PVTZ-JKFIT

    Orbital Energies [Eh]
    ---------------------

    Doubly Occupied:

       1A    -92.208318     2A    -92.016040     3A    -20.549779
       4A    -20.549250     5A    -15.606739     6A    -11.298661
       7A    -11.295832     8A    -11.277033     9A    -11.272190
      10A    -11.270835    11A    -11.264261    12A     -9.172473
      13A     -9.015552    14A     -6.857585    15A     -6.857327
      16A     -6.856951    17A     -6.696389    18A     -6.695861
      19A     -6.695101    20A     -1.455794    21A     -1.339927
      22A     -1.252959    23A     -1.201232    24A     -1.031370
      25A     -1.017152    26A     -0.981850    27A     -0.946187
      28A     -0.853342    29A     -0.786072    30A     -0.753572
      31A     -0.727437    32A     -0.703913    33A     -0.662103
      34A     -0.658658    35A     -0.627913    36A     -0.616284
      37A     -0.588306    38A     -0.579279    39A     -0.572254
      40A     -0.564045    41A     -0.549154    42A     -0.542009
      43A     -0.509589    44A     -0.500990    45A     -0.497489
      46A     -0.473060    47A     -0.468210    48A     -0.417432
      49A     -0.372345    50A     -0.353955

  @DF-RHF Final Energy: -1231.78882292787762

   => Energetics <=

    Nuclear Repulsion Energy =            892.4615146233703626
    One-Electron Energy =               -3468.3805618585029151
    Two-Electron Energy =                1344.1302243072548208
    Total Energy =                      -1231.7888229278776180
  Basis Set: (AUG-CC-PVTZ AUX)
    Blend: AUG-CC-PVTZ-RI
    Molecular point group: c1

    Geometry (in Angstrom), charge = 0, multiplicity = 1:

       Center              X                  Y                   Z               Mass
    ------------   -----------------  -----------------  -----------------  -----------------
         S            1.018025091009     0.012744705074    -0.717893586373    31.972071174400
         S           -1.683427908991    -1.145584294926     0.067324413627    31.972071174400
         O            1.146618091009    -1.321674294926    -1.301025586373    15.994914619570
         O            1.398477091009     1.234142705074    -1.422587586373    15.994914619570
         N            1.890808091009    -0.003156294926     0.708162413627    14.003074004430
         C           -0.673457908991     0.207583705074    -0.260471586373    12.000000000000
         C            1.882930091009     1.258630705074     1.451890413627    12.000000000000
         C            1.705881091009    -1.188255294926     1.549776413627    12.000000000000
         C           -1.321334908991     1.411047705074    -0.046085586373    12.000000000000
         C           -2.654784908991     1.219579705074     0.382864413627    12.000000000000
         C           -2.985800908991    -0.115042294926     0.497159413627    12.000000000000
         H            2.096690091009     2.078657705074     0.767625413627     1.007825032230
         H            2.678285091009     1.205126705074     2.198581413627     1.007825032230
         H            0.924209091009     1.435325705074     1.961162413627     1.007825032230
         H            1.742052091009    -2.079790294926     0.925307413627     1.007825032230
         H            0.759782091009    -1.160894294926     2.109139413627     1.007825032230
         H            2.536139091009    -1.219614294926     2.259120413627     1.007825032230
         H           -0.850748908991     2.369577705074    -0.238322586373     1.007825032230
         H           -3.351971908991     2.024135705074     0.592288413627     1.007825032230
         H           -3.907582008991    -0.543720794926     0.881403313627     1.007825032230

  Basis Set: AUG-CC-PVTZ
    Blend: AUG-CC-PVTZ
  Basis Set: (AUG-CC-PVTZ AUX)
    Blend: AUG-CC-PVTZ-JKFIT
	 Reference Energy          =   -1231.7888229278776180 [Eh]
	 Singles Energy            =      -0.0000000000000000 [Eh]
	 Same-Spin Energy          =      -0.5861809320546565 [Eh]
	 Opposite-Spin Energy      =      -1.7441013675736792 [Eh]
	 Correlation Energy        =      -2.3302822996283359 [Eh]
	 Total Energy              =   -1234.1191052275059974 [Eh]

	 ================> DF-SCS-MP2 Energies <==================
	-----------------------------------------------------------
	 SCS Same-Spin Scale       =       0.3333333333333333 [-]
	 SCS Opposite-Spin Scale   =       1.2000000000000000 [-]
	 SCS Same-Spin Energy      =      -0.1953936440182188 [Eh]
	 SCS Opposite-Spin Energy  =      -2.0929216410884148 [Eh]
	 SCS Correlation Energy    =      -2.2883152851066337 [Eh]
	 SCS Total Energy          =   -1234.0771382129842095 [Eh]
	-----------------------------------------------------------

  Dipole Moment: [D]
     X:    -2.5377      Y:     0.7508      Z:     4.8479     Total:     5.5232

*** Psi4 exiting successfully. Buy a developer a beer!
