                               Psi4 1.3.2 release

  ==> Input File <==

--------------------------------------------------------------------------
#psi4
#
memory 32 gb

molecule  {
0 1
  S        1.0053540    -0.0074810    -0.7736030
  S       -1.6960990    -1.1658100     0.0116150
  O        1.1339470    -1.3419000    -1.3567350
  O        1.3858060     1.2139170    -1.4782970
  N        1.8781370    -0.0233820     0.6524530
  C       -0.6861290     0.1873580    -0.3161810
  C        1.8702590     1.2384050     1.3961810
  C        1.6932100    -1.2084810     1.4940670
  C       -1.3895702     1.3901690    -0.2939205
  C       -2.6674560     1.1993540     0.3271550
  C       -2.9984720    -0.1352680     0.4414500
  H        2.0840190     2.0584320     0.7119160
  H        2.6656140     1.1849010     2.1428720
  H        0.9115380     1.4151000     1.9054530
  H        1.7293810    -2.1000160     0.8695980
  H        0.7471110    -1.1811200     2.0534300
  H        2.5234680    -1.2398400     2.2034110
  H       -0.8634200     2.3493520    -0.2940320
  H       -3.3646430     2.0039100     0.5365790
  H       -3.9505650    -0.5636820     0.7303990
units angstrom
no_reorient  #important for SAPT in psi4, default
symmetry c1  #important for SAPT in psi4, default
}

set PROPERTIES_ORIGIN ["COM"]
properties('MP2/aug-cc-pvtz', properties = ['dipole'])
--------------------------------------------------------------------------

    Molecular point group: c1
  Charge       = 0
  Multiplicity = 1
  Basis Set: AUG-CC-PVTZ
    Blend: AUG-CC-PVTZ
  Basis Set: (AUG-CC-PVTZ AUX)
    Blend: AUG-CC-PVTZ-JKFIT

    Orbital Energies [Eh]
    ---------------------

    Doubly Occupied:

       1A    -92.208624     2A    -92.016089     3A    -20.549833
       4A    -20.549639     5A    -15.607147     6A    -11.301733
       7A    -11.294863     8A    -11.280525     9A    -11.272777
      10A    -11.271207    11A    -11.266227    12A     -9.172820
      13A     -9.015664    14A     -6.857925    15A     -6.857678
      16A     -6.857286    17A     -6.696503    18A     -6.695963
      19A     -6.695210    20A     -1.456097    21A     -1.340161
      22A     -1.253379    23A     -1.198851    24A     -1.030682
      25A     -1.014634    26A     -0.982296    27A     -0.946619
      28A     -0.853623    29A     -0.784320    30A     -0.752316
      31A     -0.724597    32A     -0.703942    33A     -0.662438
      34A     -0.658760    35A     -0.626250    36A     -0.616539
      37A     -0.584447    38A     -0.579883    39A     -0.572626
      40A     -0.563163    41A     -0.547803    42A     -0.542413
      43A     -0.508578    44A     -0.500576    45A     -0.497260
      46A     -0.473257    47A     -0.468994    48A     -0.417159
      49A     -0.370977    50A     -0.353647

  @DF-RHF Final Energy: -1231.77857893488681

   => Energetics <=

    Nuclear Repulsion Energy =            891.4899003031027860
    One-Electron Energy =               -3466.4289544799767100
    Two-Electron Energy =                1343.1604752419871147
    Total Energy =                      -1231.7785789348868093
  Basis Set: (AUG-CC-PVTZ AUX)
    Blend: AUG-CC-PVTZ-RI
    Molecular point group: c1

    Geometry (in Angstrom), charge = 0, multiplicity = 1:

       Center              X                  Y                   Z               Mass
    ------------   -----------------  -----------------  -----------------  -----------------
         S            1.021675835602     0.012784334049    -0.705320535829    31.972071174400
         S           -1.679777164398    -1.145544665951     0.079897464171    31.972071174400
         O            1.150268835602    -1.321634665951    -1.288452535829    15.994914619570
         O            1.402127835602     1.234182334049    -1.410014535829    15.994914619570
         N            1.894458835602    -0.003116665951     0.720735464171    14.003074004430
         C           -0.669807164398     0.207623334049    -0.247898535829    12.000000000000
         C            1.886580835602     1.258670334049     1.464463464171    12.000000000000
         C            1.709531835602    -1.188215665951     1.562349464171    12.000000000000
         C           -1.373248364398     1.410434334049    -0.225638035829    12.000000000000
         C           -2.651134164398     1.219619334049     0.395437464171    12.000000000000
         C           -2.982150164398    -0.115002665951     0.509732464171    12.000000000000
         H            2.100340835602     2.078697334049     0.780198464171     1.007825032230
         H            2.681935835602     1.205166334049     2.211154464171     1.007825032230
         H            0.927859835602     1.435365334049     1.973735464171     1.007825032230
         H            1.745702835602    -2.079750665951     0.937880464171     1.007825032230
         H            0.763432835602    -1.160854665951     2.121712464171     1.007825032230
         H            2.539789835602    -1.219574665951     2.271693464171     1.007825032230
         H           -0.847098164398     2.369617334049    -0.225749535829     1.007825032230
         H           -3.348321164398     2.024175334049     0.604861464171     1.007825032230
         H           -3.934243164398    -0.543416665951     0.798681464171     1.007825032230

  Basis Set: AUG-CC-PVTZ
    Blend: AUG-CC-PVTZ
  Basis Set: (AUG-CC-PVTZ AUX)
    Blend: AUG-CC-PVTZ-JKFIT
	 Reference Energy          =   -1231.7785789348868093 [Eh]
	 Singles Energy            =      -0.0000000000000000 [Eh]
	 Same-Spin Energy          =      -0.5864527079273101 [Eh]
	 Opposite-Spin Energy      =      -1.7453481064015102 [Eh]
	 Correlation Energy        =      -2.3318008143288202 [Eh]
	 Total Energy              =   -1234.1103797492155536 [Eh]

	 ================> DF-SCS-MP2 Energies <==================
	-----------------------------------------------------------
	 SCS Same-Spin Scale       =       0.3333333333333333 [-]
	 SCS Opposite-Spin Scale   =       1.2000000000000000 [-]
	 SCS Same-Spin Energy      =      -0.1954842359757700 [Eh]
	 SCS Opposite-Spin Energy  =      -2.0944177276818121 [Eh]
	 SCS Correlation Energy    =      -2.2899019636575821 [Eh]
	 SCS Total Energy          =   -1234.0684808985442942 [Eh]
	-----------------------------------------------------------

  Dipole Moment: [D]
     X:    -2.5246      Y:     0.7017      Z:     4.8660     Total:     5.5267

*** Psi4 exiting successfully. Buy a developer a beer!
