                               Psi4 1.3.2 release

  ==> Input File <==

--------------------------------------------------------------------------
#psi4
#
memory 32 gb

molecule  {
0 1
  S        1.0053540    -0.0074810    -0.7736030
  S       -1.6960990    -1.1658100     0.0116150
  O        1.1339470    -1.3419000    -1.3567350
  O        1.3858060     1.2139170    -1.4782970
  N        1.8781370    -0.0233820     0.6524530
  C       -0.6861290     0.1873580    -0.3161810
  C        1.8702590     1.2384050     1.3961810
  C        1.6932100    -1.2084810     1.4940670
  C       -1.3340060     1.3908220    -0.1017950
  C       -2.6674560     1.1993540     0.3271550
  C       -2.9984720    -0.1352680     0.4414500
  H        2.0840190     2.0584320     0.7119160
  H        2.6656140     1.1849010     2.1428720
  H        0.9115380     1.4151000     1.9054530
  H        1.7293810    -2.1000160     0.8695980
  H        0.7471110    -1.1811200     2.0534300
  H        2.5234680    -1.2398400     2.2034110
  H       -0.8634200     2.3493520    -0.2940320
  H       -3.3646430     2.0039100     0.5365790
  H       -3.9050971    -0.5640788     0.8733414
units angstrom
no_reorient  #important for SAPT in psi4, default
symmetry c1  #important for SAPT in psi4, default
}

set PROPERTIES_ORIGIN ["COM"]
properties('MP2/aug-cc-pvtz', properties = ['dipole'])
--------------------------------------------------------------------------

    Molecular point group: c1
  Charge       = 0
  Multiplicity = 1
  Basis Set: AUG-CC-PVTZ
    Blend: AUG-CC-PVTZ
  Basis Set: (AUG-CC-PVTZ AUX)
    Blend: AUG-CC-PVTZ-JKFIT

    Orbital Energies [Eh]
    ---------------------

    Doubly Occupied:

       1A    -92.208355     2A    -92.016029     3A    -20.549799
       4A    -20.549230     5A    -15.606869     6A    -11.298756
       7A    -11.296196     8A    -11.277046     9A    -11.272267
      10A    -11.270909    11A    -11.264363    12A     -9.172510
      13A     -9.015544    14A     -6.857620    15A     -6.857367
      16A     -6.856987    17A     -6.696381    18A     -6.695851
      19A     -6.695091    20A     -1.455815    21A     -1.339938
      22A     -1.253045    23A     -1.201242    24A     -1.031283
      25A     -1.017128    26A     -0.981928    27A     -0.946189
      28A     -0.853251    29A     -0.785426    30A     -0.753604
      31A     -0.727321    32A     -0.703945    33A     -0.662134
      34A     -0.658544    35A     -0.627852    36A     -0.616310
      37A     -0.588150    38A     -0.579239    39A     -0.572319
      40A     -0.564116    41A     -0.548620    42A     -0.542074
      43A     -0.509608    44A     -0.500996    45A     -0.497483
      46A     -0.473065    47A     -0.468346    48A     -0.417415
      49A     -0.372358    50A     -0.353917

  @DF-RHF Final Energy: -1231.78815717530983

   => Energetics <=

    Nuclear Repulsion Energy =            892.4465184372553495
    One-Electron Energy =               -3468.3496863320128796
    Two-Electron Energy =                1344.1150107194478096
    Total Energy =                      -1231.7881571753098342
  Basis Set: (AUG-CC-PVTZ AUX)
    Blend: AUG-CC-PVTZ-RI
    Molecular point group: c1

    Geometry (in Angstrom), charge = 0, multiplicity = 1:

       Center              X                  Y                   Z               Mass
    ------------   -----------------  -----------------  -----------------  -----------------
         S            1.017945122429     0.012745403137    -0.718144991949    31.972071174400
         S           -1.683507877571    -1.145583596863     0.067073008051    31.972071174400
         O            1.146538122429    -1.321673596863    -1.301276991949    15.994914619570
         O            1.398397122429     1.234143403137    -1.422838991949    15.994914619570
         N            1.890728122429    -0.003155596863     0.707911008051    14.003074004430
         C           -0.673537877571     0.207584403137    -0.260722991949    12.000000000000
         C            1.882850122429     1.258631403137     1.451639008051    12.000000000000
         C            1.705801122429    -1.188254596863     1.549525008051    12.000000000000
         C           -1.321414877571     1.411048403137    -0.046336991949    12.000000000000
         C           -2.654864877571     1.219580403137     0.382613008051    12.000000000000
         C           -2.985880877571    -0.115041596863     0.496908008051    12.000000000000
         H            2.096610122429     2.078658403137     0.767374008051     1.007825032230
         H            2.678205122429     1.205127403137     2.198330008051     1.007825032230
         H            0.924129122429     1.435326403137     1.960911008051     1.007825032230
         H            1.741972122429    -2.079789596863     0.925056008051     1.007825032230
         H            0.759702122429    -1.160893596863     2.108888008051     1.007825032230
         H            2.536059122429    -1.219613596863     2.258869008051     1.007825032230
         H           -0.850828877571     2.369578403137    -0.238573991949     1.007825032230
         H           -3.352051877571     2.024136403137     0.592037008051     1.007825032230
         H           -3.892505977571    -0.543852396863     0.928799408051     1.007825032230

  Basis Set: AUG-CC-PVTZ
    Blend: AUG-CC-PVTZ
  Basis Set: (AUG-CC-PVTZ AUX)
    Blend: AUG-CC-PVTZ-JKFIT
	 Reference Energy          =   -1231.7881571753098342 [Eh]
	 Singles Energy            =      -0.0000000000000000 [Eh]
	 Same-Spin Energy          =      -0.5862329725696923 [Eh]
	 Opposite-Spin Energy      =      -1.7442106515645366 [Eh]
	 Correlation Energy        =      -2.3304436241342290 [Eh]
	 Total Energy              =   -1234.1186007994440388 [Eh]

	 ================> DF-SCS-MP2 Energies <==================
	-----------------------------------------------------------
	 SCS Same-Spin Scale       =       0.3333333333333333 [-]
	 SCS Opposite-Spin Scale   =       1.2000000000000000 [-]
	 SCS Same-Spin Energy      =      -0.1954109908565641 [Eh]
	 SCS Opposite-Spin Energy  =      -2.0930527818774438 [Eh]
	 SCS Correlation Energy    =      -2.2884637727340080 [Eh]
	 SCS Total Energy          =   -1234.0766209480439102 [Eh]
	-----------------------------------------------------------

  Dipole Moment: [D]
     X:    -2.5164      Y:     0.7539      Z:     4.8854     Total:     5.5468

*** Psi4 exiting successfully. Buy a developer a beer!
