                               Psi4 1.3.2 release

  ==> Input File <==

--------------------------------------------------------------------------
#psi4
#
memory 32 gb

molecule  {
0 1
  S        1.0053540    -0.0074810    -0.7736030
  S       -1.6960990    -1.1658100     0.0116150
  O        1.1339470    -1.3419000    -1.3567350
  O        1.3858060     1.2139170    -1.4782970
  N        1.8781370    -0.0233820     0.6524530
  C       -0.6861290     0.1873580    -0.3161810
  C        1.8702590     1.2384050     1.3961810
  C        1.6932100    -1.2084810     1.4940670
  C       -1.3340060     1.3908220    -0.1017950
  C       -2.6674560     1.1993540     0.3271550
  C       -2.9984720    -0.1352680     0.4414500
  H        2.0840190     2.0584320     0.7119160
  H        2.6656140     1.1849010     2.1428720
  H        0.9115380     1.4151000     1.9054530
  H        1.7293810    -2.1000160     0.8695980
  H        0.7471110    -1.1811200     2.0534300
  H        2.5234680    -1.2398400     2.2034110
  H       -0.9108606     2.3469193    -0.4363115
  H       -3.3646430     2.0039100     0.5365790
  H       -3.9505650    -0.5636820     0.7303990
units angstrom
no_reorient  #important for SAPT in psi4, default
symmetry c1  #important for SAPT in psi4, default
}

set PROPERTIES_ORIGIN ["COM"]
properties('MP2/aug-cc-pvtz', properties = ['dipole'])
--------------------------------------------------------------------------

    Molecular point group: c1
  Charge       = 0
  Multiplicity = 1
  Basis Set: AUG-CC-PVTZ
    Blend: AUG-CC-PVTZ
  Basis Set: (AUG-CC-PVTZ AUX)
    Blend: AUG-CC-PVTZ-JKFIT

    Orbital Energies [Eh]
    ---------------------

    Doubly Occupied:

       1A    -92.208329     2A    -92.016245     3A    -20.549735
       4A    -20.549341     5A    -15.606672     6A    -11.299015
       7A    -11.295461     8A    -11.277496     9A    -11.271520
      10A    -11.270654    11A    -11.264251    12A     -9.172482
      13A     -9.015755    14A     -6.857586    15A     -6.857343
      16A     -6.856961    17A     -6.696589    18A     -6.696061
      19A     -6.695303    20A     -1.455807    21A     -1.339957
      22A     -1.252772    23A     -1.201236    24A     -1.031419
      25A     -1.016690    26A     -0.981457    27A     -0.946012
      28A     -0.853246    29A     -0.786063    30A     -0.752060
      31A     -0.726359    32A     -0.703722    33A     -0.661996
      34A     -0.658639    35A     -0.627889    36A     -0.616137
      37A     -0.587060    38A     -0.578873    39A     -0.572088
      40A     -0.563694    41A     -0.548374    42A     -0.541633
      43A     -0.509546    44A     -0.500830    45A     -0.497601
      46A     -0.473088    47A     -0.467965    48A     -0.417246
      49A     -0.372267    50A     -0.354048

  @DF-RHF Final Energy: -1231.78751388731462

   => Energetics <=

    Nuclear Repulsion Energy =            892.3478160238433929
    One-Electron Energy =               -3468.1655142708518724
    Two-Electron Energy =                1344.0301843596939761
    Total Energy =                      -1231.7875138873146170
  Basis Set: (AUG-CC-PVTZ AUX)
    Blend: AUG-CC-PVTZ-RI
    Molecular point group: c1

    Geometry (in Angstrom), charge = 0, multiplicity = 1:

       Center              X                  Y                   Z               Mass
    ------------   -----------------  -----------------  -----------------  -----------------
         S            1.018435341537     0.012756145288    -0.716640057251    31.972071174400
         S           -1.683017658463    -1.145572854712     0.068577942749    31.972071174400
         O            1.147028341537    -1.321662854712    -1.299772057251    15.994914619570
         O            1.398887341537     1.234154145288    -1.421334057251    15.994914619570
         N            1.891218341537    -0.003144854712     0.709415942749    14.003074004430
         C           -0.673047658463     0.207595145288    -0.259218057251    12.000000000000
         C            1.883340341537     1.258642145288     1.453143942749    12.000000000000
         C            1.706291341537    -1.188243854712     1.551029942749    12.000000000000
         C           -1.320924658463     1.411059145288    -0.044832057251    12.000000000000
         C           -2.654374658463     1.219591145288     0.384117942749    12.000000000000
         C           -2.985390658463    -0.115030854712     0.498412942749    12.000000000000
         H            2.097100341537     2.078669145288     0.768878942749     1.007825032230
         H            2.678695341537     1.205138145288     2.199834942749     1.007825032230
         H            0.924619341537     1.435337145288     1.962415942749     1.007825032230
         H            1.742462341537    -2.079778854712     0.926560942749     1.007825032230
         H            0.760192341537    -1.160882854712     2.110392942749     1.007825032230
         H            2.536549341537    -1.219602854712     2.260373942749     1.007825032230
         H           -0.897779258463     2.367156445288    -0.379348557251     1.007825032230
         H           -3.351561658463     2.024147145288     0.593541942749     1.007825032230
         H           -3.937483658463    -0.543444854712     0.787361942749     1.007825032230

  Basis Set: AUG-CC-PVTZ
    Blend: AUG-CC-PVTZ
  Basis Set: (AUG-CC-PVTZ AUX)
    Blend: AUG-CC-PVTZ-JKFIT
	 Reference Energy          =   -1231.7875138873146170 [Eh]
	 Singles Energy            =      -0.0000000000000000 [Eh]
	 Same-Spin Energy          =      -0.5863236220623798 [Eh]
	 Opposite-Spin Energy      =      -1.7443216990465422 [Eh]
	 Correlation Energy        =      -2.3306453211089222 [Eh]
	 Total Energy              =   -1234.1181592084235490 [Eh]

	 ================> DF-SCS-MP2 Energies <==================
	-----------------------------------------------------------
	 SCS Same-Spin Scale       =       0.3333333333333333 [-]
	 SCS Opposite-Spin Scale   =       1.2000000000000000 [-]
	 SCS Same-Spin Energy      =      -0.1954412073541266 [Eh]
	 SCS Opposite-Spin Energy  =      -2.0931860388558508 [Eh]
	 SCS Correlation Energy    =      -2.2886272462099773 [Eh]
	 SCS Total Energy          =   -1234.0761411335245157 [Eh]
	-----------------------------------------------------------

  Dipole Moment: [D]
     X:    -2.6083      Y:     0.7347      Z:     4.6700     Total:     5.3993

*** Psi4 exiting successfully. Buy a developer a beer!
