                               Psi4 1.3.2 release

  ==> Input File <==

--------------------------------------------------------------------------
#psi4
#
memory 32 gb

molecule  {
0 1
  S        1.0053540    -0.0074810    -0.7736030
  S       -1.6960990    -1.1658100     0.0116150
  O        1.1339470    -1.3419000    -1.3567350
  O        1.3858060     1.2139170    -1.4782970
  N        1.8781370    -0.0233820     0.6524530
  C       -0.6861290     0.1873580    -0.3161810
  C        1.8702590     1.2384050     1.3961810
  C        1.6932100    -1.2084810     1.4940670
  C       -1.3340060     1.3908220    -0.1017950
  C       -2.6674560     1.1993540     0.3271550
  C       -2.9984720    -0.1352680     0.4414500
  H        2.0840190     2.0584320     0.7119160
  H        2.6656140     1.1849010     2.1428720
  H        0.9115380     1.4151000     1.9054530
  H        1.7293810    -2.1000160     0.8695980
  H        0.7471110    -1.1811200     2.0534300
  H        2.5234680    -1.2398400     2.2034110
  H       -0.8634200     2.3493520    -0.2940320
  H       -3.3948896     2.0029711     0.4412676
  H       -3.9505650    -0.5636820     0.7303990
units angstrom
no_reorient  #important for SAPT in psi4, default
symmetry c1  #important for SAPT in psi4, default
}

set PROPERTIES_ORIGIN ["COM"]
properties('MP2/aug-cc-pvtz', properties = ['dipole'])
--------------------------------------------------------------------------

    Molecular point group: c1
  Charge       = 0
  Multiplicity = 1
  Basis Set: AUG-CC-PVTZ
    Blend: AUG-CC-PVTZ
  Basis Set: (AUG-CC-PVTZ AUX)
    Blend: AUG-CC-PVTZ-JKFIT

    Orbital Energies [Eh]
    ---------------------

    Doubly Occupied:

       1A    -92.208307     2A    -92.016190     3A    -20.549854
       4A    -20.549377     5A    -15.606468     6A    -11.298672
       7A    -11.295745     8A    -11.277096     9A    -11.271994
      10A    -11.270643    11A    -11.264592    12A     -9.172466
      13A     -9.015696    14A     -6.857586    15A     -6.857312
      16A     -6.856945    17A     -6.696531    18A     -6.696004
      19A     -6.695244    20A     -1.455836    21A     -1.339997
      22A     -1.252782    23A     -1.201305    24A     -1.031411
      25A     -1.017155    26A     -0.981657    27A     -0.946095
      28A     -0.853351    29A     -0.786112    30A     -0.753546
      31A     -0.727242    32A     -0.703760    33A     -0.662042
      34A     -0.658684    35A     -0.627352    36A     -0.616190
      37A     -0.588366    38A     -0.579376    39A     -0.572042
      40A     -0.563967    41A     -0.549484    42A     -0.541837
      43A     -0.509652    44A     -0.500933    45A     -0.497517
      46A     -0.473138    47A     -0.467676    48A     -0.417543
      49A     -0.372383    50A     -0.354061

  @DF-RHF Final Energy: -1231.78869785260167

   => Energetics <=

    Nuclear Repulsion Energy =            892.4320046021097141
    One-Electron Energy =               -3468.3229792750148590
    Two-Electron Energy =                1344.1022768203033593
    Total Energy =                      -1231.7886978526016719
  Basis Set: (AUG-CC-PVTZ AUX)
    Blend: AUG-CC-PVTZ-RI
    Molecular point group: c1

    Geometry (in Angstrom), charge = 0, multiplicity = 1:

       Center              X                  Y                   Z               Mass
    ------------   -----------------  -----------------  -----------------  -----------------
         S            1.018344619726     0.012748263454    -0.716887878064    31.972071174400
         S           -1.683108380274    -1.145580736546     0.068330121936    31.972071174400
         O            1.146937619726    -1.321670736546    -1.300019878064    15.994914619570
         O            1.398796619726     1.234146263454    -1.421581878064    15.994914619570
         N            1.891127619726    -0.003152736546     0.709168121936    14.003074004430
         C           -0.673138380274     0.207587263454    -0.259465878064    12.000000000000
         C            1.883249619726     1.258634263454     1.452896121936    12.000000000000
         C            1.706200619726    -1.188251736546     1.550782121936    12.000000000000
         C           -1.321015380274     1.411051263454    -0.045079878064    12.000000000000
         C           -2.654465380274     1.219583263454     0.383870121936    12.000000000000
         C           -2.985481380274    -0.115038736546     0.498165121936    12.000000000000
         H            2.097009619726     2.078661263454     0.768631121936     1.007825032230
         H            2.678604619726     1.205130263454     2.199587121936     1.007825032230
         H            0.924528619726     1.435329263454     1.962168121936     1.007825032230
         H            1.742371619726    -2.079786736546     0.926313121936     1.007825032230
         H            0.760101619726    -1.160890736546     2.110145121936     1.007825032230
         H            2.536458619726    -1.219610736546     2.260126121936     1.007825032230
         H           -0.850429380274     2.369581263454    -0.237316878064     1.007825032230
         H           -3.381898980274     2.023200363454     0.497982721936     1.007825032230
         H           -3.937574380274    -0.543452736546     0.787114121936     1.007825032230

  Basis Set: AUG-CC-PVTZ
    Blend: AUG-CC-PVTZ
  Basis Set: (AUG-CC-PVTZ AUX)
    Blend: AUG-CC-PVTZ-JKFIT
	 Reference Energy          =   -1231.7886978526016719 [Eh]
	 Singles Energy            =      -0.0000000000000000 [Eh]
	 Same-Spin Energy          =      -0.5861774650684352 [Eh]
	 Opposite-Spin Energy      =      -1.7440958614053712 [Eh]
	 Correlation Energy        =      -2.3302733264738063 [Eh]
	 Total Energy              =   -1234.1189711790755155 [Eh]

	 ================> DF-SCS-MP2 Energies <==================
	-----------------------------------------------------------
	 SCS Same-Spin Scale       =       0.3333333333333333 [-]
	 SCS Opposite-Spin Scale   =       1.2000000000000000 [-]
	 SCS Same-Spin Energy      =      -0.1953924883561450 [Eh]
	 SCS Opposite-Spin Energy  =      -2.0929150336864453 [Eh]
	 SCS Correlation Energy    =      -2.2883075220425901 [Eh]
	 SCS Total Energy          =   -1234.0770053746441590 [Eh]
	-----------------------------------------------------------

  Dipole Moment: [D]
     X:    -2.5883      Y:     0.7423      Z:     4.6952     Total:     5.4125

*** Psi4 exiting successfully. Buy a developer a beer!
