                               Psi4 1.3.2 release

  ==> Input File <==

--------------------------------------------------------------------------
#psi4
#
memory 32 gb

molecule  {
0 1
  S        1.0053540    -0.0074810    -0.7736030
  S       -1.6960990    -1.1658100     0.0116150
  O        1.1339470    -1.3419000    -1.3567350
  O        1.3858060     1.2139170    -1.4782970
  N        1.8781370    -0.0233820     0.6524530
  C       -0.6861290     0.1873580    -0.3161810
  C        1.8702590     1.2384050     1.3961810
  C        1.6932100    -1.2084810     1.4940670
  C       -1.3340060     1.3908220    -0.1017950
  C       -2.6674560     1.1993540     0.3271550
  C       -2.9984720    -0.1352680     0.4414500
  H        2.0840190     2.0584320     0.7119160
  H        2.6656140     1.1849010     2.1428720
  H        0.9115380     1.4151000     1.9054530
  H        1.7293810    -2.1000160     0.8695980
  H        0.7471110    -1.1811200     2.0534300
  H        2.5234680    -1.2398400     2.2034110
  H       -0.8634200     2.3493520    -0.2940320
  H       -3.3646430     2.0039100     0.5365790
  H       -3.8747852    -0.5643433     0.9686363
units angstrom
no_reorient  #important for SAPT in psi4, default
symmetry c1  #important for SAPT in psi4, default
}

set PROPERTIES_ORIGIN ["COM"]
properties('MP2/aug-cc-pvtz', properties = ['dipole'])
--------------------------------------------------------------------------

    Molecular point group: c1
  Charge       = 0
  Multiplicity = 1
  Basis Set: AUG-CC-PVTZ
    Blend: AUG-CC-PVTZ
  Basis Set: (AUG-CC-PVTZ AUX)
    Blend: AUG-CC-PVTZ-JKFIT

    Orbital Energies [Eh]
    ---------------------

    Doubly Occupied:

       1A    -92.208488     2A    -92.016002     3A    -20.549896
       4A    -20.549250     5A    -15.607187     6A    -11.299106
       7A    -11.297353     8A    -11.277110     9A    -11.272466
      10A    -11.271096    11A    -11.264733    12A     -9.172645
      13A     -9.015527    14A     -6.857749    15A     -6.857507
      16A     -6.857120    17A     -6.696361    18A     -6.695824
      19A     -6.695069    20A     -1.455918    21A     -1.340016
      22A     -1.253273    23A     -1.201291    24A     -1.031040
      25A     -1.017059    26A     -0.982127    27A     -0.946176
      28A     -0.852978    29A     -0.783378    30A     -0.753702
      31A     -0.726950    32A     -0.704026    33A     -0.662236
      34A     -0.658232    35A     -0.627538    36A     -0.616359
      37A     -0.587540    38A     -0.579135    39A     -0.572489
      40A     -0.564347    41A     -0.546982    42A     -0.542223
      43A     -0.509644    44A     -0.501043    45A     -0.497492
      46A     -0.473122    47A     -0.468654    48A     -0.417422
      49A     -0.372411    50A     -0.353831

  @DF-RHF Final Energy: -1231.78580531240391

   => Energetics <=

    Nuclear Repulsion Energy =            892.3906172967837165
    One-Electron Energy =               -3468.2345946590708081
    Two-Electron Energy =                1344.0581720498832965
    Total Energy =                      -1231.7858053124039088
  Basis Set: (AUG-CC-PVTZ AUX)
    Blend: AUG-CC-PVTZ-RI
    Molecular point group: c1

    Geometry (in Angstrom), charge = 0, multiplicity = 1:

       Center              X                  Y                   Z               Mass
    ------------   -----------------  -----------------  -----------------  -----------------
         S            1.017785185797     0.012746798736    -0.718647802573    31.972071174400
         S           -1.683667814203    -1.145582201264     0.066570197427    31.972071174400
         O            1.146378185797    -1.321672201264    -1.301779802573    15.994914619570
         O            1.398237185797     1.234144798736    -1.423341802573    15.994914619570
         N            1.890568185797    -0.003154201264     0.707408197427    14.003074004430
         C           -0.673697814203     0.207585798736    -0.261225802573    12.000000000000
         C            1.882690185797     1.258632798736     1.451136197427    12.000000000000
         C            1.705641185797    -1.188253201264     1.549022197427    12.000000000000
         C           -1.321574814203     1.411049798736    -0.046839802573    12.000000000000
         C           -2.655024814203     1.219581798736     0.382110197427    12.000000000000
         C           -2.986040814203    -0.115040201264     0.496405197427    12.000000000000
         H            2.096450185797     2.078659798736     0.766871197427     1.007825032230
         H            2.678045185797     1.205128798736     2.197827197427     1.007825032230
         H            0.923969185797     1.435327798736     1.960408197427     1.007825032230
         H            1.741812185797    -2.079788201264     0.924553197427     1.007825032230
         H            0.759542185797    -1.160892201264     2.108385197427     1.007825032230
         H            2.535899185797    -1.219612201264     2.258366197427     1.007825032230
         H           -0.850988814203     2.369579798736    -0.239076802573     1.007825032230
         H           -3.352211814203     2.024137798736     0.591534197427     1.007825032230
         H           -3.862354014203    -0.544115501264     1.023591497427     1.007825032230

  Basis Set: AUG-CC-PVTZ
    Blend: AUG-CC-PVTZ
  Basis Set: (AUG-CC-PVTZ AUX)
    Blend: AUG-CC-PVTZ-JKFIT
	 Reference Energy          =   -1231.7858053124039088 [Eh]
	 Singles Energy            =      -0.0000000000000000 [Eh]
	 Same-Spin Energy          =      -0.5864059083409205 [Eh]
	 Opposite-Spin Energy      =      -1.7445888108436540 [Eh]
	 Correlation Energy        =      -2.3309947191845746 [Eh]
	 Total Energy              =   -1234.1168000315885820 [Eh]

	 ================> DF-SCS-MP2 Energies <==================
	-----------------------------------------------------------
	 SCS Same-Spin Scale       =       0.3333333333333333 [-]
	 SCS Opposite-Spin Scale   =       1.2000000000000000 [-]
	 SCS Same-Spin Energy      =      -0.1954686361136402 [Eh]
	 SCS Opposite-Spin Energy  =      -2.0935065730123847 [Eh]
	 SCS Correlation Energy    =      -2.2889752091260247 [Eh]
	 SCS Total Energy          =   -1234.0747805215298740 [Eh]
	-----------------------------------------------------------

  Dipole Moment: [D]
     X:    -2.4634      Y:     0.7650      Z:     4.9563     Total:     5.5874

*** Psi4 exiting successfully. Buy a developer a beer!
