                               Psi4 1.3.2 release

  ==> Input File <==

--------------------------------------------------------------------------
#psi4
#
memory 32 gb

molecule  {
0 1
  S        1.0053540    -0.0074810    -0.7736030
  S       -1.6960990    -1.1658100     0.0116150
  O        1.1339470    -1.3419000    -1.3567350
  O        1.3858060     1.2139170    -1.4782970
  N        1.8781370    -0.0233820     0.6524530
  C       -0.6861290     0.1873580    -0.3161810
  C        1.8702590     1.2384050     1.3961810
  C        1.6932100    -1.2084810     1.4940670
  C       -1.3340060     1.3908220    -0.1017950
  C       -2.6674560     1.1993540     0.3271550
  C       -2.9984720    -0.1352680     0.4414500
  H        2.0840190     2.0584320     0.7119160
  H        2.6656140     1.1849010     2.1428720
  H        0.9115380     1.4151000     1.9054530
  H        1.7293810    -2.1000160     0.8695980
  H        0.7471110    -1.1811200     2.0534300
  H        2.5234680    -1.2398400     2.2034110
  H       -0.8634200     2.3493520    -0.2940320
  H       -3.4251363     2.0020321     0.3459562
  H       -3.9505650    -0.5636820     0.7303990
units angstrom
no_reorient  #important for SAPT in psi4, default
symmetry c1  #important for SAPT in psi4, default
}

set PROPERTIES_ORIGIN ["COM"]
properties('MP2/aug-cc-pvtz', properties = ['dipole'])
--------------------------------------------------------------------------

    Molecular point group: c1
  Charge       = 0
  Multiplicity = 1
  Basis Set: AUG-CC-PVTZ
    Blend: AUG-CC-PVTZ
  Basis Set: (AUG-CC-PVTZ AUX)
    Blend: AUG-CC-PVTZ-JKFIT

    Orbital Energies [Eh]
    ---------------------

    Doubly Occupied:

       1A    -92.208358     2A    -92.016469     3A    -20.549959
       4A    -20.549449     5A    -15.606437     6A    -11.298771
       7A    -11.296192     8A    -11.277246     9A    -11.271941
      10A    -11.270609    11A    -11.265679    12A     -9.172519
      13A     -9.015972    14A     -6.857641    15A     -6.857363
      16A     -6.856999    17A     -6.696803    18A     -6.696277
      19A     -6.695518    20A     -1.455909    21A     -1.340078
      22A     -1.252768    23A     -1.201451    24A     -1.031316
      25A     -1.017069    26A     -0.981617    27A     -0.946024
      28A     -0.853296    29A     -0.785095    30A     -0.753608
      31A     -0.726419    32A     -0.703607    33A     -0.662049
      34A     -0.658243    35A     -0.626425    36A     -0.616144
      37A     -0.588509    38A     -0.579476    39A     -0.571939
      40A     -0.564023    41A     -0.548578    42A     -0.541800
      43A     -0.509749    44A     -0.500754    45A     -0.497530
      46A     -0.473218    47A     -0.467382    48A     -0.417620
      49A     -0.372373    50A     -0.354150

  @DF-RHF Final Energy: -1231.78679577470552

   => Energetics <=

    Nuclear Repulsion Energy =            892.3654240755722640
    One-Electron Energy =               -3468.1876012132802316
    Two-Electron Energy =                1344.0353813630024433
    Total Energy =                      -1231.7867957747055243
  Basis Set: (AUG-CC-PVTZ AUX)
    Blend: AUG-CC-PVTZ-RI
    Molecular point group: c1

    Geometry (in Angstrom), charge = 0, multiplicity = 1:

       Center              X                  Y                   Z               Mass
    ------------   -----------------  -----------------  -----------------  -----------------
         S            1.018504212339     0.012753217961    -0.716384980380    31.972071174400
         S           -1.682948787661    -1.145575782039     0.068833019620    31.972071174400
         O            1.147097212339    -1.321665782039    -1.299516980380    15.994914619570
         O            1.398956212339     1.234151217961    -1.421078980380    15.994914619570
         N            1.891287212339    -0.003147782039     0.709671019620    14.003074004430
         C           -0.672978787661     0.207592217961    -0.258962980380    12.000000000000
         C            1.883409212339     1.258639217961     1.453399019620    12.000000000000
         C            1.706360212339    -1.188246782039     1.551285019620    12.000000000000
         C           -1.320855787661     1.411056217961    -0.044576980380    12.000000000000
         C           -2.654305787661     1.219588217961     0.384373019620    12.000000000000
         C           -2.985321787661    -0.115033782039     0.498668019620    12.000000000000
         H            2.097169212339     2.078666217961     0.769134019620     1.007825032230
         H            2.678764212339     1.205135217961     2.200090019620     1.007825032230
         H            0.924688212339     1.435334217961     1.962671019620     1.007825032230
         H            1.742531212339    -2.079781782039     0.926816019620     1.007825032230
         H            0.760261212339    -1.160885782039     2.110648019620     1.007825032230
         H            2.536618212339    -1.219605782039     2.260629019620     1.007825032230
         H           -0.850269787661     2.369586217961    -0.236813980380     1.007825032230
         H           -3.411986087661     2.022266317961     0.403174219620     1.007825032230
         H           -3.937414787661    -0.543447782039     0.787617019620     1.007825032230

  Basis Set: AUG-CC-PVTZ
    Blend: AUG-CC-PVTZ
  Basis Set: (AUG-CC-PVTZ AUX)
    Blend: AUG-CC-PVTZ-JKFIT
	 Reference Energy          =   -1231.7867957747055243 [Eh]
	 Singles Energy            =      -0.0000000000000000 [Eh]
	 Same-Spin Energy          =      -0.5862647973837261 [Eh]
	 Opposite-Spin Energy      =      -1.7443056976867148 [Eh]
	 Correlation Energy        =      -2.3305704950704409 [Eh]
	 Total Energy              =   -1234.1173662697758573 [Eh]

	 ================> DF-SCS-MP2 Energies <==================
	-----------------------------------------------------------
	 SCS Same-Spin Scale       =       0.3333333333333333 [-]
	 SCS Opposite-Spin Scale   =       1.2000000000000000 [-]
	 SCS Same-Spin Energy      =      -0.1954215991279087 [Eh]
	 SCS Opposite-Spin Energy  =      -2.0931668372240577 [Eh]
	 SCS Correlation Energy    =      -2.2885884363519664 [Eh]
	 SCS Total Energy          =   -1234.0753842110575533 [Eh]
	-----------------------------------------------------------

  Dipole Moment: [D]
     X:    -2.5951      Y:     0.7234      Z:     4.6190     Total:     5.3473

*** Psi4 exiting successfully. Buy a developer a beer!
