                               Psi4 1.3.2 release

  ==> Input File <==

--------------------------------------------------------------------------
#psi4
#
memory 32 gb

molecule  {
0 1
  S        1.0053540    -0.0074810    -0.7736030
  S       -1.6960990    -1.1658100     0.0116150
  O        1.1339470    -1.3419000    -1.3567350
  O        1.3858060     1.2139170    -1.4782970
  N        1.8781370    -0.0233820     0.6524530
  C       -0.6861290     0.1873580    -0.3161810
  C        1.8702590     1.2384050     1.3961810
  C        1.6932100    -1.2084810     1.4940670
  C       -1.3340060     1.3908220    -0.1017950
  C       -2.6674560     1.1993540     0.3271550
  C       -2.9984720    -0.1352680     0.4414500
  H        2.0840190     2.0584320     0.7119160
  H        2.6656140     1.1849010     2.1428720
  H        0.9115380     1.4151000     1.9054530
  H        1.7293810    -2.1000160     0.8695980
  H        0.7471110    -1.1811200     2.0534300
  H        2.5234680    -1.2398400     2.2034110
  H       -0.8634200     2.3493520    -0.2940320
  H       -3.3797663     2.0034405     0.4889233
  H       -3.9505650    -0.5636820     0.7303990
units angstrom
no_reorient  #important for SAPT in psi4, default
symmetry c1  #important for SAPT in psi4, default
}

set PROPERTIES_ORIGIN ["COM"]
properties('MP2/aug-cc-pvtz', properties = ['dipole'])
--------------------------------------------------------------------------

    Molecular point group: c1
  Charge       = 0
  Multiplicity = 1
  Basis Set: AUG-CC-PVTZ
    Blend: AUG-CC-PVTZ
  Basis Set: (AUG-CC-PVTZ AUX)
    Blend: AUG-CC-PVTZ-JKFIT

    Orbital Energies [Eh]
    ---------------------

    Doubly Occupied:

       1A    -92.208299     2A    -92.016102     3A    -20.549820
       4A    -20.549357     5A    -15.606500     6A    -11.298646
       7A    -11.295615     8A    -11.277057     9A    -11.272035
      10A    -11.270678    11A    -11.264318    12A     -9.172456
      13A     -9.015610    14A     -6.857576    15A     -6.857304
      16A     -6.856936    17A     -6.696446    18A     -6.695919
      19A     -6.695159    20A     -1.455818    21A     -1.339973
      22A     -1.252806    23A     -1.201263    24A     -1.031439
      25A     -1.017175    26A     -0.981693    27A     -0.946129
      28A     -0.853376    29A     -0.786396    30A     -0.753537
      31A     -0.727454    32A     -0.703820    33A     -0.662053
      34A     -0.658778    35A     -0.627649    36A     -0.616211
      37A     -0.588328    38A     -0.579353    39A     -0.572102
      40A     -0.563979    41A     -0.549652    42A     -0.541870
      43A     -0.509601    44A     -0.500985    45A     -0.497517
      46A     -0.473113    47A     -0.467823    48A     -0.417520
      49A     -0.372370    50A     -0.354032

  @DF-RHF Final Energy: -1231.78914597858829

   => Energetics <=

    Nuclear Repulsion Energy =            892.4525204390100726
    One-Electron Energy =               -3468.3640424924296894
    Two-Electron Energy =                1344.1223760748312088
    Total Energy =                      -1231.7891459785882944
  Basis Set: (AUG-CC-PVTZ AUX)
    Blend: AUG-CC-PVTZ-RI
    Molecular point group: c1

    Geometry (in Angstrom), charge = 0, multiplicity = 1:

       Center              X                  Y                   Z               Mass
    ------------   -----------------  -----------------  -----------------  -----------------
         S            1.018264823684     0.012745786729    -0.717139326907    31.972071174400
         S           -1.683188176316    -1.145583213271     0.068078673093    31.972071174400
         O            1.146857823684    -1.321673213271    -1.300271326907    15.994914619570
         O            1.398716823684     1.234143786729    -1.421833326907    15.994914619570
         N            1.891047823684    -0.003155213271     0.708916673093    14.003074004430
         C           -0.673218176316     0.207584786729    -0.259717326907    12.000000000000
         C            1.883169823684     1.258631786729     1.452644673093    12.000000000000
         C            1.706120823684    -1.188254213271     1.550530673093    12.000000000000
         C           -1.321095176316     1.411048786729    -0.045331326907    12.000000000000
         C           -2.654545176316     1.219580786729     0.383618673093    12.000000000000
         C           -2.985561176316    -0.115041213271     0.497913673093    12.000000000000
         H            2.096929823684     2.078658786729     0.768379673093     1.007825032230
         H            2.678524823684     1.205127786729     2.199335673093     1.007825032230
         H            0.924448823684     1.435326786729     1.961916673093     1.007825032230
         H            1.742291823684    -2.079789213271     0.926061673093     1.007825032230
         H            0.760021823684    -1.160893213271     2.109893673093     1.007825032230
         H            2.536378823684    -1.219613213271     2.259874673093     1.007825032230
         H           -0.850509176316     2.369578786729    -0.237568326907     1.007825032230
         H           -3.366855476316     2.023667286729     0.545386973093     1.007825032230
         H           -3.937654176316    -0.543455213271     0.786862673093     1.007825032230

  Basis Set: AUG-CC-PVTZ
    Blend: AUG-CC-PVTZ
  Basis Set: (AUG-CC-PVTZ AUX)
    Blend: AUG-CC-PVTZ-JKFIT
	 Reference Energy          =   -1231.7891459785882944 [Eh]
	 Singles Energy            =      -0.0000000000000000 [Eh]
	 Same-Spin Energy          =      -0.5861552244375918 [Eh]
	 Opposite-Spin Energy      =      -1.7440478198182410 [Eh]
	 Correlation Energy        =      -2.3302030442558328 [Eh]
	 Total Energy              =   -1234.1193490228440623 [Eh]

	 ================> DF-SCS-MP2 Energies <==================
	-----------------------------------------------------------
	 SCS Same-Spin Scale       =       0.3333333333333333 [-]
	 SCS Opposite-Spin Scale   =       1.2000000000000000 [-]
	 SCS Same-Spin Energy      =      -0.1953850748125306 [Eh]
	 SCS Opposite-Spin Energy  =      -2.0928573837818889 [Eh]
	 SCS Correlation Energy    =      -2.2882424585944197 [Eh]
	 SCS Total Energy          =   -1234.0773884371826625 [Eh]
	-----------------------------------------------------------

  Dipole Moment: [D]
     X:    -2.5803      Y:     0.7474      Z:     4.7327     Total:     5.4420

*** Psi4 exiting successfully. Buy a developer a beer!
