                               Psi4 1.3.2 release

  ==> Input File <==

--------------------------------------------------------------------------
#psi4
#
memory 32 gb

molecule  {
0 1
  S        1.0053540    -0.0074810    -0.7736030
  S       -1.6960990    -1.1658100     0.0116150
  O        1.1339470    -1.3419000    -1.3567350
  O        1.3858060     1.2139170    -1.4782970
  N        1.8781370    -0.0233820     0.6524530
  C       -0.6861290     0.1873580    -0.3161810
  C        1.8702590     1.2384050     1.3961810
  C        1.6932100    -1.2084810     1.4940670
  C       -1.4034612     1.3900057    -0.3419518
  C       -2.6674560     1.1993540     0.3271550
  C       -2.9984720    -0.1352680     0.4414500
  H        2.0840190     2.0584320     0.7119160
  H        2.6656140     1.1849010     2.1428720
  H        0.9115380     1.4151000     1.9054530
  H        1.7293810    -2.1000160     0.8695980
  H        0.7471110    -1.1811200     2.0534300
  H        2.5234680    -1.2398400     2.2034110
  H       -0.8634200     2.3493520    -0.2940320
  H       -3.3646430     2.0039100     0.5365790
  H       -3.9505650    -0.5636820     0.7303990
units angstrom
no_reorient  #important for SAPT in psi4, default
symmetry c1  #important for SAPT in psi4, default
}

set PROPERTIES_ORIGIN ["COM"]
properties('MP2/aug-cc-pvtz', properties = ['dipole'])
--------------------------------------------------------------------------

    Molecular point group: c1
  Charge       = 0
  Multiplicity = 1
  Basis Set: AUG-CC-PVTZ
    Blend: AUG-CC-PVTZ
  Basis Set: (AUG-CC-PVTZ AUX)
    Blend: AUG-CC-PVTZ-JKFIT

    Orbital Energies [Eh]
    ---------------------

    Doubly Occupied:

       1A    -92.208848     2A    -92.016450     3A    -20.549983
       4A    -20.549818     5A    -15.607518     6A    -11.303826
       7A    -11.294464     8A    -11.282318     9A    -11.273024
      10A    -11.271467    11A    -11.267291    12A     -9.173065
      13A     -9.016038    14A     -6.858168    15A     -6.857924
      16A     -6.857522    17A     -6.696875    18A     -6.696330
      19A     -6.695586    20A     -1.456306    21A     -1.340324
      22A     -1.253682    23A     -1.197719    24A     -1.030361
      25A     -1.013358    26A     -0.982552    27A     -0.946762
      28A     -0.853731    29A     -0.783100    30A     -0.751621
      31A     -0.722682    32A     -0.704041    33A     -0.662653
      34A     -0.658715    35A     -0.625697    36A     -0.616702
      37A     -0.582749    38A     -0.579458    39A     -0.572745
      40A     -0.562359    41A     -0.546777    42A     -0.542643
      43A     -0.508126    44A     -0.500283    45A     -0.497179
      46A     -0.473393    47A     -0.469370    48A     -0.417182
      49A     -0.370640    50A     -0.353230

  @DF-RHF Final Energy: -1231.77190394969489

   => Energetics <=

    Nuclear Repulsion Energy =            891.0989046587004623
    One-Electron Energy =               -3465.6363047556919810
    Two-Electron Energy =                1342.7654961472965169
    Total Energy =                      -1231.7719039496948881
  Basis Set: (AUG-CC-PVTZ AUX)
    Blend: AUG-CC-PVTZ-RI
    Molecular point group: c1

    Geometry (in Angstrom), charge = 0, multiplicity = 1:

       Center              X                  Y                   Z               Mass
    ------------   -----------------  -----------------  -----------------  -----------------
         S            1.022548534451     0.012794593334    -0.702302980561    31.972071174400
         S           -1.678904465549    -1.145534406666     0.082915019439    31.972071174400
         O            1.151141534451    -1.321624406666    -1.285434980561    15.994914619570
         O            1.403000534451     1.234192593334    -1.406996980561    15.994914619570
         N            1.895331534451    -0.003106406666     0.723753019439    14.003074004430
         C           -0.668934465549     0.207633593334    -0.244880980561    12.000000000000
         C            1.887453534451     1.258680593334     1.467481019439    12.000000000000
         C            1.710404534451    -1.188205406666     1.565367019439    12.000000000000
         C           -1.386266665549     1.410281293334    -0.270651780561    12.000000000000
         C           -2.650261465549     1.219629593334     0.398455019439    12.000000000000
         C           -2.981277465549    -0.114992406666     0.512750019439    12.000000000000
         H            2.101213534451     2.078707593334     0.783216019439     1.007825032230
         H            2.682808534451     1.205176593334     2.214172019439     1.007825032230
         H            0.928732534451     1.435375593334     1.976753019439     1.007825032230
         H            1.746575534451    -2.079740406666     0.940898019439     1.007825032230
         H            0.764305534451    -1.160844406666     2.124730019439     1.007825032230
         H            2.540662534451    -1.219564406666     2.274711019439     1.007825032230
         H           -0.846225465549     2.369627593334    -0.222731980561     1.007825032230
         H           -3.347448465549     2.024185593334     0.607879019439     1.007825032230
         H           -3.933370465549    -0.543406406666     0.801699019439     1.007825032230

  Basis Set: AUG-CC-PVTZ
    Blend: AUG-CC-PVTZ
  Basis Set: (AUG-CC-PVTZ AUX)
    Blend: AUG-CC-PVTZ-JKFIT
	 Reference Energy          =   -1231.7719039496948881 [Eh]
	 Singles Energy            =      -0.0000000000000000 [Eh]
	 Same-Spin Energy          =      -0.5868231248570682 [Eh]
	 Opposite-Spin Energy      =      -1.7464019157792348 [Eh]
	 Correlation Energy        =      -2.3332250406363029 [Eh]
	 Total Energy              =   -1234.1051289903311954 [Eh]

	 ================> DF-SCS-MP2 Energies <==================
	-----------------------------------------------------------
	 SCS Same-Spin Scale       =       0.3333333333333333 [-]
	 SCS Opposite-Spin Scale   =       1.2000000000000000 [-]
	 SCS Same-Spin Energy      =      -0.1956077082856894 [Eh]
	 SCS Opposite-Spin Energy  =      -2.0956822989350816 [Eh]
	 SCS Correlation Energy    =      -2.2912900072207711 [Eh]
	 SCS Total Energy          =   -1234.0631939569157112 [Eh]
	-----------------------------------------------------------

  Dipole Moment: [D]
     X:    -2.5133      Y:     0.6655      Z:     4.8949     Total:     5.5425

*** Psi4 exiting successfully. Buy a developer a beer!
