                               Psi4 1.3.2 release

  ==> Input File <==

--------------------------------------------------------------------------
#psi4
#
memory 32 gb

molecule  {
0 1
  S        1.0053540    -0.0074810    -0.7736030
  S       -1.6960990    -1.1658100     0.0116150
  O        1.1339470    -1.3419000    -1.3567350
  O        1.3858060     1.2139170    -1.4782970
  N        1.8781370    -0.0233820     0.6524530
  C       -0.6861290     0.1873580    -0.3161810
  C        1.8702590     1.2384050     1.3961810
  C        1.6932100    -1.2084810     1.4940670
  C       -1.3340060     1.3908220    -0.1017950
  C       -2.6674560     1.1993540     0.3271550
  C       -2.9984720    -0.1352680     0.4414500
  H        2.0840190     2.0584320     0.7119160
  H        2.6656140     1.1849010     2.1428720
  H        0.9115380     1.4151000     1.9054530
  H        1.7293810    -2.1000160     0.8695980
  H        0.7471110    -1.1811200     2.0534300
  H        2.5234680    -1.2398400     2.2034110
  H       -0.9266742     2.3461084    -0.4837381
  H       -3.3646430     2.0039100     0.5365790
  H       -3.9505650    -0.5636820     0.7303990
units angstrom
no_reorient  #important for SAPT in psi4, default
symmetry c1  #important for SAPT in psi4, default
}

set PROPERTIES_ORIGIN ["COM"]
properties('MP2/aug-cc-pvtz', properties = ['dipole'])
--------------------------------------------------------------------------

    Molecular point group: c1
  Charge       = 0
  Multiplicity = 1
  Basis Set: AUG-CC-PVTZ
    Blend: AUG-CC-PVTZ
  Basis Set: (AUG-CC-PVTZ AUX)
    Blend: AUG-CC-PVTZ-JKFIT

    Orbital Energies [Eh]
    ---------------------

    Doubly Occupied:

       1A    -92.208351     2A    -92.016372     3A    -20.549733
       4A    -20.549334     5A    -15.606735     6A    -11.299241
       7A    -11.295432     8A    -11.277981     9A    -11.271341
      10A    -11.270647    11A    -11.264288    12A     -9.172503
      13A     -9.015880    14A     -6.857602    15A     -6.857369
      16A     -6.856982    17A     -6.696712    18A     -6.696184
      19A     -6.695427    20A     -1.455813    21A     -1.339958
      22A     -1.252766    23A     -1.201252    24A     -1.031423
      25A     -1.016403    26A     -0.981377    27A     -0.945961
      28A     -0.853179    29A     -0.785827    30A     -0.751325
      31A     -0.725497    32A     -0.703673    33A     -0.661977
      34A     -0.658605    35A     -0.627911    36A     -0.616112
      37A     -0.586441    38A     -0.578685    39A     -0.572024
      40A     -0.563622    41A     -0.547518    42A     -0.541551
      43A     -0.509509    44A     -0.500735    45A     -0.497628
      46A     -0.473085    47A     -0.467978    48A     -0.417178
      49A     -0.372197    50A     -0.354070

  @DF-RHF Final Energy: -1231.78619435182941

   => Energetics <=

    Nuclear Repulsion Energy =            892.2906530029202941
    One-Electron Energy =               -3468.0549145546879117
    Two-Electron Energy =                1343.9780671999380957
    Total Energy =                      -1231.7861943518294083
  Basis Set: (AUG-CC-PVTZ AUX)
    Blend: AUG-CC-PVTZ-RI
    Molecular point group: c1

    Geometry (in Angstrom), charge = 0, multiplicity = 1:

       Center              X                  Y                   Z               Mass
    ------------   -----------------  -----------------  -----------------  -----------------
         S            1.018518779854     0.012760423892    -0.716389817224    31.972071174400
         S           -1.682934220146    -1.145568576108     0.068828182776    31.972071174400
         O            1.147111779854    -1.321658576108    -1.299521817224    15.994914619570
         O            1.398970779854     1.234158423892    -1.421083817224    15.994914619570
         N            1.891301779854    -0.003140576108     0.709666182776    14.003074004430
         C           -0.672964220146     0.207599423892    -0.258967817224    12.000000000000
         C            1.883423779854     1.258646423892     1.453394182776    12.000000000000
         C            1.706374779854    -1.188239576108     1.551280182776    12.000000000000
         C           -1.320841220146     1.411063423892    -0.044581817224    12.000000000000
         C           -2.654291220146     1.219595423892     0.384368182776    12.000000000000
         C           -2.985307220146    -0.115026576108     0.498663182776    12.000000000000
         H            2.097183779854     2.078673423892     0.769129182776     1.007825032230
         H            2.678778779854     1.205142423892     2.200085182776     1.007825032230
         H            0.924702779854     1.435341423892     1.962666182776     1.007825032230
         H            1.742545779854    -2.079774576108     0.926811182776     1.007825032230
         H            0.760275779854    -1.160878576108     2.110643182776     1.007825032230
         H            2.536632779854    -1.219598576108     2.260624182776     1.007825032230
         H           -0.913509420146     2.366349823892    -0.426524917224     1.007825032230
         H           -3.351478220146     2.024151423892     0.593792182776     1.007825032230
         H           -3.937400220146    -0.543440576108     0.787612182776     1.007825032230

  Basis Set: AUG-CC-PVTZ
    Blend: AUG-CC-PVTZ
  Basis Set: (AUG-CC-PVTZ AUX)
    Blend: AUG-CC-PVTZ-JKFIT
	 Reference Energy          =   -1231.7861943518294083 [Eh]
	 Singles Energy            =      -0.0000000000000000 [Eh]
	 Same-Spin Energy          =      -0.5864292533917193 [Eh]
	 Opposite-Spin Energy      =      -1.7445254884543810 [Eh]
	 Correlation Energy        =      -2.3309547418461003 [Eh]
	 Total Energy              =   -1234.1171490936756072 [Eh]

	 ================> DF-SCS-MP2 Energies <==================
	-----------------------------------------------------------
	 SCS Same-Spin Scale       =       0.3333333333333333 [-]
	 SCS Opposite-Spin Scale   =       1.2000000000000000 [-]
	 SCS Same-Spin Energy      =      -0.1954764177972397 [Eh]
	 SCS Opposite-Spin Energy  =      -2.0934305861452573 [Eh]
	 SCS Correlation Energy    =      -2.2889070039424970 [Eh]
	 SCS Total Energy          =   -1234.0751013557719489 [Eh]
	-----------------------------------------------------------

  Dipole Moment: [D]
     X:    -2.6229      Y:     0.7244      Z:     4.6377     Total:     5.3771

*** Psi4 exiting successfully. Buy a developer a beer!
