                               Psi4 1.3.2 release

  ==> Input File <==

--------------------------------------------------------------------------
#psi4
#
memory 32 gb

molecule  {
0 1
  S        1.0053540    -0.0074810    -0.7736030
  S       -1.6960990    -1.1658100     0.0116150
  O        1.1339470    -1.3419000    -1.3567350
  O        1.3858060     1.2139170    -1.4782970
  N        1.8781370    -0.0233820     0.6524530
  C       -0.6861290     0.1873580    -0.3161810
  C        1.8702590     1.2384050     1.3961810
  C        1.6932100    -1.2084810     1.4940670
  C       -1.3756791     1.3903322    -0.2458891
  C       -2.6674560     1.1993540     0.3271550
  C       -2.9984720    -0.1352680     0.4414500
  H        2.0840190     2.0584320     0.7119160
  H        2.6656140     1.1849010     2.1428720
  H        0.9115380     1.4151000     1.9054530
  H        1.7293810    -2.1000160     0.8695980
  H        0.7471110    -1.1811200     2.0534300
  H        2.5234680    -1.2398400     2.2034110
  H       -0.8634200     2.3493520    -0.2940320
  H       -3.3646430     2.0039100     0.5365790
  H       -3.9505650    -0.5636820     0.7303990
units angstrom
no_reorient  #important for SAPT in psi4, default
symmetry c1  #important for SAPT in psi4, default
}

set PROPERTIES_ORIGIN ["COM"]
properties('MP2/aug-cc-pvtz', properties = ['dipole'])
--------------------------------------------------------------------------

    Molecular point group: c1
  Charge       = 0
  Multiplicity = 1
  Basis Set: AUG-CC-PVTZ
    Blend: AUG-CC-PVTZ
  Basis Set: (AUG-CC-PVTZ AUX)
    Blend: AUG-CC-PVTZ-JKFIT

    Orbital Energies [Eh]
    ---------------------

    Doubly Occupied:

       1A    -92.208459     2A    -92.015878     3A    -20.549742
       4A    -20.549502     5A    -15.606868     6A    -11.300156
       7A    -11.295179     8A    -11.279072     9A    -11.272565
      10A    -11.271006    11A    -11.265368    12A     -9.172639
      13A     -9.015437    14A     -6.857747    15A     -6.857495
      16A     -6.857111    17A     -6.696278    18A     -6.695741
      19A     -6.694982    20A     -1.455945    21A     -1.340045
      22A     -1.253148    23A     -1.199784    24A     -1.030963
      25A     -1.015648    26A     -0.982091    27A     -0.946488
      28A     -0.853535    29A     -0.785302    30A     -0.752929
      31A     -0.726030    32A     -0.703880    33A     -0.662276
      34A     -0.658802    35A     -0.626753    36A     -0.616412
      37A     -0.586109    38A     -0.579860    39A     -0.572507
      40A     -0.563715    41A     -0.548622    42A     -0.542228
      43A     -0.508966    44A     -0.500757    45A     -0.497321
      46A     -0.473161    47A     -0.468667    48A     -0.417185
      49A     -0.371340    50A     -0.353937

  @DF-RHF Final Energy: -1231.78363116931928

   => Energetics <=

    Nuclear Repulsion Energy =            891.8235321941157281
    One-Electron Energy =               -3467.1030625760836301
    Two-Electron Energy =                1343.4958992126487374
    Total Energy =                      -1231.7836311693192783
  Basis Set: (AUG-CC-PVTZ AUX)
    Blend: AUG-CC-PVTZ-RI
    Molecular point group: c1

    Geometry (in Angstrom), charge = 0, multiplicity = 1:

       Center              X                  Y                   Z               Mass
    ------------   -----------------  -----------------  -----------------  -----------------
         S            1.020803130471     0.012774081047    -0.708338097380    31.972071174400
         S           -1.680649869529    -1.145554918953     0.076879902620    31.972071174400
         O            1.149396130471    -1.321644918953    -1.291470097380    15.994914619570
         O            1.401255130471     1.234172081047    -1.413032097380    15.994914619570
         N            1.893586130471    -0.003126918953     0.717717902620    14.003074004430
         C           -0.670679869529     0.207613081047    -0.250916097380    12.000000000000
         C            1.885708130471     1.258660081047     1.461445902620    12.000000000000
         C            1.708659130471    -1.188225918953     1.559331902620    12.000000000000
         C           -1.360229969529     1.410587281047    -0.180624197380    12.000000000000
         C           -2.652006869529     1.219609081047     0.392419902620    12.000000000000
         C           -2.983022869529    -0.115012918953     0.506714902620    12.000000000000
         H            2.099468130471     2.078687081047     0.777180902620     1.007825032230
         H            2.681063130471     1.205156081047     2.208136902620     1.007825032230
         H            0.926987130471     1.435355081047     1.970717902620     1.007825032230
         H            1.744830130471    -2.079760918953     0.934862902620     1.007825032230
         H            0.762560130471    -1.160864918953     2.118694902620     1.007825032230
         H            2.538917130471    -1.219584918953     2.268675902620     1.007825032230
         H           -0.847970869529     2.369607081047    -0.228767097380     1.007825032230
         H           -3.349193869529     2.024165081047     0.601843902620     1.007825032230
         H           -3.935115869529    -0.543426918953     0.795663902620     1.007825032230

  Basis Set: AUG-CC-PVTZ
    Blend: AUG-CC-PVTZ
  Basis Set: (AUG-CC-PVTZ AUX)
    Blend: AUG-CC-PVTZ-JKFIT
	 Reference Energy          =   -1231.7836311693192783 [Eh]
	 Singles Energy            =      -0.0000000000000000 [Eh]
	 Same-Spin Energy          =      -0.5861976393040866 [Eh]
	 Opposite-Spin Energy      =      -1.7445954736935778 [Eh]
	 Correlation Energy        =      -2.3307931129976645 [Eh]
	 Total Energy              =   -1234.1144242823170316 [Eh]

	 ================> DF-SCS-MP2 Energies <==================
	-----------------------------------------------------------
	 SCS Same-Spin Scale       =       0.3333333333333333 [-]
	 SCS Opposite-Spin Scale   =       1.2000000000000000 [-]
	 SCS Same-Spin Energy      =      -0.1953992131013622 [Eh]
	 SCS Opposite-Spin Energy  =      -2.0935145684322931 [Eh]
	 SCS Correlation Energy    =      -2.2889137815336555 [Eh]
	 SCS Total Energy          =   -1234.0725449508529437 [Eh]
	-----------------------------------------------------------

  Dipole Moment: [D]
     X:    -2.5361      Y:     0.7285      Z:     4.8394     Total:     5.5120

*** Psi4 exiting successfully. Buy a developer a beer!
