                               Psi4 1.3.2 release

  ==> Input File <==

--------------------------------------------------------------------------
#psi4
#
memory 32 gb

molecule  {
0 1
  S        1.0053540    -0.0074810    -0.7736030
  S       -1.6960990    -1.1658100     0.0116150
  O        1.1339470    -1.3419000    -1.3567350
  O        1.3858060     1.2139170    -1.4782970
  N        1.8781370    -0.0233820     0.6524530
  C       -0.6861290     0.1873580    -0.3161810
  C        1.8702590     1.2384050     1.3961810
  C        1.6932100    -1.2084810     1.4940670
  C       -1.3340060     1.3908220    -0.1017950
  C       -2.6674560     1.1993540     0.3271550
  C       -2.9984720    -0.1352680     0.4414500
  H        2.0840190     2.0584320     0.7119160
  H        2.6656140     1.1849010     2.1428720
  H        0.9115380     1.4151000     1.9054530
  H        1.7293810    -2.1000160     0.8695980
  H        0.7471110    -1.1811200     2.0534300
  H        2.5234680    -1.2398400     2.2034110
  H       -0.8634200     2.3493520    -0.2940320
  H       -3.4100130     2.0025016     0.3936119
  H       -3.9505650    -0.5636820     0.7303990
units angstrom
no_reorient  #important for SAPT in psi4, default
symmetry c1  #important for SAPT in psi4, default
}

set PROPERTIES_ORIGIN ["COM"]
properties('MP2/aug-cc-pvtz', properties = ['dipole'])
--------------------------------------------------------------------------

    Molecular point group: c1
  Charge       = 0
  Multiplicity = 1
  Basis Set: AUG-CC-PVTZ
    Blend: AUG-CC-PVTZ
  Basis Set: (AUG-CC-PVTZ AUX)
    Blend: AUG-CC-PVTZ-JKFIT

    Orbital Energies [Eh]
    ---------------------

    Doubly Occupied:

       1A    -92.208327     2A    -92.016313     3A    -20.549901
       4A    -20.549407     5A    -15.606447     6A    -11.298714
       7A    -11.295937     8A    -11.277159     9A    -11.271963
      10A    -11.270620    11A    -11.265047    12A     -9.172486
      13A     -9.015817    14A     -6.857608    15A     -6.857331
      16A     -6.856966    17A     -6.696650    18A     -6.696124
      19A     -6.695364    20A     -1.455867    21A     -1.340032
      22A     -1.252769    23A     -1.201368    24A     -1.031369
      25A     -1.017119    26A     -0.981631    27A     -0.946059
      28A     -0.853324    29A     -0.785671    30A     -0.753570
      31A     -0.726893    32A     -0.703689    33A     -0.662040
      34A     -0.658504    35A     -0.626942    36A     -0.616169
      37A     -0.588427    38A     -0.579418    39A     -0.571988
      40A     -0.563986    41A     -0.549122    42A     -0.541813
      43A     -0.509701    44A     -0.500856    45A     -0.497522
      46A     -0.473173    47A     -0.467529    48A     -0.417577
      49A     -0.372383    50A     -0.354100

  @DF-RHF Final Energy: -1231.78792574033241

   => Energetics <=

    Nuclear Repulsion Energy =            892.4028686175893199
    One-Electron Energy =               -3468.2640049960477882
    Two-Electron Energy =                1344.0732106381260564
    Total Energy =                      -1231.7879257403324118
  Basis Set: (AUG-CC-PVTZ AUX)
    Blend: AUG-CC-PVTZ-RI
    Molecular point group: c1

    Geometry (in Angstrom), charge = 0, multiplicity = 1:

       Center              X                  Y                   Z               Mass
    ------------   -----------------  -----------------  -----------------  -----------------
         S            1.018424416297     0.012750740708    -0.716636429222    31.972071174400
         S           -1.683028583703    -1.145578259292     0.068581570778    31.972071174400
         O            1.147017416297    -1.321668259292    -1.299768429222    15.994914619570
         O            1.398876416297     1.234148740708    -1.421330429222    15.994914619570
         N            1.891207416297    -0.003150259292     0.709419570778    14.003074004430
         C           -0.673058583703     0.207589740708    -0.259214429222    12.000000000000
         C            1.883329416297     1.258636740708     1.453147570778    12.000000000000
         C            1.706280416297    -1.188249259292     1.551033570778    12.000000000000
         C           -1.320935583703     1.411053740708    -0.044828429222    12.000000000000
         C           -2.654385583703     1.219585740708     0.384121570778    12.000000000000
         C           -2.985401583703    -0.115036259292     0.498416570778    12.000000000000
         H            2.097089416297     2.078663740708     0.768882570778     1.007825032230
         H            2.678684416297     1.205132740708     2.199838570778     1.007825032230
         H            0.924608416297     1.435331740708     1.962419570778     1.007825032230
         H            1.742451416297    -2.079784259292     0.926564570778     1.007825032230
         H            0.760181416297    -1.160888259292     2.110396570778     1.007825032230
         H            2.536538416297    -1.219608259292     2.260377570778     1.007825032230
         H           -0.850349583703     2.369583740708    -0.237065429222     1.007825032230
         H           -3.396942583703     2.022733340708     0.450578470778     1.007825032230
         H           -3.937494583703    -0.543450259292     0.787365570778     1.007825032230

  Basis Set: AUG-CC-PVTZ
    Blend: AUG-CC-PVTZ
  Basis Set: (AUG-CC-PVTZ AUX)
    Blend: AUG-CC-PVTZ-JKFIT
	 Reference Energy          =   -1231.7879257403324118 [Eh]
	 Singles Energy            =      -0.0000000000000000 [Eh]
	 Same-Spin Energy          =      -0.5862140435280561 [Eh]
	 Opposite-Spin Energy      =      -1.7441808249596287 [Eh]
	 Correlation Energy        =      -2.3303948684876845 [Eh]
	 Total Energy              =   -1234.1183206088201132 [Eh]

	 ================> DF-SCS-MP2 Energies <==================
	-----------------------------------------------------------
	 SCS Same-Spin Scale       =       0.3333333333333333 [-]
	 SCS Opposite-Spin Scale   =       1.2000000000000000 [-]
	 SCS Same-Spin Energy      =      -0.1954046811760187 [Eh]
	 SCS Opposite-Spin Energy  =      -2.0930169899515545 [Eh]
	 SCS Correlation Energy    =      -2.2884216711275731 [Eh]
	 SCS Total Energy          =   -1234.0763474114598921 [Eh]
	-----------------------------------------------------------

  Dipole Moment: [D]
     X:    -2.5932      Y:     0.7342      Z:     4.6573     Total:     5.3809

*** Psi4 exiting successfully. Buy a developer a beer!
