                               Psi4 1.3.2 release

  ==> Input File <==

--------------------------------------------------------------------------
#psi4
#
memory 32 gb

molecule  {
0 1
  S        1.0053540    -0.0074810    -0.7736030
  S       -1.6960990    -1.1658100     0.0116150
  O        1.1339470    -1.3419000    -1.3567350
  O        1.3858060     1.2139170    -1.4782970
  N        1.8781370    -0.0233820     0.6524530
  C       -0.6861290     0.1873580    -0.3161810
  C        1.8702590     1.2384050     1.3961810
  C        1.6932100    -1.2084810     1.4940670
  C       -1.3478970     1.3906587    -0.1498264
  C       -2.6674560     1.1993540     0.3271550
  C       -2.9984720    -0.1352680     0.4414500
  H        2.0840190     2.0584320     0.7119160
  H        2.6656140     1.1849010     2.1428720
  H        0.9115380     1.4151000     1.9054530
  H        1.7293810    -2.1000160     0.8695980
  H        0.7471110    -1.1811200     2.0534300
  H        2.5234680    -1.2398400     2.2034110
  H       -0.8634200     2.3493520    -0.2940320
  H       -3.3646430     2.0039100     0.5365790
  H       -3.9505650    -0.5636820     0.7303990
units angstrom
no_reorient  #important for SAPT in psi4, default
symmetry c1  #important for SAPT in psi4, default
}

set PROPERTIES_ORIGIN ["COM"]
properties('MP2/aug-cc-pvtz', properties = ['dipole'])
--------------------------------------------------------------------------

    Molecular point group: c1
  Charge       = 0
  Multiplicity = 1
  Basis Set: AUG-CC-PVTZ
    Blend: AUG-CC-PVTZ
  Basis Set: (AUG-CC-PVTZ AUX)
    Blend: AUG-CC-PVTZ-JKFIT

    Orbital Energies [Eh]
    ---------------------

    Doubly Occupied:

       1A    -92.208300     2A    -92.015863     3A    -20.549728
       4A    -20.549357     5A    -15.606569     6A    -11.298600
       7A    -11.295530     8A    -11.277311     9A    -11.272226
      10A    -11.270769    11A    -11.264355    12A     -9.172461
      13A     -9.015390    14A     -6.857575    15A     -6.857312
      16A     -6.856939    17A     -6.696230    18A     -6.695700
      19A     -6.694937    20A     -1.455803    21A     -1.339946
      22A     -1.252883    23A     -1.200989    24A     -1.031354
      25A     -1.016917    26A     -0.981817    27A     -0.946260
      28A     -0.853422    29A     -0.786419    30A     -0.753591
      31A     -0.727482    32A     -0.703848    33A     -0.662095
      34A     -0.658824    35A     -0.627553    36A     -0.616261
      37A     -0.588100    38A     -0.579538    39A     -0.572286
      40A     -0.564137    41A     -0.549550    42A     -0.541981
      43A     -0.509461    44A     -0.500954    45A     -0.497448
      46A     -0.473082    47A     -0.468156    48A     -0.417365
      49A     -0.372041    50A     -0.354120

  @DF-RHF Final Energy: -1231.78896996806952

   => Energetics <=

    Nuclear Repulsion Energy =            892.3117688448138551
    One-Electron Energy =               -3468.0838079059099073
    Two-Electron Energy =                1343.9830690930266428
    Total Energy =                      -1231.7889699680695230
  Basis Set: (AUG-CC-PVTZ AUX)
    Blend: AUG-CC-PVTZ-RI
    Molecular point group: c1

    Geometry (in Angstrom), charge = 0, multiplicity = 1:

       Center              X                  Y                   Z               Mass
    ------------   -----------------  -----------------  -----------------  -----------------
         S            1.019057726490     0.012753568760    -0.714373214198    31.972071174400
         S           -1.682395273510    -1.145575431240     0.070844785802    31.972071174400
         O            1.147650726490    -1.321665431240    -1.297505214198    15.994914619570
         O            1.399509726490     1.234151568760    -1.419067214198    15.994914619570
         N            1.891840726490    -0.003147431240     0.711682785802    14.003074004430
         C           -0.672425273510     0.207592568760    -0.256951214198    12.000000000000
         C            1.883962726490     1.258639568760     1.455410785802    12.000000000000
         C            1.706913726490    -1.188246431240     1.553296785802    12.000000000000
         C           -1.334193273510     1.410893268760    -0.090596614198    12.000000000000
         C           -2.653752273510     1.219588568760     0.386384785802    12.000000000000
         C           -2.984768273510    -0.115033431240     0.500679785802    12.000000000000
         H            2.097722726490     2.078666568760     0.771145785802     1.007825032230
         H            2.679317726490     1.205135568760     2.202101785802     1.007825032230
         H            0.925241726490     1.435334568760     1.964682785802     1.007825032230
         H            1.743084726490    -2.079781431240     0.928827785802     1.007825032230
         H            0.760814726490    -1.160885431240     2.112659785802     1.007825032230
         H            2.537171726490    -1.219605431240     2.262640785802     1.007825032230
         H           -0.849716273510     2.369586568760    -0.234802214198     1.007825032230
         H           -3.350939273510     2.024144568760     0.595808785802     1.007825032230
         H           -3.936861273510    -0.543447431240     0.789628785802     1.007825032230

  Basis Set: AUG-CC-PVTZ
    Blend: AUG-CC-PVTZ
  Basis Set: (AUG-CC-PVTZ AUX)
    Blend: AUG-CC-PVTZ-JKFIT
	 Reference Energy          =   -1231.7889699680695230 [Eh]
	 Singles Energy            =      -0.0000000000000000 [Eh]
	 Same-Spin Energy          =      -0.5860431229707147 [Eh]
	 Opposite-Spin Energy      =      -1.7439538743283767 [Eh]
	 Correlation Energy        =      -2.3299969972990913 [Eh]
	 Total Energy              =   -1234.1189669653685996 [Eh]

	 ================> DF-SCS-MP2 Energies <==================
	-----------------------------------------------------------
	 SCS Same-Spin Scale       =       0.3333333333333333 [-]
	 SCS Opposite-Spin Scale   =       1.2000000000000000 [-]
	 SCS Same-Spin Energy      =      -0.1953477076569049 [Eh]
	 SCS Opposite-Spin Energy  =      -2.0927446491940520 [Eh]
	 SCS Correlation Energy    =      -2.2880923568509570 [Eh]
	 SCS Total Energy          =   -1234.0770623249204618 [Eh]
	-----------------------------------------------------------

  Dipole Moment: [D]
     X:    -2.5584      Y:     0.7525      Z:     4.7916     Total:     5.4837

*** Psi4 exiting successfully. Buy a developer a beer!
