                               Psi4 1.3.2 release

  ==> Input File <==

--------------------------------------------------------------------------
#psi4
#
memory 32 gb

molecule  {
0 1
  S        1.0053540    -0.0074810    -0.7736030
  S       -1.6960990    -1.1658100     0.0116150
  O        1.1339470    -1.3419000    -1.3567350
  O        1.3858060     1.2139170    -1.4782970
  N        1.8781370    -0.0233820     0.6524530
  C       -0.6861290     0.1873580    -0.3161810
  C        1.8702590     1.2384050     1.3961810
  C        1.6932100    -1.2084810     1.4940670
  C       -1.3340060     1.3908220    -0.1017950
  C       -2.6674560     1.1993540     0.3271550
  C       -2.9984720    -0.1352680     0.4414500
  H        2.0840190     2.0584320     0.7119160
  H        2.6656140     1.1849010     2.1428720
  H        0.9115380     1.4151000     1.9054530
  H        1.7293810    -2.1000160     0.8695980
  H        0.7471110    -1.1811200     2.0534300
  H        2.5234680    -1.2398400     2.2034110
  H       -0.9424877     2.3452975    -0.5311646
  H       -3.3646430     2.0039100     0.5365790
  H       -3.9505650    -0.5636820     0.7303990
units angstrom
no_reorient  #important for SAPT in psi4, default
symmetry c1  #important for SAPT in psi4, default
}

set PROPERTIES_ORIGIN ["COM"]
properties('MP2/aug-cc-pvtz', properties = ['dipole'])
--------------------------------------------------------------------------

    Molecular point group: c1
  Charge       = 0
  Multiplicity = 1
  Basis Set: AUG-CC-PVTZ
    Blend: AUG-CC-PVTZ
  Basis Set: (AUG-CC-PVTZ AUX)
    Blend: AUG-CC-PVTZ-JKFIT

    Orbital Energies [Eh]
    ---------------------

    Doubly Occupied:

       1A    -92.208379     2A    -92.016529     3A    -20.549739
       4A    -20.549323     5A    -15.606807     6A    -11.299513
       7A    -11.295403     8A    -11.278621     9A    -11.271166
      10A    -11.270647    11A    -11.264340    12A     -9.172530
      13A     -9.016032    14A     -6.857625    15A     -6.857400
      16A     -6.857008    17A     -6.696862    18A     -6.696334
      19A     -6.695579    20A     -1.455823    21A     -1.339961
      22A     -1.252766    23A     -1.201276    24A     -1.031438
      25A     -1.016064    26A     -0.981302    27A     -0.945910
      28A     -0.853109    29A     -0.785572    30A     -0.750532
      31A     -0.724384    32A     -0.703621    33A     -0.661960
      34A     -0.658577    35A     -0.627935    36A     -0.616091
      37A     -0.585756    38A     -0.578478    39A     -0.571936
      40A     -0.563556    41A     -0.546441    42A     -0.541474
      43A     -0.509449    44A     -0.500614    45A     -0.497653
      46A     -0.473081    47A     -0.467997    48A     -0.417119
      49A     -0.372107    50A     -0.354097

  @DF-RHF Final Energy: -1231.78444720478069

   => Energetics <=

    Nuclear Repulsion Energy =            892.2249566254545243
    One-Electron Energy =               -3467.9269667276439577
    Two-Electron Energy =                1343.9175628974087431
    Total Energy =                      -1231.7844472047806903
  Basis Set: (AUG-CC-PVTZ AUX)
    Blend: AUG-CC-PVTZ-RI
    Molecular point group: c1

    Geometry (in Angstrom), charge = 0, multiplicity = 1:

       Center              X                  Y                   Z               Mass
    ------------   -----------------  -----------------  -----------------  -----------------
         S            1.018602217644     0.012764702496    -0.716139577724    31.972071174400
         S           -1.682850782356    -1.145564297504     0.069078422276    31.972071174400
         O            1.147195217644    -1.321654297504    -1.299271577724    15.994914619570
         O            1.399054217644     1.234162702496    -1.420833577724    15.994914619570
         N            1.891385217644    -0.003136297504     0.709916422276    14.003074004430
         C           -0.672880782356     0.207603702496    -0.258717577724    12.000000000000
         C            1.883507217644     1.258650702496     1.453644422276    12.000000000000
         C            1.706458217644    -1.188235297504     1.551530422276    12.000000000000
         C           -1.320757782356     1.411067702496    -0.044331577724    12.000000000000
         C           -2.654207782356     1.219599702496     0.384618422276    12.000000000000
         C           -2.985223782356    -0.115022297504     0.498913422276    12.000000000000
         H            2.097267217644     2.078677702496     0.769379422276     1.007825032230
         H            2.678862217644     1.205146702496     2.200335422276     1.007825032230
         H            0.924786217644     1.435345702496     1.962916422276     1.007825032230
         H            1.742629217644    -2.079770297504     0.927061422276     1.007825032230
         H            0.760359217644    -1.160874297504     2.110893422276     1.007825032230
         H            2.536716217644    -1.219594297504     2.260874422276     1.007825032230
         H           -0.929239482356     2.365543202496    -0.473701177724     1.007825032230
         H           -3.351394782356     2.024155702496     0.594042422276     1.007825032230
         H           -3.937316782356    -0.543436297504     0.787862422276     1.007825032230

  Basis Set: AUG-CC-PVTZ
    Blend: AUG-CC-PVTZ
  Basis Set: (AUG-CC-PVTZ AUX)
    Blend: AUG-CC-PVTZ-JKFIT
	 Reference Energy          =   -1231.7844472047806903 [Eh]
	 Singles Energy            =      -0.0000000000000000 [Eh]
	 Same-Spin Energy          =      -0.5865565968130182 [Eh]
	 Opposite-Spin Energy      =      -1.7447848045185390 [Eh]
	 Correlation Energy        =      -2.3313414013315574 [Eh]
	 Total Energy              =   -1234.1157886061123463 [Eh]

	 ================> DF-SCS-MP2 Energies <==================
	-----------------------------------------------------------
	 SCS Same-Spin Scale       =       0.3333333333333333 [-]
	 SCS Opposite-Spin Scale   =       1.2000000000000000 [-]
	 SCS Same-Spin Energy      =      -0.1955188656043394 [Eh]
	 SCS Opposite-Spin Energy  =      -2.0937417654222465 [Eh]
	 SCS Correlation Energy    =      -2.2892606310265862 [Eh]
	 SCS Total Energy          =   -1234.0737078358072267 [Eh]
	-----------------------------------------------------------

  Dipole Moment: [D]
     X:    -2.6383      Y:     0.7116      Z:     4.6061     Total:     5.3556

*** Psi4 exiting successfully. Buy a developer a beer!
