                               Psi4 1.3.2 release

  ==> Input File <==

--------------------------------------------------------------------------
#psi4
#
memory 32 gb

molecule  {
0 1
  S        1.0053540    -0.0074810    -0.7736030
  S       -1.6960990    -1.1658100     0.0116150
  O        1.1339470    -1.3419000    -1.3567350
  O        1.3858060     1.2139170    -1.4782970
  N        1.8781370    -0.0233820     0.6524530
  C       -0.6861290     0.1873580    -0.3161810
  C        1.8702590     1.2384050     1.3961810
  C        1.6932100    -1.2084810     1.4940670
  C       -1.3340060     1.3908220    -0.1017950
  C       -2.6674560     1.1993540     0.3271550
  C       -2.9984720    -0.1352680     0.4414500
  H        2.0840190     2.0584320     0.7119160
  H        2.6656140     1.1849010     2.1428720
  H        0.9115380     1.4151000     1.9054530
  H        1.7293810    -2.1000160     0.8695980
  H        0.7471110    -1.1811200     2.0534300
  H        2.5234680    -1.2398400     2.2034110
  H       -0.8634200     2.3493520    -0.2940320
  H       -3.3646430     2.0039100     0.5365790
  H       -3.8596293    -0.5644756     1.0162837
units angstrom
no_reorient  #important for SAPT in psi4, default
symmetry c1  #important for SAPT in psi4, default
}

set PROPERTIES_ORIGIN ["COM"]
properties('MP2/aug-cc-pvtz', properties = ['dipole'])
--------------------------------------------------------------------------

    Molecular point group: c1
  Charge       = 0
  Multiplicity = 1
  Basis Set: AUG-CC-PVTZ
    Blend: AUG-CC-PVTZ
  Basis Set: (AUG-CC-PVTZ AUX)
    Blend: AUG-CC-PVTZ-JKFIT

    Orbital Energies [Eh]
    ---------------------

    Doubly Occupied:

       1A    -92.208582     2A    -92.015991     3A    -20.549973
       4A    -20.549290     5A    -15.607375     6A    -11.299357
       7A    -11.298133     8A    -11.277162     9A    -11.272586
      10A    -11.271207    11A    -11.264999    12A     -9.172742
      13A     -9.015522    14A     -6.857843    15A     -6.857607
      16A     -6.857215    17A     -6.696355    18A     -6.695812
      19A     -6.695060    20A     -1.455998    21A     -1.340083
      22A     -1.253413    23A     -1.201333    24A     -1.030897
      25A     -1.017017    26A     -0.982248    27A     -0.946167
      28A     -0.852814    29A     -0.782043    30A     -0.753768
      31A     -0.726697    32A     -0.704073    33A     -0.662310
      34A     -0.658045    35A     -0.627298    36A     -0.616380
      37A     -0.587089    38A     -0.579061    39A     -0.572595
      40A     -0.564488    41A     -0.545901    42A     -0.542289
      43A     -0.509660    44A     -0.501085    45A     -0.497503
      46A     -0.473172    47A     -0.468827    48A     -0.417445
      49A     -0.372453    50A     -0.353786

  @DF-RHF Final Energy: -1231.78403002142159

   => Energetics <=

    Nuclear Repulsion Energy =            892.3505699523919930
    One-Electron Energy =               -3468.1517064194131308
    Two-Electron Energy =                1344.0171064455994383
    Total Energy =                      -1231.7840300214215858
  Basis Set: (AUG-CC-PVTZ AUX)
    Blend: AUG-CC-PVTZ-RI
    Molecular point group: c1

    Geometry (in Angstrom), charge = 0, multiplicity = 1:

       Center              X                  Y                   Z               Mass
    ------------   -----------------  -----------------  -----------------  -----------------
         S            1.017705217745     0.012747496799    -0.718899207621    31.972071174400
         S           -1.683747782255    -1.145581503201     0.066318792379    31.972071174400
         O            1.146298217745    -1.321671503201    -1.302031207621    15.994914619570
         O            1.398157217745     1.234145496799    -1.423593207621    15.994914619570
         N            1.890488217745    -0.003153503201     0.707156792379    14.003074004430
         C           -0.673777782255     0.207586496799    -0.261477207621    12.000000000000
         C            1.882610217745     1.258633496799     1.450884792379    12.000000000000
         C            1.705561217745    -1.188252503201     1.548770792379    12.000000000000
         C           -1.321654782255     1.411050496799    -0.047091207621    12.000000000000
         C           -2.655104782255     1.219582496799     0.381858792379    12.000000000000
         C           -2.986120782255    -0.115039503201     0.496153792379    12.000000000000
         H            2.096370217745     2.078660496799     0.766619792379     1.007825032230
         H            2.677965217745     1.205129496799     2.197575792379     1.007825032230
         H            0.923889217745     1.435328496799     1.960156792379     1.007825032230
         H            1.741732217745    -2.079787503201     0.924301792379     1.007825032230
         H            0.759462217745    -1.160891503201     2.108133792379     1.007825032230
         H            2.535819217745    -1.219611503201     2.258114792379     1.007825032230
         H           -0.851068782255     2.369580496799    -0.239328207621     1.007825032230
         H           -3.352291782255     2.024138496799     0.591282792379     1.007825032230
         H           -3.847278082255    -0.544247103201     1.070987492379     1.007825032230

  Basis Set: AUG-CC-PVTZ
    Blend: AUG-CC-PVTZ
  Basis Set: (AUG-CC-PVTZ AUX)
    Blend: AUG-CC-PVTZ-JKFIT
	 Reference Energy          =   -1231.7840300214215858 [Eh]
	 Singles Energy            =      -0.0000000000000000 [Eh]
	 Same-Spin Energy          =      -0.5865252313947433 [Eh]
	 Opposite-Spin Energy      =      -1.7448593610170255 [Eh]
	 Correlation Energy        =      -2.3313845924117689 [Eh]
	 Total Energy              =   -1234.1154146138333090 [Eh]

	 ================> DF-SCS-MP2 Energies <==================
	-----------------------------------------------------------
	 SCS Same-Spin Scale       =       0.3333333333333333 [-]
	 SCS Opposite-Spin Scale   =       1.2000000000000000 [-]
	 SCS Same-Spin Energy      =      -0.1955084104649144 [Eh]
	 SCS Opposite-Spin Energy  =      -2.0938312332204307 [Eh]
	 SCS Correlation Energy    =      -2.2893396436853450 [Eh]
	 SCS Total Energy          =   -1234.0733696651068385 [Eh]
	-----------------------------------------------------------

  Dipole Moment: [D]
     X:    -2.4321      Y:     0.7728      Z:     4.9896     Total:     5.6043

*** Psi4 exiting successfully. Buy a developer a beer!
