                               Psi4 1.3.2 release

  ==> Input File <==

--------------------------------------------------------------------------
#psi4
#
memory 32 gb

molecule  {
0 1
  S        1.0053540    -0.0074810    -0.7736030
  S       -1.6960990    -1.1658100     0.0116150
  O        1.1339470    -1.3419000    -1.3567350
  O        1.3858060     1.2139170    -1.4782970
  N        1.8781370    -0.0233820     0.6524530
  C       -0.6861290     0.1873580    -0.3161810
  C        1.8702590     1.2384050     1.3961810
  C        1.6932100    -1.2084810     1.4940670
  C       -1.3340060     1.3908220    -0.1017950
  C       -2.6674560     1.1993540     0.3271550
  C       -2.9984720    -0.1352680     0.4414500
  H        2.0840190     2.0584320     0.7119160
  H        2.6656140     1.1849010     2.1428720
  H        0.9115380     1.4151000     1.9054530
  H        1.7293810    -2.1000160     0.8695980
  H        0.7471110    -1.1811200     2.0534300
  H        2.5234680    -1.2398400     2.2034110
  H       -0.8950471     2.3477302    -0.3888850
  H       -3.3646430     2.0039100     0.5365790
  H       -3.9505650    -0.5636820     0.7303990
units angstrom
no_reorient  #important for SAPT in psi4, default
symmetry c1  #important for SAPT in psi4, default
}

set PROPERTIES_ORIGIN ["COM"]
properties('MP2/aug-cc-pvtz', properties = ['dipole'])
--------------------------------------------------------------------------

    Molecular point group: c1
  Charge       = 0
  Multiplicity = 1
  Basis Set: AUG-CC-PVTZ
    Blend: AUG-CC-PVTZ
  Basis Set: (AUG-CC-PVTZ AUX)
    Blend: AUG-CC-PVTZ-JKFIT

    Orbital Energies [Eh]
    ---------------------

    Doubly Occupied:

       1A    -92.208313     2A    -92.016148     3A    -20.549747
       4A    -20.549346     5A    -15.606619     6A    -11.298838
       7A    -11.295492     8A    -11.277175     9A    -11.271704
      10A    -11.270669    11A    -11.264229    12A     -9.172467
      13A     -9.015660    14A     -6.857575    15A     -6.857324
      16A     -6.856946    17A     -6.696495    18A     -6.695967
      19A     -6.695208    20A     -1.455804    21A     -1.339956
      22A     -1.252787    23A     -1.201229    24A     -1.031422
      25A     -1.016918    26A     -0.981544    27A     -0.946062
      28A     -0.853305    29A     -0.786263    30A     -0.752696
      31A     -0.726978    32A     -0.703770    33A     -0.662018
      34A     -0.658680    35A     -0.627867    36A     -0.616165
      37A     -0.587589    38A     -0.579045    39A     -0.572131
      40A     -0.563782    41A     -0.549008    42A     -0.541721
      43A     -0.509564    44A     -0.500905    45A     -0.497575
      46A     -0.473092    47A     -0.467960    48A     -0.417324
      49A     -0.372315    50A     -0.354032

  @DF-RHF Final Energy: -1231.78844800411252

   => Energetics <=

    Nuclear Repulsion Energy =            892.3960070936708462
    One-Electron Energy =               -3468.2580496995442445
    Two-Electron Energy =                1344.0735946017607603
    Total Energy =                      -1231.7884480041125244
  Basis Set: (AUG-CC-PVTZ AUX)
    Blend: AUG-CC-PVTZ-RI
    Molecular point group: c1

    Geometry (in Angstrom), charge = 0, multiplicity = 1:

       Center              X                  Y                   Z               Mass
    ------------   -----------------  -----------------  -----------------  -----------------
         S            1.018351903748     0.012751866684    -0.716890296750    31.972071174400
         S           -1.683101096252    -1.145577133316     0.068327703250    31.972071174400
         O            1.146944903748    -1.321667133316    -1.300022296750    15.994914619570
         O            1.398803903748     1.234149866684    -1.421584296750    15.994914619570
         N            1.891134903748    -0.003149133316     0.709165703250    14.003074004430
         C           -0.673131096252     0.207590866684    -0.259468296750    12.000000000000
         C            1.883256903748     1.258637866684     1.452893703250    12.000000000000
         C            1.706207903748    -1.188248133316     1.550779703250    12.000000000000
         C           -1.321008096252     1.411054866684    -0.045082296750    12.000000000000
         C           -2.654458096252     1.219586866684     0.383867703250    12.000000000000
         C           -2.985474096252    -0.115035133316     0.498162703250    12.000000000000
         H            2.097016903748     2.078664866684     0.768628703250     1.007825032230
         H            2.678611903748     1.205133866684     2.199584703250     1.007825032230
         H            0.924535903748     1.435332866684     1.962165703250     1.007825032230
         H            1.742378903748    -2.079783133316     0.926310703250     1.007825032230
         H            0.760108903748    -1.160887133316     2.110142703250     1.007825032230
         H            2.536465903748    -1.219607133316     2.260123703250     1.007825032230
         H           -0.882049196252     2.367963066684    -0.332172296750     1.007825032230
         H           -3.351645096252     2.024142866684     0.593291703250     1.007825032230
         H           -3.937567096252    -0.543449133316     0.787111703250     1.007825032230

  Basis Set: AUG-CC-PVTZ
    Blend: AUG-CC-PVTZ
  Basis Set: (AUG-CC-PVTZ AUX)
    Blend: AUG-CC-PVTZ-JKFIT
	 Reference Energy          =   -1231.7884480041125244 [Eh]
	 Singles Energy            =      -0.0000000000000000 [Eh]
	 Same-Spin Energy          =      -0.5862408365301313 [Eh]
	 Opposite-Spin Energy      =      -1.7441726761437510 [Eh]
	 Correlation Energy        =      -2.3304135126738821 [Eh]
	 Total Energy              =   -1234.1188615167864100 [Eh]

	 ================> DF-SCS-MP2 Energies <==================
	-----------------------------------------------------------
	 SCS Same-Spin Scale       =       0.3333333333333333 [-]
	 SCS Opposite-Spin Scale   =       1.2000000000000000 [-]
	 SCS Same-Spin Energy      =      -0.1954136121767104 [Eh]
	 SCS Opposite-Spin Energy  =      -2.0930072113725013 [Eh]
	 SCS Correlation Energy    =      -2.2884208235492118 [Eh]
	 SCS Total Energy          =   -1234.0768688276616558 [Eh]
	-----------------------------------------------------------

  Dipole Moment: [D]
     X:    -2.5945      Y:     0.7425      Z:     4.7027     Total:     5.4220

*** Psi4 exiting successfully. Buy a developer a beer!
