                               Psi4 1.3.2 release

  ==> Input File <==

--------------------------------------------------------------------------
#psi4
#
memory 32 gb

molecule  {
0 1
  S        1.0053540    -0.0074810    -0.7736030
  S       -1.6960990    -1.1658100     0.0116150
  O        1.1339470    -1.3419000    -1.3567350
  O        1.3858060     1.2139170    -1.4782970
  N        1.8781370    -0.0233820     0.6524530
  C       -0.6861290     0.1873580    -0.3161810
  C        1.8702590     1.2384050     1.3961810
  C        1.6932100    -1.2084810     1.4940670
  C       -1.3617881     1.3904955    -0.1978577
  C       -2.6674560     1.1993540     0.3271550
  C       -2.9984720    -0.1352680     0.4414500
  H        2.0840190     2.0584320     0.7119160
  H        2.6656140     1.1849010     2.1428720
  H        0.9115380     1.4151000     1.9054530
  H        1.7293810    -2.1000160     0.8695980
  H        0.7471110    -1.1811200     2.0534300
  H        2.5234680    -1.2398400     2.2034110
  H       -0.8634200     2.3493520    -0.2940320
  H       -3.3646430     2.0039100     0.5365790
  H       -3.9505650    -0.5636820     0.7303990
units angstrom
no_reorient  #important for SAPT in psi4, default
symmetry c1  #important for SAPT in psi4, default
}

set PROPERTIES_ORIGIN ["COM"]
properties('MP2/aug-cc-pvtz', properties = ['dipole'])
--------------------------------------------------------------------------

    Molecular point group: c1
  Charge       = 0
  Multiplicity = 1
  Basis Set: AUG-CC-PVTZ
    Blend: AUG-CC-PVTZ
  Basis Set: (AUG-CC-PVTZ AUX)
    Blend: AUG-CC-PVTZ-JKFIT

    Orbital Energies [Eh]
    ---------------------

    Doubly Occupied:

       1A    -92.208352     2A    -92.015805     3A    -20.549708
       4A    -20.549408     5A    -15.606676     6A    -11.299109
       7A    -11.295404     8A    -11.277992     9A    -11.272384
      10A    -11.270861    11A    -11.264738    12A     -9.172520
      13A     -9.015348    14A     -6.857631    15A     -6.857373
      16A     -6.856996    17A     -6.696189    18A     -6.695656
      19A     -6.694894    20A     -1.455848    21A     -1.339974
      22A     -1.252984    23A     -1.200500    24A     -1.031190
      25A     -1.016408    26A     -0.981933    27A     -0.946369
      28A     -0.853468    29A     -0.786011    30A     -0.753377
      31A     -0.726987    32A     -0.703850    33A     -0.662162
      34A     -0.658827    35A     -0.627191    36A     -0.616320
      37A     -0.587358    38A     -0.579718    39A     -0.572395
      40A     -0.564034    41A     -0.549211    42A     -0.542085
      43A     -0.509264    44A     -0.500873    45A     -0.497382
      46A     -0.473102    47A     -0.468387    48A     -0.417255
      49A     -0.371702    50A     -0.354095

  @DF-RHF Final Energy: -1231.78708735622445

   => Energetics <=

    Nuclear Repulsion Energy =            892.0979367479993698
    One-Electron Energy =               -3467.6554306194898345
    Two-Electron Energy =                1343.7704065152659041
    Total Energy =                      -1231.7870873562244469
  Basis Set: (AUG-CC-PVTZ AUX)
    Blend: AUG-CC-PVTZ-RI
    Molecular point group: c1

    Geometry (in Angstrom), charge = 0, multiplicity = 1:

       Center              X                  Y                   Z               Mass
    ------------   -----------------  -----------------  -----------------  -----------------
         S            1.019930431621     0.012763821762    -0.711355658930    31.972071174400
         S           -1.681522568379    -1.145565178238     0.073862341070    31.972071174400
         O            1.148523431621    -1.321655178238    -1.294487658930    15.994914619570
         O            1.400382431621     1.234161821762    -1.416049658930    15.994914619570
         N            1.892713431621    -0.003137178238     0.714700341070    14.003074004430
         C           -0.671552568379     0.207602821762    -0.253933658930    12.000000000000
         C            1.884835431621     1.258649821762     1.458428341070    12.000000000000
         C            1.707786431621    -1.188236178238     1.556314341070    12.000000000000
         C           -1.347211668379     1.410740321762    -0.135610358930    12.000000000000
         C           -2.652879568379     1.219598821762     0.389402341070    12.000000000000
         C           -2.983895568379    -0.115023178238     0.503697341070    12.000000000000
         H            2.098595431621     2.078676821762     0.774163341070     1.007825032230
         H            2.680190431621     1.205145821762     2.205119341070     1.007825032230
         H            0.926114431621     1.435344821762     1.967700341070     1.007825032230
         H            1.743957431621    -2.079771178238     0.931845341070     1.007825032230
         H            0.761687431621    -1.160875178238     2.115677341070     1.007825032230
         H            2.538044431621    -1.219595178238     2.265658341070     1.007825032230
         H           -0.848843568379     2.369596821762    -0.231784658930     1.007825032230
         H           -3.350066568379     2.024154821762     0.598826341070     1.007825032230
         H           -3.935988568379    -0.543437178238     0.792646341070     1.007825032230

  Basis Set: AUG-CC-PVTZ
    Blend: AUG-CC-PVTZ
  Basis Set: (AUG-CC-PVTZ AUX)
    Blend: AUG-CC-PVTZ-JKFIT
	 Reference Energy          =   -1231.7870873562244469 [Eh]
	 Singles Energy            =      -0.0000000000000000 [Eh]
	 Same-Spin Energy          =      -0.5860603883014559 [Eh]
	 Opposite-Spin Energy      =      -1.7441361053807567 [Eh]
	 Correlation Energy        =      -2.3301964936822124 [Eh]
	 Total Energy              =   -1234.1172838499066984 [Eh]

	 ================> DF-SCS-MP2 Energies <==================
	-----------------------------------------------------------
	 SCS Same-Spin Scale       =       0.3333333333333333 [-]
	 SCS Opposite-Spin Scale   =       1.2000000000000000 [-]
	 SCS Same-Spin Energy      =      -0.1953534627671520 [Eh]
	 SCS Opposite-Spin Energy  =      -2.0929633264569079 [Eh]
	 SCS Correlation Energy    =      -2.2883167892240599 [Eh]
	 SCS Total Energy          =   -1234.0754041454486014 [Eh]
	-----------------------------------------------------------

  Dipole Moment: [D]
     X:    -2.5474      Y:     0.7455      Z:     4.8147     Total:     5.4978

*** Psi4 exiting successfully. Buy a developer a beer!
