                               Psi4 1.4a2.dev612

  ==> Input File <==

--------------------------------------------------------------------------
#psi4
#
memory 32 gb

molecule  {
0 1
  O        2.3713340    -0.0431960     0.0348750
  N        0.3955610    -1.1626000    -0.0589710
  C       -1.7488560    -0.0105870    -0.3076690
  C       -1.0790680     1.2063820     0.3205530
  C       -1.0433070    -1.2763970     0.1538630
  C        0.3892438     1.2849368    -0.3950566
  C        1.1404240    -0.0102390    -0.0198870
  H       -2.8074580    -0.0696450    -0.0318610
  H       -1.6959720     0.0599610    -1.4006240
  H       -1.1144190     1.1154600     1.4138390
  H       -1.6138590     2.1267960     0.0620980
  H       -1.2653590    -1.4521000     1.2170140
  H       -1.4050610    -2.1469230    -0.4038060
  H        0.9414700     2.0498950     0.4019050
  H        0.4084350     1.5789030    -1.2051520
  H        0.9624730    -1.9950670     0.0738380
units angstrom
no_reorient  #important for SAPT in psi4, default
symmetry c1  #important for SAPT in psi4, default
}

set PROPERTIES_ORIGIN ["COM"]
properties('MP2/aug-cc-pvtz', properties = ['dipole'])
--------------------------------------------------------------------------

    Molecular point group: c1
  Charge       = 0
  Multiplicity = 1
  Basis Set: AUG-CC-PVTZ
    Blend: AUG-CC-PVTZ
  Basis Set: (AUG-CC-PVTZ AUX)
    Blend: AUG-CC-PVTZ-JKFIT

    Orbital Energies [Eh]
    ---------------------

    Doubly Occupied:

       1A    -20.512892     2A    -15.583315     3A    -11.350027
       4A    -11.278205     5A    -11.246166     6A    -11.238110
       7A    -11.237900     8A     -1.366787     9A     -1.232182
      10A     -1.080539    11A     -1.018039    12A     -0.905141
      13A     -0.836507    14A     -0.778595    15A     -0.691121
      16A     -0.667379    17A     -0.642692    18A     -0.608202
      19A     -0.596216    20A     -0.585025    21A     -0.565928
      22A     -0.514230    23A     -0.502820    24A     -0.484521
      25A     -0.445354    26A     -0.408352    27A     -0.387933

  @DF-RHF Final Energy:  -323.94640225488803

   => Energetics <=

    Nuclear Repulsion Energy =            312.5968030577088257
    One-Electron Energy =               -1059.5580591150783221
    Two-Electron Energy =                 423.0148538024814684
    Total Energy =                       -323.9464022548880280
  Basis Set: (AUG-CC-PVTZ AUX)
    Blend: AUG-CC-PVTZ-RI
    Molecular point group: c1

    Geometry (in Angstrom), charge = 0, multiplicity = 1:

       Center              X                  Y                   Z               Mass
    ------------   -----------------  -----------------  -----------------  -----------------
         O            2.293403445978    -0.029422244989     0.066348856938    15.994914619570
         N            0.317630445978    -1.148826244989    -0.027497143062    14.003074004430
         C           -1.826786554022     0.003186755011    -0.276195143062    12.000000000000
         C           -1.156998554022     1.220155755011     0.352026856938    12.000000000000
         C           -1.121237554022    -1.262623244989     0.185336856938    12.000000000000
         C            0.311313245978     1.298710555011    -0.363582743062    12.000000000000
         C            1.062493445978     0.003534755011     0.011586856938    12.000000000000
         H           -2.885388554022    -0.055871244989    -0.000387143062     1.007825032230
         H           -1.773902554022     0.073734755011    -1.369150143062     1.007825032230
         H           -1.192349554022     1.129233755011     1.445312856938     1.007825032230
         H           -1.691789554022     2.140569755011     0.093571856938     1.007825032230
         H           -1.343289554022    -1.438326244989     1.248487856938     1.007825032230
         H           -1.482991554022    -2.133149244989    -0.372332143062     1.007825032230
         H            0.863539445978     2.063668755011     0.433378856938     1.007825032230
         H            0.330504445978     1.592676755011    -1.173678143062     1.007825032230
         H            0.884542445978    -1.981293244989     0.105311856938     1.007825032230

  Basis Set: AUG-CC-PVTZ
    Blend: AUG-CC-PVTZ
  Basis Set: (AUG-CC-PVTZ AUX)
    Blend: AUG-CC-PVTZ-JKFIT
	 Reference Energy          =    -323.9464022548880280 [Eh]
	 Singles Energy            =      -0.0000000000000000 [Eh]
	 Same-Spin Energy          =      -0.3345028782133199 [Eh]
	 Opposite-Spin Energy      =      -1.0950410583543140 [Eh]
	 Correlation Energy        =      -1.4295439365676339 [Eh]
	 Total Energy              =    -325.3759461914556823 [Eh]

	 ================> DF-SCS-MP2 Energies <==================
	-----------------------------------------------------------
	 SCS Same-Spin Scale       =       0.3333333333333333 [-]
	 SCS Opposite-Spin Scale   =       1.2000000000000000 [-]
	 SCS Same-Spin Energy      =      -0.1115009594044400 [Eh]
	 SCS Opposite-Spin Energy  =      -1.3140492700251767 [Eh]
	 SCS Correlation Energy    =      -1.4255502294296167 [Eh]
	 SCS Total Energy          =    -325.3719524843176600 [Eh]
	-----------------------------------------------------------

  Dipole Moment: [D]
     X:    -4.1824      Y:    -0.7068      Z:     0.0804     Total:     4.2425

*** Psi4 exiting successfully. Buy a developer a beer!
