                               Psi4 1.4a2.dev612

  ==> Input File <==

--------------------------------------------------------------------------
#psi4
#
memory 32 gb

molecule  {
0 1
  O        2.3713340    -0.0431960     0.0348750
  N        0.3955610    -1.1626000    -0.0589710
  C       -1.7488560    -0.0105870    -0.3076690
  C       -1.0790680     1.2063820     0.3205530
  C       -1.0433070    -1.2763970     0.1538630
  C        0.3758496     1.2918586    -0.1956257
  C        1.1404240    -0.0102390    -0.0198870
  H       -2.8074580    -0.0696450    -0.0318610
  H       -1.6959720     0.0599610    -1.4006240
  H       -1.1144190     1.1154600     1.4138390
  H       -1.6138590     2.1267960     0.0620980
  H       -1.2653590    -1.4521000     1.2170140
  H       -1.4050610    -2.1469230    -0.4038060
  H        0.9414700     2.0498950     0.4019050
  H        0.4084350     1.5789030    -1.2051520
  H        0.9624730    -1.9950670     0.0738380
units angstrom
no_reorient  #important for SAPT in psi4, default
symmetry c1  #important for SAPT in psi4, default
}

set PROPERTIES_ORIGIN ["COM"]
properties('MP2/aug-cc-pvtz', properties = ['dipole'])
--------------------------------------------------------------------------

    Molecular point group: c1
  Charge       = 0
  Multiplicity = 1
  Basis Set: AUG-CC-PVTZ
    Blend: AUG-CC-PVTZ
  Basis Set: (AUG-CC-PVTZ AUX)
    Blend: AUG-CC-PVTZ-JKFIT

    Orbital Energies [Eh]
    ---------------------

    Doubly Occupied:

       1A    -20.510545     2A    -15.581828     3A    -11.346052
       4A    -11.278162     5A    -11.240616     6A    -11.239445
       7A    -11.237323     8A     -1.365632     9A     -1.231769
      10A     -1.086313    11A     -1.018058    12A     -0.897559
      13A     -0.842067    14A     -0.757201    15A     -0.692401
      16A     -0.651291    17A     -0.640321    18A     -0.612550
      19A     -0.593211    20A     -0.588777    21A     -0.570169
      22A     -0.505377    23A     -0.497974    24A     -0.490976
      25A     -0.477974    26A     -0.410912    27A     -0.386831

  @DF-RHF Final Energy:  -324.02987238639560

   => Energetics <=

    Nuclear Repulsion Energy =            313.3756908113678605
    One-Electron Energy =               -1061.3084592061748026
    Two-Electron Energy =                 423.9028960084114033
    Total Energy =                       -324.0298723863955956
  Basis Set: (AUG-CC-PVTZ AUX)
    Blend: AUG-CC-PVTZ-RI
    Molecular point group: c1

    Geometry (in Angstrom), charge = 0, multiplicity = 1:

       Center              X                  Y                   Z               Mass
    ------------   -----------------  -----------------  -----------------  -----------------
         O            2.295025864201    -0.030260671655     0.042192108026    15.994914619570
         N            0.319252864201    -1.149664671655    -0.051653891974    14.003074004430
         C           -1.825164135799     0.002348328345    -0.300351891974    12.000000000000
         C           -1.155376135799     1.219317328345     0.327870108026    12.000000000000
         C           -1.119615135799    -1.263461671655     0.161180108026    12.000000000000
         C            0.299541464201     1.304793928345    -0.188308591974    12.000000000000
         C            1.064115864201     0.002696328345    -0.012569891974    12.000000000000
         H           -2.883766135799    -0.056709671655    -0.024543891974     1.007825032230
         H           -1.772280135799     0.072896328345    -1.393306891974     1.007825032230
         H           -1.190727135799     1.128395328345     1.421156108026     1.007825032230
         H           -1.690167135799     2.139731328345     0.069415108026     1.007825032230
         H           -1.341667135799    -1.439164671655     1.224331108026     1.007825032230
         H           -1.481369135799    -2.133987671655    -0.396488891974     1.007825032230
         H            0.865161864201     2.062830328345     0.409222108026     1.007825032230
         H            0.332126864201     1.591838328345    -1.197834891974     1.007825032230
         H            0.886164864201    -1.982131671655     0.081155108026     1.007825032230

  Basis Set: AUG-CC-PVTZ
    Blend: AUG-CC-PVTZ
  Basis Set: (AUG-CC-PVTZ AUX)
    Blend: AUG-CC-PVTZ-JKFIT
	 Reference Energy          =    -324.0298723863955956 [Eh]
	 Singles Energy            =      -0.0000000000000000 [Eh]
	 Same-Spin Energy          =      -0.3337306312593507 [Eh]
	 Opposite-Spin Energy      =      -1.0913137526987478 [Eh]
	 Correlation Energy        =      -1.4250443839580984 [Eh]
	 Total Energy              =    -325.4549167703536909 [Eh]

	 ================> DF-SCS-MP2 Energies <==================
	-----------------------------------------------------------
	 SCS Same-Spin Scale       =       0.3333333333333333 [-]
	 SCS Opposite-Spin Scale   =       1.2000000000000000 [-]
	 SCS Same-Spin Energy      =      -0.1112435437531169 [Eh]
	 SCS Opposite-Spin Energy  =      -1.3095765032384972 [Eh]
	 SCS Correlation Energy    =      -1.4208200469916141 [Eh]
	 SCS Total Energy          =    -325.4506924333871893 [Eh]
	-----------------------------------------------------------

  Dipole Moment: [D]
     X:    -4.2205      Y:    -0.5927      Z:     0.1317     Total:     4.2639

*** Psi4 exiting successfully. Buy a developer a beer!
