                               Psi4 1.4a2.dev612

  ==> Input File <==

--------------------------------------------------------------------------
#psi4
#
memory 32 gb

molecule  {
0 1
  O        2.3713340    -0.0431960     0.0348750
  N        0.3955610    -1.1626000    -0.0589710
  C       -1.7488560    -0.0105870    -0.3076690
  C       -1.0790680     1.2063820     0.3205530
  C       -1.0433070    -1.2763970     0.1538630
  C        0.3858953     1.2866672    -0.3451989
  C        1.1404240    -0.0102390    -0.0198870
  H       -2.8074580    -0.0696450    -0.0318610
  H       -1.6959720     0.0599610    -1.4006240
  H       -1.1144190     1.1154600     1.4138390
  H       -1.6138590     2.1267960     0.0620980
  H       -1.2653590    -1.4521000     1.2170140
  H       -1.4050610    -2.1469230    -0.4038060
  H        0.9414700     2.0498950     0.4019050
  H        0.4084350     1.5789030    -1.2051520
  H        0.9624730    -1.9950670     0.0738380
units angstrom
no_reorient  #important for SAPT in psi4, default
symmetry c1  #important for SAPT in psi4, default
}

set PROPERTIES_ORIGIN ["COM"]
properties('MP2/aug-cc-pvtz', properties = ['dipole'])
--------------------------------------------------------------------------

    Molecular point group: c1
  Charge       = 0
  Multiplicity = 1
  Basis Set: AUG-CC-PVTZ
    Blend: AUG-CC-PVTZ
  Basis Set: (AUG-CC-PVTZ AUX)
    Blend: AUG-CC-PVTZ-JKFIT

    Orbital Energies [Eh]
    ---------------------

    Doubly Occupied:

       1A    -20.512161     2A    -15.582821     3A    -11.348369
       4A    -11.278104     5A    -11.244394     6A    -11.238154
       7A    -11.236989     8A     -1.366385     9A     -1.231972
      10A     -1.081663    11A     -1.017493    12A     -0.902193
      13A     -0.837683    14A     -0.771686    15A     -0.691168
      16A     -0.661928    17A     -0.642959    18A     -0.609440
      19A     -0.595364    20A     -0.585819    21A     -0.567012
      22A     -0.513010    23A     -0.502495    24A     -0.486471
      25A     -0.454001    26A     -0.409419    27A     -0.387546

  @DF-RHF Final Energy:  -323.98067097424911

   => Energetics <=

    Nuclear Repulsion Energy =            312.8135662099844012
    One-Electron Energy =               -1060.0750770161555465
    Two-Electron Energy =                 423.2808398319220373
    Total Energy =                       -323.9806709742491080
  Basis Set: (AUG-CC-PVTZ AUX)
    Blend: AUG-CC-PVTZ-RI
    Molecular point group: c1

    Geometry (in Angstrom), charge = 0, multiplicity = 1:

       Center              X                  Y                   Z               Mass
    ------------   -----------------  -----------------  -----------------  -----------------
         O            2.293809044477    -0.029631845599     0.060309672738    15.994914619570
         N            0.318036044477    -1.149035845599    -0.033536327262    14.003074004430
         C           -1.826380955523     0.002977154401    -0.282234327262    12.000000000000
         C           -1.156592955523     1.219946154401     0.345987672738    12.000000000000
         C           -1.120831955523    -1.262832845599     0.179297672738    12.000000000000
         C            0.308370344477     1.300231354401    -0.319764227262    12.000000000000
         C            1.062899044477     0.003325154401     0.005547672738    12.000000000000
         H           -2.884982955523    -0.056080845599    -0.006426327262     1.007825032230
         H           -1.773496955523     0.073525154401    -1.375189327262     1.007825032230
         H           -1.191943955523     1.129024154401     1.439273672738     1.007825032230
         H           -1.691383955523     2.140360154401     0.087532672738     1.007825032230
         H           -1.342883955523    -1.438535845599     1.242448672738     1.007825032230
         H           -1.482585955523    -2.133358845599    -0.378371327262     1.007825032230
         H            0.863945044477     2.063459154401     0.427339672738     1.007825032230
         H            0.330910044477     1.592467154401    -1.179717327262     1.007825032230
         H            0.884948044477    -1.981502845599     0.099272672738     1.007825032230

  Basis Set: AUG-CC-PVTZ
    Blend: AUG-CC-PVTZ
  Basis Set: (AUG-CC-PVTZ AUX)
    Blend: AUG-CC-PVTZ-JKFIT
	 Reference Energy          =    -323.9806709742491080 [Eh]
	 Singles Energy            =      -0.0000000000000000 [Eh]
	 Same-Spin Energy          =      -0.3341562435848932 [Eh]
	 Opposite-Spin Energy      =      -1.0936200914894647 [Eh]
	 Correlation Energy        =      -1.4277763350743577 [Eh]
	 Total Energy              =    -325.4084473093234919 [Eh]

	 ================> DF-SCS-MP2 Energies <==================
	-----------------------------------------------------------
	 SCS Same-Spin Scale       =       0.3333333333333333 [-]
	 SCS Opposite-Spin Scale   =       1.2000000000000000 [-]
	 SCS Same-Spin Energy      =      -0.1113854145282977 [Eh]
	 SCS Opposite-Spin Energy  =      -1.3123441097873576 [Eh]
	 SCS Correlation Energy    =      -1.4237295243156554 [Eh]
	 SCS Total Energy          =    -325.4044004985647689 [Eh]
	-----------------------------------------------------------

  Dipole Moment: [D]
     X:    -4.1905      Y:    -0.6687      Z:     0.0848     Total:     4.2444

*** Psi4 exiting successfully. Buy a developer a beer!
