                               Psi4 1.4a2.dev612

  ==> Input File <==

--------------------------------------------------------------------------
#psi4
#
memory 32 gb

molecule  {
0 1
  O        2.3713340    -0.0431960     0.0348750
  N        0.3955610    -1.1626000    -0.0589710
  C       -1.7488560    -0.0105870    -0.3076690
  C       -1.0790680     1.2063820     0.3205530
  C       -1.0433070    -1.2763970     0.1538630
  C        0.3825467     1.2883977    -0.2953412
  C        1.1404240    -0.0102390    -0.0198870
  H       -2.8074580    -0.0696450    -0.0318610
  H       -1.6959720     0.0599610    -1.4006240
  H       -1.1144190     1.1154600     1.4138390
  H       -1.6138590     2.1267960     0.0620980
  H       -1.2653590    -1.4521000     1.2170140
  H       -1.4050610    -2.1469230    -0.4038060
  H        0.9414700     2.0498950     0.4019050
  H        0.4084350     1.5789030    -1.2051520
  H        0.9624730    -1.9950670     0.0738380
units angstrom
no_reorient  #important for SAPT in psi4, default
symmetry c1  #important for SAPT in psi4, default
}

set PROPERTIES_ORIGIN ["COM"]
properties('MP2/aug-cc-pvtz', properties = ['dipole'])
--------------------------------------------------------------------------

    Molecular point group: c1
  Charge       = 0
  Multiplicity = 1
  Basis Set: AUG-CC-PVTZ
    Blend: AUG-CC-PVTZ
  Basis Set: (AUG-CC-PVTZ AUX)
    Blend: AUG-CC-PVTZ-JKFIT

    Orbital Energies [Eh]
    ---------------------

    Doubly Occupied:

       1A    -20.511538     2A    -15.582415     3A    -11.347164
       4A    -11.278064     5A    -11.242853     6A    -11.238502
       7A    -11.236531     8A     -1.366067     9A     -1.231838
      10A     -1.083017    11A     -1.017390    12A     -0.900039
      13A     -0.839024    14A     -0.765670    15A     -0.691432
      16A     -0.656817    17A     -0.642836    18A     -0.610708
      19A     -0.594408    20A     -0.586765    21A     -0.568150
      22A     -0.510706    23A     -0.501997    24A     -0.488289
      25A     -0.462502    26A     -0.410168    27A     -0.387236

  @DF-RHF Final Energy:  -324.00502871286039

   => Energetics <=

    Nuclear Repulsion Energy =            313.0183683621505679
    One-Electron Energy =               -1060.5425499837381267
    Two-Electron Energy =                 423.5191529087271647
    Total Energy =                       -324.0050287128603941
  Basis Set: (AUG-CC-PVTZ AUX)
    Blend: AUG-CC-PVTZ-RI
    Molecular point group: c1

    Geometry (in Angstrom), charge = 0, multiplicity = 1:

       Center              X                  Y                   Z               Mass
    ------------   -----------------  -----------------  -----------------  -----------------
         O            2.294214655089    -0.029841458322     0.054270488538    15.994914619570
         N            0.318441655089    -1.149245458322    -0.039575511462    14.003074004430
         C           -1.825975344911     0.002767541678    -0.288273511462    12.000000000000
         C           -1.156187344911     1.219736541678     0.339948488538    12.000000000000
         C           -1.120426344911    -1.263042458322     0.173258488538    12.000000000000
         C            0.305427355089     1.301752241678    -0.275945711462    12.000000000000
         C            1.063304655089     0.003115541678    -0.000491511462    12.000000000000
         H           -2.884577344911    -0.056290458322    -0.012465511462     1.007825032230
         H           -1.773091344911     0.073315541678    -1.381228511462     1.007825032230
         H           -1.191538344911     1.128814541678     1.433234488538     1.007825032230
         H           -1.690978344911     2.140150541678     0.081493488538     1.007825032230
         H           -1.342478344911    -1.438745458322     1.236409488538     1.007825032230
         H           -1.482180344911    -2.133568458322    -0.384410511462     1.007825032230
         H            0.864350655089     2.063249541678     0.421300488538     1.007825032230
         H            0.331315655089     1.592257541678    -1.185756511462     1.007825032230
         H            0.885353655089    -1.981712458322     0.093233488538     1.007825032230

  Basis Set: AUG-CC-PVTZ
    Blend: AUG-CC-PVTZ
  Basis Set: (AUG-CC-PVTZ AUX)
    Blend: AUG-CC-PVTZ-JKFIT
	 Reference Energy          =    -324.0050287128603941 [Eh]
	 Singles Energy            =      -0.0000000000000000 [Eh]
	 Same-Spin Energy          =      -0.3339150357045898 [Eh]
	 Opposite-Spin Energy      =      -1.0925314704386708 [Eh]
	 Correlation Energy        =      -1.4264465061432605 [Eh]
	 Total Energy              =    -325.4314752190036302 [Eh]

	 ================> DF-SCS-MP2 Energies <==================
	-----------------------------------------------------------
	 SCS Same-Spin Scale       =       0.3333333333333333 [-]
	 SCS Opposite-Spin Scale   =       1.2000000000000000 [-]
	 SCS Same-Spin Energy      =      -0.1113050119015299 [Eh]
	 SCS Opposite-Spin Energy  =      -1.3110377645264049 [Eh]
	 SCS Correlation Energy    =      -1.4223427764279348 [Eh]
	 SCS Total Energy          =    -325.4273714892883049 [Eh]
	-----------------------------------------------------------

  Dipole Moment: [D]
     X:    -4.1992      Y:    -0.6372      Z:     0.0949     Total:     4.2483

*** Psi4 exiting successfully. Buy a developer a beer!
