                               Psi4 1.4a2.dev612

  ==> Input File <==

--------------------------------------------------------------------------
#psi4
#
memory 32 gb

molecule  {
0 1
  O        2.3713340    -0.0431960     0.0348750
  N        0.3955610    -1.1626000    -0.0589710
  C       -1.7488560    -0.0105870    -0.3076690
  C       -1.0790680     1.2063820     0.3205530
  C       -1.0433070    -1.2763970     0.1538630
  C        0.3725010     1.2935890    -0.1457680
  C        1.1404240    -0.0102390    -0.0198870
  H       -2.8074580    -0.0696450    -0.0318610
  H       -1.6959720     0.0599610    -1.4006240
  H       -1.1144190     1.1154600     1.4138390
  H       -1.6138590     2.1267960     0.0620980
  H       -1.2653590    -1.4521000     1.2170140
  H       -1.4050610    -2.1469230    -0.4038060
  H        0.9414700     2.0498950     0.4019050
  H        0.4084350     1.5789030    -1.2051520
  H        0.9624730    -1.9950670     0.0738380
units angstrom
no_reorient  #important for SAPT in psi4, default
symmetry c1  #important for SAPT in psi4, default
}

set PROPERTIES_ORIGIN ["COM"]
properties('MP2/aug-cc-pvtz', properties = ['dipole'])
--------------------------------------------------------------------------

    Molecular point group: c1
  Charge       = 0
  Multiplicity = 1
  Basis Set: AUG-CC-PVTZ
    Blend: AUG-CC-PVTZ
  Basis Set: (AUG-CC-PVTZ AUX)
    Blend: AUG-CC-PVTZ-JKFIT

    Orbital Energies [Eh]
    ---------------------

    Doubly Occupied:

       1A    -20.510151     2A    -15.581633     3A    -11.346113
       4A    -11.278299     5A    -11.240371     6A    -11.239675
       7A    -11.238501     8A     -1.365496     9A     -1.231822
      10A     -1.088215    11A     -1.018674    12A     -0.896991
      13A     -0.843705    14A     -0.754786    15A     -0.693020
      16A     -0.650907    17A     -0.638879    18A     -0.612798
      19A     -0.594526    20A     -0.588664    21A     -0.570852
      22A     -0.504780    23A     -0.497004    24A     -0.487509
      25A     -0.483888    26A     -0.410945    27A     -0.386724

  @DF-RHF Final Energy:  -324.03265141360123

   => Energetics <=

    Nuclear Repulsion Energy =            313.5207499946059215
    One-Electron Energy =               -1061.5969407981681343
    Two-Electron Energy =                 424.0435393899609835
    Total Energy =                       -324.0326514136012293
  Basis Set: (AUG-CC-PVTZ AUX)
    Blend: AUG-CC-PVTZ-RI
    Molecular point group: c1

    Geometry (in Angstrom), charge = 0, multiplicity = 1:

       Center              X                  Y                   Z               Mass
    ------------   -----------------  -----------------  -----------------  -----------------
         O            2.295431474813    -0.030470272265     0.036152923826    15.994914619570
         N            0.319658474813    -1.149874272265    -0.057693076174    14.003074004430
         C           -1.824758525187     0.002138727735    -0.306391076174    12.000000000000
         C           -1.154970525187     1.219107727735     0.321830923826    12.000000000000
         C           -1.119209525187    -1.263671272265     0.155140923826    12.000000000000
         C            0.296598474813     1.306314727735    -0.144490076174    12.000000000000
         C            1.064521474813     0.002486727735    -0.018609076174    12.000000000000
         H           -2.883360525187    -0.056919272265    -0.030583076174     1.007825032230
         H           -1.771874525187     0.072686727735    -1.399346076174     1.007825032230
         H           -1.190321525187     1.128185727735     1.415116923826     1.007825032230
         H           -1.689761525187     2.139521727735     0.063375923826     1.007825032230
         H           -1.341261525187    -1.439374272265     1.218291923826     1.007825032230
         H           -1.480963525187    -2.134197272265    -0.402528076174     1.007825032230
         H            0.865567474813     2.062620727735     0.403182923826     1.007825032230
         H            0.332532474813     1.591628727735    -1.203874076174     1.007825032230
         H            0.886570474813    -1.982341272265     0.075115923826     1.007825032230

  Basis Set: AUG-CC-PVTZ
    Blend: AUG-CC-PVTZ
  Basis Set: (AUG-CC-PVTZ AUX)
    Blend: AUG-CC-PVTZ-JKFIT
	 Reference Energy          =    -324.0326514136012293 [Eh]
	 Singles Energy            =      -0.0000000000000000 [Eh]
	 Same-Spin Energy          =      -0.3337773537946103 [Eh]
	 Opposite-Spin Energy      =      -1.0911549088353785 [Eh]
	 Correlation Energy        =      -1.4249322626299887 [Eh]
	 Total Energy              =    -325.4575836762311951 [Eh]

	 ================> DF-SCS-MP2 Energies <==================
	-----------------------------------------------------------
	 SCS Same-Spin Scale       =       0.3333333333333333 [-]
	 SCS Opposite-Spin Scale   =       1.2000000000000000 [-]
	 SCS Same-Spin Energy      =      -0.1112591179315368 [Eh]
	 SCS Opposite-Spin Energy  =      -1.3093858906024540 [Eh]
	 SCS Correlation Energy    =      -1.4206450085339908 [Eh]
	 SCS Total Energy          =    -325.4532964221352245 [Eh]
	-----------------------------------------------------------

  Dipole Moment: [D]
     X:    -4.2341      Y:    -0.5788      Z:     0.1583     Total:     4.2764

*** Psi4 exiting successfully. Buy a developer a beer!
