                               Psi4 1.4a2.dev612

  ==> Input File <==

--------------------------------------------------------------------------
#psi4
#
memory 32 gb

molecule  {
0 1
  O        2.3713340    -0.0431960     0.0348750
  N        0.3955610    -1.1626000    -0.0589710
  C       -1.7488560    -0.0105870    -0.3076690
  C       -1.0790680     1.2063820     0.3205530
  C       -1.0433070    -1.2763970     0.1538630
  C        0.3791981     1.2901281    -0.2454834
  C        1.1404240    -0.0102390    -0.0198870
  H       -2.8074580    -0.0696450    -0.0318610
  H       -1.6959720     0.0599610    -1.4006240
  H       -1.1144190     1.1154600     1.4138390
  H       -1.6138590     2.1267960     0.0620980
  H       -1.2653590    -1.4521000     1.2170140
  H       -1.4050610    -2.1469230    -0.4038060
  H        0.9414700     2.0498950     0.4019050
  H        0.4084350     1.5789030    -1.2051520
  H        0.9624730    -1.9950670     0.0738380
units angstrom
no_reorient  #important for SAPT in psi4, default
symmetry c1  #important for SAPT in psi4, default
}

set PROPERTIES_ORIGIN ["COM"]
properties('MP2/aug-cc-pvtz', properties = ['dipole'])
--------------------------------------------------------------------------

    Molecular point group: c1
  Charge       = 0
  Multiplicity = 1
  Basis Set: AUG-CC-PVTZ
    Blend: AUG-CC-PVTZ
  Basis Set: (AUG-CC-PVTZ AUX)
    Blend: AUG-CC-PVTZ-JKFIT

    Orbital Energies [Eh]
    ---------------------

    Doubly Occupied:

       1A    -20.511004     2A    -15.582087     3A    -11.346396
       4A    -11.278084     5A    -11.241575     6A    -11.238941
       7A    -11.236654     8A     -1.365819     9A     -1.231772
      10A     -1.084574    11A     -1.017609    12A     -0.898539
      13A     -0.840496    14A     -0.760816    15A     -0.691857
      16A     -0.653074    17A     -0.641948    18A     -0.611812
      19A     -0.593504    20A     -0.587870    21A     -0.569240
      22A     -0.507633    23A     -0.500834    24A     -0.489960
      25A     -0.470610    26A     -0.410656    27A     -0.387000

  @DF-RHF Final Energy:  -324.02101102401451

   => Energetics <=

    Nuclear Repulsion Energy =            313.2070351743886363
    One-Electron Energy =               -1060.9553672931178880
    Two-Electron Energy =                 423.7273210947146822
    Total Energy =                       -324.0210110240145127
  Basis Set: (AUG-CC-PVTZ AUX)
    Blend: AUG-CC-PVTZ-RI
    Molecular point group: c1

    Geometry (in Angstrom), charge = 0, multiplicity = 1:

       Center              X                  Y                   Z               Mass
    ------------   -----------------  -----------------  -----------------  -----------------
         O            2.294620265701    -0.030051058932     0.048231292226    15.994914619570
         N            0.318847265701    -1.149455058932    -0.045614707774    14.003074004430
         C           -1.825569734299     0.002557941068    -0.294312707774    12.000000000000
         C           -1.155781734299     1.219526941068     0.333909292226    12.000000000000
         C           -1.120020734299    -1.263252058932     0.167219292226    12.000000000000
         C            0.302484365701     1.303273041068    -0.232127107774    12.000000000000
         C            1.063710265701     0.002905941068    -0.006530707774    12.000000000000
         H           -2.884171734299    -0.056500058932    -0.018504707774     1.007825032230
         H           -1.772685734299     0.073105941068    -1.387267707774     1.007825032230
         H           -1.191132734299     1.128604941068     1.427195292226     1.007825032230
         H           -1.690572734299     2.139940941068     0.075454292226     1.007825032230
         H           -1.342072734299    -1.438955058932     1.230370292226     1.007825032230
         H           -1.481774734299    -2.133778058932    -0.390449707774     1.007825032230
         H            0.864756265701     2.063039941068     0.415261292226     1.007825032230
         H            0.331721265701     1.592047941068    -1.191795707774     1.007825032230
         H            0.885759265701    -1.981922058932     0.087194292226     1.007825032230

  Basis Set: AUG-CC-PVTZ
    Blend: AUG-CC-PVTZ
  Basis Set: (AUG-CC-PVTZ AUX)
    Blend: AUG-CC-PVTZ-JKFIT
	 Reference Energy          =    -324.0210110240145127 [Eh]
	 Singles Energy            =      -0.0000000000000000 [Eh]
	 Same-Spin Energy          =      -0.3337747530039600 [Eh]
	 Opposite-Spin Energy      =      -1.0917667832016824 [Eh]
	 Correlation Energy        =      -1.4255415362056425 [Eh]
	 Total Energy              =    -325.4465525602201410 [Eh]

	 ================> DF-SCS-MP2 Energies <==================
	-----------------------------------------------------------
	 SCS Same-Spin Scale       =       0.3333333333333333 [-]
	 SCS Opposite-Spin Scale   =       1.2000000000000000 [-]
	 SCS Same-Spin Energy      =      -0.1112582510013200 [Eh]
	 SCS Opposite-Spin Energy  =      -1.3101201398420188 [Eh]
	 SCS Correlation Energy    =      -1.4213783908433388 [Eh]
	 SCS Total Energy          =    -325.4423894148578711 [Eh]
	-----------------------------------------------------------

  Dipole Moment: [D]
     X:    -4.2090      Y:    -0.6120      Z:     0.1105     Total:     4.2547

*** Psi4 exiting successfully. Buy a developer a beer!
