                               Psi4 1.3.2 release

  ==> Input File <==

--------------------------------------------------------------------------
#psi4
#
memory 32 gb

molecule  {
0 1
  O       -1.3945310     1.8555980     0.0000210
  O        2.9082060     0.2751580    -0.0000600
  N       -1.0895640    -0.4406340     0.0001970
  N        0.7349370     0.9985730     0.0002800
  C       -0.6489740     0.8800530    -0.0003070
  C       -0.2041810    -1.5011250     0.0000420
  C       -2.5282030    -0.6963170    -0.0000730
  C        1.1391180    -1.3434170     0.0000740
  C        1.7496683     0.0866781    -0.0002391
  H       -0.6762750    -2.4793460     0.0001770
  H       -2.8113470    -1.2573270     0.8936330
  H       -2.8107340    -1.2584070    -0.8933430
  H       -3.0286960     0.2691590    -0.0008180
  H        1.0742980     1.9581480     0.0003170
  H        1.8167570    -2.1872720    -0.0000870
units angstrom
no_reorient  #important for SAPT in psi4, default
symmetry c1  #important for SAPT in psi4, default
}

set PROPERTIES_ORIGIN ["COM"]
properties('MP2/aug-cc-pvtz', properties = ['dipole'])
--------------------------------------------------------------------------

    Molecular point group: c1
  Charge       = 0
  Multiplicity = 1
  Basis Set: AUG-CC-PVTZ
    Blend: AUG-CC-PVTZ
  Basis Set: (AUG-CC-PVTZ AUX)
    Blend: AUG-CC-PVTZ-JKFIT

    Orbital Energies [Eh]
    ---------------------

    Doubly Occupied:

       1A    -20.548934     2A    -20.546943     3A    -15.637583
       4A    -15.628670     5A    -11.421371     6A    -11.380106
       7A    -11.322719     8A    -11.286044     9A    -11.253488
      10A     -1.440116    11A     -1.417967    12A     -1.309873
      13A     -1.258824    14A     -1.073042    15A     -0.988171
      16A     -0.913700    17A     -0.882908    18A     -0.769827
      19A     -0.741125    20A     -0.695864    21A     -0.683774
      22A     -0.669490    23A     -0.647417    24A     -0.622178
      25A     -0.607347    26A     -0.603785    27A     -0.567856
      28A     -0.566002    29A     -0.494888    30A     -0.478398
      31A     -0.444666    32A     -0.443795    33A     -0.353292

  @DF-RHF Final Energy:  -451.65330066807019

   => Energetics <=

    Nuclear Repulsion Energy =            441.2209380233326215
    One-Electron Energy =               -1490.3481513850304054
    Two-Electron Energy =                 597.4739126936276534
    Total Energy =                       -451.6533006680701874
  Basis Set: (AUG-CC-PVTZ AUX)
    Blend: AUG-CC-PVTZ-RI
    Molecular point group: c1

    Geometry (in Angstrom), charge = 0, multiplicity = 1:

       Center              X                  Y                   Z               Mass
    ------------   -----------------  -----------------  -----------------  -----------------
         O           -1.448861815039     1.807909737459     0.000021821008    15.994914619570
         O            2.853875184961     0.227469737459    -0.000059178992    15.994914619570
         N           -1.143894815039    -0.488322262541     0.000197821008    14.003074004430
         N            0.680606184961     0.950884737459     0.000280821008    14.003074004430
         C           -0.703304815039     0.832364737459    -0.000306178992    12.000000000000
         C           -0.258511815039    -1.548813262541     0.000042821008    12.000000000000
         C           -2.582533815039    -0.744005262541    -0.000072178992    12.000000000000
         C            1.084787184961    -1.391105262541     0.000074821008    12.000000000000
         C            1.695337484961     0.038989837459    -0.000238278992    12.000000000000
         H           -0.730605815039    -2.527034262541     0.000177821008     1.007825032230
         H           -2.865677815039    -1.305015262541     0.893633821008     1.007825032230
         H           -2.865064815039    -1.306095262541    -0.893342178992     1.007825032230
         H           -3.083026815039     0.221470737459    -0.000817178992     1.007825032230
         H            1.019967184961     1.910459737459     0.000317821008     1.007825032230
         H            1.762426184961    -2.234960262541    -0.000086178992     1.007825032230

  Basis Set: AUG-CC-PVTZ
    Blend: AUG-CC-PVTZ
  Basis Set: (AUG-CC-PVTZ AUX)
    Blend: AUG-CC-PVTZ-JKFIT
	 Reference Energy          =    -451.6533006680701874 [Eh]
	 Singles Energy            =      -0.0000000000000000 [Eh]
	 Same-Spin Energy          =      -0.4563830209726205 [Eh]
	 Opposite-Spin Energy      =      -1.3823185255715189 [Eh]
	 Correlation Energy        =      -1.8387015465441394 [Eh]
	 Total Energy              =    -453.4920022146143310 [Eh]

	 ================> DF-SCS-MP2 Energies <==================
	-----------------------------------------------------------
	 SCS Same-Spin Scale       =       0.3333333333333333 [-]
	 SCS Opposite-Spin Scale   =       1.2000000000000000 [-]
	 SCS Same-Spin Energy      =      -0.1521276736575402 [Eh]
	 SCS Opposite-Spin Energy  =      -1.6587822306858226 [Eh]
	 SCS Correlation Energy    =      -1.8109099043433627 [Eh]
	 SCS Total Energy          =    -453.4642105724135490 [Eh]
	-----------------------------------------------------------

  Dipole Moment: [D]
     X:    -2.7718      Y:    -3.0720      Z:    -0.0010     Total:     4.1376

*** Psi4 exiting successfully. Buy a developer a beer!
