                               Psi4 1.3.2 release

  ==> Input File <==

--------------------------------------------------------------------------
#psi4
#
memory 32 gb

molecule  {
0 1
  O       -1.3945310     1.8555980     0.0000210
  O        2.9082060     0.2751580    -0.0000600
  N       -1.0895640    -0.4406340     0.0001970
  N        0.7349370     0.9985730     0.0002800
  C       -0.6489740     0.8800530    -0.0003070
  C       -0.2041810    -1.5011250     0.0000420
  C       -2.5282030    -0.6963170    -0.0000730
  C        1.1391180    -1.3434170     0.0000740
  C        1.7104040    -0.0052910    -0.0002190
  H       -0.6762750    -2.4793460     0.0001770
  H       -2.8113470    -1.2573270     0.8936330
  H       -2.8051794    -1.2656199    -0.8905103
  H       -3.0245060     0.2712908     0.0074259
  H        1.0742980     1.9581480     0.0003170
  H        1.8167570    -2.1872720    -0.0000870
units angstrom
no_reorient  #important for SAPT in psi4, default
symmetry c1  #important for SAPT in psi4, default
}

set PROPERTIES_ORIGIN ["COM"]
properties('MP2/aug-cc-pvtz', properties = ['dipole'])
--------------------------------------------------------------------------

    Molecular point group: c1
  Charge       = 0
  Multiplicity = 1
  Basis Set: AUG-CC-PVTZ
    Blend: AUG-CC-PVTZ
  Basis Set: (AUG-CC-PVTZ AUX)
    Blend: AUG-CC-PVTZ-JKFIT

    Orbital Energies [Eh]
    ---------------------

    Doubly Occupied:

       1A    -20.545535     2A    -20.538813     3A    -15.644365
       4A    -15.626582     5A    -11.418547     6A    -11.379850
       7A    -11.337116     8A    -11.290025     9A    -11.256160
      10A     -1.428403    11A     -1.388142    12A     -1.312352
      13A     -1.245665    14A     -1.091190    15A     -0.989683
      16A     -0.930713    17A     -0.872301    18A     -0.772066
      19A     -0.752103    20A     -0.699862    21A     -0.685154
      22A     -0.657795    23A     -0.644132    24A     -0.614823
      25A     -0.610666    26A     -0.602181    27A     -0.572307
      28A     -0.554189    29A     -0.499280    30A     -0.479997
      31A     -0.446143    32A     -0.433087    33A     -0.360605

  @DF-RHF Final Energy:  -451.66049406664479

   => Energetics <=

    Nuclear Repulsion Energy =            441.1952942198051346
    One-Electron Energy =               -1490.3519101405543097
    Two-Electron Energy =                 597.4961218541043309
    Total Energy =                       -451.6604940666447874
  Basis Set: (AUG-CC-PVTZ AUX)
    Blend: AUG-CC-PVTZ-RI
    Molecular point group: c1

    Geometry (in Angstrom), charge = 0, multiplicity = 1:

       Center              X                  Y                   Z               Mass
    ------------   -----------------  -----------------  -----------------  -----------------
         O           -1.445201548196     1.816706344157    -0.000068659871    15.994914619570
         O            2.857535451804     0.236266344157    -0.000149659871    15.994914619570
         N           -1.140234548196    -0.479525655843     0.000107340129    14.003074004430
         N            0.684266451804     0.959681344157     0.000190340129    14.003074004430
         C           -0.699644548196     0.841161344157    -0.000396659871    12.000000000000
         C           -0.254851548196    -1.540016655843    -0.000047659871    12.000000000000
         C           -2.578873548196    -0.735208655843    -0.000162659871    12.000000000000
         C            1.088447451804    -1.382308655843    -0.000015659871    12.000000000000
         C            1.659733451804    -0.044182655843    -0.000308659871    12.000000000000
         H           -0.726945548196    -2.518237655843     0.000087340129     1.007825032230
         H           -2.862017548196    -1.296218655843     0.893543340129     1.007825032230
         H           -2.855849948196    -1.304511555843    -0.890599959871     1.007825032230
         H           -3.075176548196     0.232399144157     0.007336240129     1.007825032230
         H            1.023627451804     1.919256344157     0.000227340129     1.007825032230
         H            1.766086451804    -2.226163655843    -0.000176659871     1.007825032230

  Basis Set: AUG-CC-PVTZ
    Blend: AUG-CC-PVTZ
  Basis Set: (AUG-CC-PVTZ AUX)
    Blend: AUG-CC-PVTZ-JKFIT
	 Reference Energy          =    -451.6604940666447874 [Eh]
	 Singles Energy            =      -0.0000000000000000 [Eh]
	 Same-Spin Energy          =      -0.4580640253367699 [Eh]
	 Opposite-Spin Energy      =      -1.3848316056179935 [Eh]
	 Correlation Energy        =      -1.8428956309547635 [Eh]
	 Total Energy              =    -453.5033896975995731 [Eh]

	 ================> DF-SCS-MP2 Energies <==================
	-----------------------------------------------------------
	 SCS Same-Spin Scale       =       0.3333333333333333 [-]
	 SCS Opposite-Spin Scale   =       1.2000000000000000 [-]
	 SCS Same-Spin Energy      =      -0.1526880084455900 [Eh]
	 SCS Opposite-Spin Energy  =      -1.6617979267415921 [Eh]
	 SCS Correlation Energy    =      -1.8144859351871820 [Eh]
	 SCS Total Energy          =    -453.4749800018319661 [Eh]
	-----------------------------------------------------------

  Dipole Moment: [D]
     X:    -3.2317      Y:    -3.5429      Z:     0.0046     Total:     4.7954

*** Psi4 exiting successfully. Buy a developer a beer!
