                               Psi4 1.4a3.dev225

  ==> Input File <==

--------------------------------------------------------------------------
#psi4
#
memory 32 gb

molecule  {
0 1
  O       -1.4350980    -1.8086910     0.0000000
  O        2.9075840    -0.3082450     0.0000000
  N       -1.0785060     0.4619330     0.0000000
  N        0.7249750    -1.0056720    -0.0000010
  C       -0.6197863    -0.8256217     0.0000000
  C       -0.1841290     1.5083600     0.0000000
  C       -2.5245930     0.6731660     0.0000000
  C        1.1582900     1.3329580     0.0000000
  C        1.7164880    -0.0081480     0.0000000
  H       -0.6338540     2.4967290    -0.0000010
  H       -2.9690000     0.2175100    -0.8862740
  H       -2.7140630     1.7465080     0.0000000
  H       -2.9689990     0.2175090     0.8862740
  H        1.0585810    -1.9665760     0.0000000
  H        1.8360540     2.1766110     0.0000000
units angstrom
no_reorient  #important for SAPT in psi4, default
symmetry c1  #important for SAPT in psi4, default
}

set PROPERTIES_ORIGIN ["COM"]
properties('MP2/aug-cc-pvtz', properties = ['dipole'])
--------------------------------------------------------------------------

    Molecular point group: c1
  Charge       = 0
  Multiplicity = 1
  Basis Set: AUG-CC-PVTZ
    Blend: AUG-CC-PVTZ
  Basis Set: (AUG-CC-PVTZ AUX)
    Blend: AUG-CC-PVTZ-JKFIT

    Orbital Energies [Eh]
    ---------------------

    Doubly Occupied:

       1A    -20.542382     2A    -20.532359     3A    -15.650173
       4A    -15.632499     5A    -11.414264     6A    -11.383053
       7A    -11.341160     8A    -11.294757     9A    -11.258172
      10A     -1.419401    11A     -1.385187    12A     -1.302905
      13A     -1.254916    14A     -1.094522    15A     -0.995724
      16A     -0.936983    17A     -0.877626    18A     -0.780916
      19A     -0.756373    20A     -0.703147    21A     -0.688974
      22A     -0.658322    23A     -0.632282    24A     -0.613374
      25A     -0.609466    26A     -0.605655    27A     -0.577576
      28A     -0.544149    29A     -0.502381    30A     -0.470107
      31A     -0.445840    32A     -0.429766    33A     -0.362034

  @DF-RHF Final Energy:  -451.65519452826192

   => Energetics <=

    Nuclear Repulsion Energy =            441.8951208894991396
    One-Electron Energy =               -1491.7077446268156109
    Two-Electron Energy =                 598.1574292090546123
    Total Energy =                       -451.6551945282618590
  Basis Set: (AUG-CC-PVTZ AUX)
    Blend: AUG-CC-PVTZ-RI
    Molecular point group: c1

    Geometry (in Angstrom), charge = 0, multiplicity = 1:

       Center              X                  Y                   Z               Mass
    ------------   -----------------  -----------------  -----------------  -----------------
         O           -1.488379137222    -1.773947960581     0.000000119094    15.994914619570
         O            2.854302862778    -0.273501960581     0.000000119094    15.994914619570
         N           -1.131787137222     0.496676039419     0.000000119094    14.003074004430
         N            0.671693862778    -0.970928960581    -0.000000880906    14.003074004430
         C           -0.673067437222    -0.790878660581     0.000000119094    12.000000000000
         C           -0.237410137222     1.543103039419     0.000000119094    12.000000000000
         C           -2.577874137222     0.707909039419     0.000000119094    12.000000000000
         C            1.105008862778     1.367701039419     0.000000119094    12.000000000000
         C            1.663206862778     0.026595039419     0.000000119094    12.000000000000
         H           -0.687135137222     2.531472039419    -0.000000880906     1.007825032230
         H           -3.022281137222     0.252253039419    -0.886273880906     1.007825032230
         H           -2.767344137222     1.781251039419     0.000000119094     1.007825032230
         H           -3.022280137222     0.252252039419     0.886274119094     1.007825032230
         H            1.005299862778    -1.931832960581     0.000000119094     1.007825032230
         H            1.782772862778     2.211354039419     0.000000119094     1.007825032230

  Basis Set: AUG-CC-PVTZ
    Blend: AUG-CC-PVTZ
  Basis Set: (AUG-CC-PVTZ AUX)
    Blend: AUG-CC-PVTZ-JKFIT
	 Reference Energy          =    -451.6551945282619158 [Eh]
	 Singles Energy            =      -0.0000000000000000 [Eh]
	 Same-Spin Energy          =      -0.4587100707052785 [Eh]
	 Opposite-Spin Energy      =      -1.3859054119314065 [Eh]
	 Correlation Energy        =      -1.8446154826366850 [Eh]
	 Total Energy              =    -453.4998100108986137 [Eh]

	 ================> DF-SCS-MP2 Energies <==================
	-----------------------------------------------------------
	 SCS Same-Spin Scale       =       0.3333333333333333 [-]
	 SCS Opposite-Spin Scale   =       1.2000000000000000 [-]
	 SCS Same-Spin Energy      =      -0.1529033569017595 [Eh]
	 SCS Opposite-Spin Energy  =      -1.6630864943176877 [Eh]
	 SCS Correlation Energy    =      -1.8159898512194472 [Eh]
	 SCS Total Energy          =    -453.4711843794813717 [Eh]
	-----------------------------------------------------------

  Dipole Moment: [D]
     X:    -2.9054      Y:     3.9256      Z:     0.0000     Total:     4.8838

*** Psi4 exiting successfully. Buy a developer a beer!
