                               Psi4 1.3.2 release

  ==> Input File <==

--------------------------------------------------------------------------
#psi4
#
memory 32 gb

molecule  {
0 1
  O       -1.3945310     1.8555980     0.0000210
  O        2.9082060     0.2751580    -0.0000600
  N       -1.0895640    -0.4406340     0.0001970
  N        0.7349370     0.9985730     0.0002800
  C       -0.6489740     0.8800530    -0.0003070
  C       -0.2041810    -1.5011250     0.0000420
  C       -2.5282030    -0.6963170    -0.0000730
  C        1.1391180    -1.3434170     0.0000740
  C        1.8497821    -0.1487265    -0.0002903
  H       -0.6762750    -2.4793460     0.0001770
  H       -2.8113470    -1.2573270     0.8936330
  H       -2.8107340    -1.2584070    -0.8933430
  H       -3.0286960     0.2691590    -0.0008180
  H        1.0742980     1.9581480     0.0003170
  H        1.8167570    -2.1872720    -0.0000870
units angstrom
no_reorient  #important for SAPT in psi4, default
symmetry c1  #important for SAPT in psi4, default
}

set PROPERTIES_ORIGIN ["COM"]
properties('MP2/aug-cc-pvtz', properties = ['dipole'])
--------------------------------------------------------------------------

    Molecular point group: c1
  Charge       = 0
  Multiplicity = 1
  Basis Set: AUG-CC-PVTZ
    Blend: AUG-CC-PVTZ
  Basis Set: (AUG-CC-PVTZ AUX)
    Blend: AUG-CC-PVTZ-JKFIT

    Orbital Energies [Eh]
    ---------------------

    Doubly Occupied:

       1A    -20.569092     2A    -20.524821     3A    -15.640325
       4A    -15.585370     5A    -11.395356     6A    -11.386656
       7A    -11.351166     8A    -11.285682     9A    -11.255336
      10A     -1.465601    11A     -1.403916    12A     -1.303445
      13A     -1.194003    14A     -1.100983    15A     -0.983412
      16A     -0.938544    17A     -0.835938    18A     -0.760874
      19A     -0.741330    20A     -0.710365    21A     -0.674899
      22A     -0.665417    23A     -0.638165    24A     -0.617889
      25A     -0.617519    26A     -0.603587    27A     -0.570964
      28A     -0.567315    29A     -0.494412    30A     -0.482684
      31A     -0.430960    32A     -0.411849    33A     -0.366296

  @DF-RHF Final Energy:  -451.62813560773196

   => Energetics <=

    Nuclear Repulsion Energy =            439.9684032141391299
    One-Electron Energy =               -1488.0447325060115418
    Two-Electron Energy =                 596.4481936841402785
    Total Energy =                       -451.6281356077320197
  Basis Set: (AUG-CC-PVTZ AUX)
    Blend: AUG-CC-PVTZ-RI
    Molecular point group: c1

    Geometry (in Angstrom), charge = 0, multiplicity = 1:

       Center              X                  Y                   Z               Mass
    ------------   -----------------  -----------------  -----------------  -----------------
         O           -1.458393215368     1.830321587591     0.000026695537    15.994914619570
         O            2.844343784632     0.249881587591    -0.000054304463    15.994914619570
         N           -1.153426215368    -0.465910412409     0.000202695537    14.003074004430
         N            0.671074784632     0.973296587591     0.000285695537    14.003074004430
         C           -0.712836215368     0.854776587591    -0.000301304463    12.000000000000
         C           -0.268043215368    -1.526401412409     0.000047695537    12.000000000000
         C           -2.592065215368    -0.721593412409    -0.000067304463    12.000000000000
         C            1.075255784632    -1.368693412409     0.000079695537    12.000000000000
         C            1.785919884632    -0.174002912409    -0.000284604463    12.000000000000
         H           -0.740137215368    -2.504622412409     0.000182695537     1.007825032230
         H           -2.875209215368    -1.282603412409     0.893638695537     1.007825032230
         H           -2.874596215368    -1.283683412409    -0.893337304463     1.007825032230
         H           -3.092558215368     0.243882587591    -0.000812304463     1.007825032230
         H            1.010435784632     1.932871587591     0.000322695537     1.007825032230
         H            1.752894784632    -2.212548412409    -0.000081304463     1.007825032230

  Basis Set: AUG-CC-PVTZ
    Blend: AUG-CC-PVTZ
  Basis Set: (AUG-CC-PVTZ AUX)
    Blend: AUG-CC-PVTZ-JKFIT
	 Reference Energy          =    -451.6281356077319629 [Eh]
	 Singles Energy            =      -0.0000000000000000 [Eh]
	 Same-Spin Energy          =      -0.4584339430747582 [Eh]
	 Opposite-Spin Energy      =      -1.3849816853656818 [Eh]
	 Correlation Energy        =      -1.8434156284404399 [Eh]
	 Total Energy              =    -453.4715512361723881 [Eh]

	 ================> DF-SCS-MP2 Energies <==================
	-----------------------------------------------------------
	 SCS Same-Spin Scale       =       0.3333333333333333 [-]
	 SCS Opposite-Spin Scale   =       1.2000000000000000 [-]
	 SCS Same-Spin Energy      =      -0.1528113143582527 [Eh]
	 SCS Opposite-Spin Energy  =      -1.6619780224388181 [Eh]
	 SCS Correlation Energy    =      -1.8147893367970709 [Eh]
	 SCS Total Energy          =    -453.4429249445290111 [Eh]
	-----------------------------------------------------------

  Dipole Moment: [D]
     X:    -2.0062      Y:    -4.3340      Z:    -0.0011     Total:     4.7758

*** Psi4 exiting successfully. Buy a developer a beer!
