                               Psi4 1.3.2 release

  ==> Input File <==

--------------------------------------------------------------------------
#psi4
#
memory 32 gb

molecule  {
0 1
  O       -1.3945310     1.8555980     0.0000210
  O        2.9106077     0.2646947    -0.0000563
  N       -1.0895640    -0.4406340     0.0001970
  N        0.7349370     0.9985730     0.0002800
  C       -0.6489740     0.8800530    -0.0003070
  C       -0.2041810    -1.5011250     0.0000420
  C       -2.5282030    -0.6963170    -0.0000730
  C        1.1508170    -1.3483514     0.0000779
  C        1.7104040    -0.0052910    -0.0002190
  H       -0.6762750    -2.4793460     0.0001770
  H       -2.8113470    -1.2573270     0.8936330
  H       -2.8107340    -1.2584070    -0.8933430
  H       -3.0286960     0.2691590    -0.0008180
  H        1.0742980     1.9581480     0.0003170
  H        1.8167570    -2.1872720    -0.0000870
units angstrom
no_reorient  #important for SAPT in psi4, default
symmetry c1  #important for SAPT in psi4, default
}

set PROPERTIES_ORIGIN ["COM"]
properties('MP2/aug-cc-pvtz', properties = ['dipole'])
--------------------------------------------------------------------------

    Molecular point group: c1
  Charge       = 0
  Multiplicity = 1
  Basis Set: AUG-CC-PVTZ
    Blend: AUG-CC-PVTZ
  Basis Set: (AUG-CC-PVTZ AUX)
    Blend: AUG-CC-PVTZ-JKFIT

    Orbital Energies [Eh]
    ---------------------

    Doubly Occupied:

       1A    -20.546026     2A    -20.537950     3A    -15.645353
       4A    -15.627277     5A    -11.419096     6A    -11.379318
       7A    -11.338572     8A    -11.290373     9A    -11.256042
      10A     -1.428663    11A     -1.387644    12A     -1.312439
      13A     -1.246143    14A     -1.088914    15A     -0.990053
      16A     -0.930812    17A     -0.872450    18A     -0.771807
      19A     -0.752704    20A     -0.699047    21A     -0.685391
      22A     -0.658432    23A     -0.644187    24A     -0.615092
      25A     -0.612759    26A     -0.600917    27A     -0.573286
      28A     -0.554152    29A     -0.498724    30A     -0.479999
      31A     -0.445645    32A     -0.433433    33A     -0.359048

  @DF-RHF Final Energy:  -451.66001261545773

   => Energetics <=

    Nuclear Repulsion Energy =            440.9465364477678690
    One-Electron Energy =               -1489.8496013931805919
    Two-Electron Energy =                 597.2430523299550487
    Total Energy =                       -451.6600126154577310
  Basis Set: (AUG-CC-PVTZ AUX)
    Blend: AUG-CC-PVTZ-RI
    Molecular point group: c1

    Geometry (in Angstrom), charge = 0, multiplicity = 1:

       Center              X                  Y                   Z               Mass
    ------------   -----------------  -----------------  -----------------  -----------------
         O           -1.446542219490     1.818463297402     0.000019066540    15.994914619570
         O            2.858596480510     0.227559997402    -0.000058233460    15.994914619570
         N           -1.141575219490    -0.477768702598     0.000195066540    14.003074004430
         N            0.682925780510     0.961438297402     0.000278066540    14.003074004430
         C           -0.700985219490     0.842918297402    -0.000308933460    12.000000000000
         C           -0.256192219490    -1.538259702598     0.000040066540    12.000000000000
         C           -2.580214219490    -0.733451702598    -0.000074933460    12.000000000000
         C            1.098805780510    -1.385486102598     0.000075966540    12.000000000000
         C            1.658392780510    -0.042425702598    -0.000220933460    12.000000000000
         H           -0.728286219490    -2.516480702598     0.000175066540     1.007825032230
         H           -2.863358219490    -1.294461702598     0.893631066540     1.007825032230
         H           -2.862745219490    -1.295541702598    -0.893344933460     1.007825032230
         H           -3.080707219490     0.232024297402    -0.000819933460     1.007825032230
         H            1.022286780510     1.921013297402     0.000315066540     1.007825032230
         H            1.764745780510    -2.224406702598    -0.000088933460     1.007825032230

  Basis Set: AUG-CC-PVTZ
    Blend: AUG-CC-PVTZ
  Basis Set: (AUG-CC-PVTZ AUX)
    Blend: AUG-CC-PVTZ-JKFIT
	 Reference Energy          =    -451.6600126154577310 [Eh]
	 Singles Energy            =      -0.0000000000000000 [Eh]
	 Same-Spin Energy          =      -0.4580998333404805 [Eh]
	 Opposite-Spin Energy      =      -1.3849762760336439 [Eh]
	 Correlation Energy        =      -1.8430761093741244 [Eh]
	 Total Energy              =    -453.5030887248318550 [Eh]

	 ================> DF-SCS-MP2 Energies <==================
	-----------------------------------------------------------
	 SCS Same-Spin Scale       =       0.3333333333333333 [-]
	 SCS Opposite-Spin Scale   =       1.2000000000000000 [-]
	 SCS Same-Spin Energy      =      -0.1526999444468268 [Eh]
	 SCS Opposite-Spin Energy  =      -1.6619715312403727 [Eh]
	 SCS Correlation Energy    =      -1.8146714756871996 [Eh]
	 SCS Total Energy          =    -453.4746840911449226 [Eh]
	-----------------------------------------------------------

  Dipole Moment: [D]
     X:    -3.2601      Y:    -3.5114      Z:    -0.0009     Total:     4.7914

*** Psi4 exiting successfully. Buy a developer a beer!
