                               Psi4 1.3.2 release

  ==> Input File <==

--------------------------------------------------------------------------
#psi4
#
memory 32 gb

molecule  {
0 1
  O       -1.3945310     1.8555980     0.0000210
  O        2.9082060     0.2751580    -0.0000600
  N       -1.0895640    -0.4406340     0.0001970
  N        0.6837357     0.9461452     0.0003062
  C       -0.6489740     0.8800530    -0.0003070
  C       -0.2041810    -1.5011250     0.0000420
  C       -2.5282030    -0.6963170    -0.0000730
  C        1.0698688    -1.3116843     0.0001094
  C        1.7104040    -0.0052910    -0.0002190
  H       -0.6762750    -2.4793460     0.0001770
  H       -2.8113470    -1.2573270     0.8936330
  H       -2.8107340    -1.2584070    -0.8933430
  H       -3.0286960     0.2691590    -0.0008180
  H        1.0742980     1.9581480     0.0003170
  H        1.8167570    -2.1872720    -0.0000870
units angstrom
no_reorient  #important for SAPT in psi4, default
symmetry c1  #important for SAPT in psi4, default
}

set PROPERTIES_ORIGIN ["COM"]
properties('MP2/aug-cc-pvtz', properties = ['dipole'])
--------------------------------------------------------------------------

    Molecular point group: c1
  Charge       = 0
  Multiplicity = 1
  Basis Set: AUG-CC-PVTZ
    Blend: AUG-CC-PVTZ
  Basis Set: (AUG-CC-PVTZ AUX)
    Blend: AUG-CC-PVTZ-JKFIT

    Orbital Energies [Eh]
    ---------------------

    Doubly Occupied:

       1A    -20.551235     2A    -20.538964     3A    -15.635381
       4A    -15.631546     5A    -11.411387     6A    -11.388421
       7A    -11.325066     8A    -11.285149     9A    -11.253010
      10A     -1.431278    11A     -1.393103    12A     -1.314034
      13A     -1.251833    14A     -1.103809    15A     -0.989855
      16A     -0.926128    17A     -0.886388    18A     -0.773753
      19A     -0.740574    20A     -0.696840    21A     -0.687920
      22A     -0.657381    23A     -0.644586    24A     -0.617367
      25A     -0.605733    26A     -0.593993    27A     -0.556230
      28A     -0.553749    29A     -0.503098    30A     -0.478008
      31A     -0.452424    32A     -0.436941    33A     -0.367313

  @DF-RHF Final Energy:  -451.64170906472356

   => Energetics <=

    Nuclear Repulsion Energy =            443.8376903049897351
    One-Electron Energy =               -1495.5938043264172848
    Two-Electron Energy =                 600.1144049567038792
    Total Energy =                       -451.6417090647236137
  Basis Set: (AUG-CC-PVTZ AUX)
    Blend: AUG-CC-PVTZ-RI
    Molecular point group: c1

    Geometry (in Angstrom), charge = 0, multiplicity = 1:

       Center              X                  Y                   Z               Mass
    ------------   -----------------  -----------------  -----------------  -----------------
         O           -1.432842371236     1.819469189408     0.000013626335    15.994914619570
         O            2.869894628764     0.239029189408    -0.000067373665    15.994914619570
         N           -1.127875371236    -0.476762810592     0.000189626335    14.003074004430
         N            0.645424328764     0.910016389408     0.000298826335    14.003074004430
         C           -0.687285371236     0.843924189408    -0.000314373665    12.000000000000
         C           -0.242492371236    -1.537253810592     0.000034626335    12.000000000000
         C           -2.566514371236    -0.732445810592    -0.000080373665    12.000000000000
         C            1.031557428764    -1.347813110592     0.000102026335    12.000000000000
         C            1.672092628764    -0.041419810592    -0.000226373665    12.000000000000
         H           -0.714586371236    -2.515474810592     0.000169626335     1.007825032230
         H           -2.849658371236    -1.293455810592     0.893625626335     1.007825032230
         H           -2.849045371236    -1.294535810592    -0.893350373665     1.007825032230
         H           -3.067007371236     0.233030189408    -0.000825373665     1.007825032230
         H            1.035986628764     1.922019189408     0.000309626335     1.007825032230
         H            1.778445628764    -2.223400810592    -0.000094373665     1.007825032230

  Basis Set: AUG-CC-PVTZ
    Blend: AUG-CC-PVTZ
  Basis Set: (AUG-CC-PVTZ AUX)
    Blend: AUG-CC-PVTZ-JKFIT
	 Reference Energy          =    -451.6417090647235568 [Eh]
	 Singles Energy            =      -0.0000000000000000 [Eh]
	 Same-Spin Energy          =      -0.4593436258401495 [Eh]
	 Opposite-Spin Energy      =      -1.3861833503676806 [Eh]
	 Correlation Energy        =      -1.8455269762078301 [Eh]
	 Total Energy              =    -453.4872360409314069 [Eh]

	 ================> DF-SCS-MP2 Energies <==================
	-----------------------------------------------------------
	 SCS Same-Spin Scale       =       0.3333333333333333 [-]
	 SCS Opposite-Spin Scale   =       1.2000000000000000 [-]
	 SCS Same-Spin Energy      =      -0.1531145419467165 [Eh]
	 SCS Opposite-Spin Energy  =      -1.6634200204412166 [Eh]
	 SCS Correlation Energy    =      -1.8165345623879332 [Eh]
	 SCS Total Energy          =    -453.4582436271114716 [Eh]
	-----------------------------------------------------------

  Dipole Moment: [D]
     X:    -2.8422      Y:    -3.5115      Z:    -0.0009     Total:     4.5176

*** Psi4 exiting successfully. Buy a developer a beer!
