                               Psi4 1.3.2 release

  ==> Input File <==

--------------------------------------------------------------------------
#psi4
#
memory 32 gb

molecule  {
0 1
  O       -1.3945310     1.8555980     0.0000210
  O        2.9129181     0.2542108    -0.0000706
  N       -1.0895640    -0.4406340     0.0001970
  N        0.7175657     0.9813959     0.0002710
  C       -0.6489740     0.8800530    -0.0003070
  C       -0.2041810    -1.5011250     0.0000420
  C       -2.5282030    -0.6963170    -0.0000730
  C        1.1391180    -1.3434170     0.0000740
  C        1.7104040    -0.0052910    -0.0002190
  H       -0.6762750    -2.4793460     0.0001770
  H       -2.8113470    -1.2573270     0.8936330
  H       -2.8107340    -1.2584070    -0.8933430
  H       -3.0286960     0.2691590    -0.0008180
  H        1.0742980     1.9581480     0.0003170
  H        1.8167570    -2.1872720    -0.0000870
units angstrom
no_reorient  #important for SAPT in psi4, default
symmetry c1  #important for SAPT in psi4, default
}

set PROPERTIES_ORIGIN ["COM"]
properties('MP2/aug-cc-pvtz', properties = ['dipole'])
--------------------------------------------------------------------------

    Molecular point group: c1
  Charge       = 0
  Multiplicity = 1
  Basis Set: AUG-CC-PVTZ
    Blend: AUG-CC-PVTZ
  Basis Set: (AUG-CC-PVTZ AUX)
    Blend: AUG-CC-PVTZ-JKFIT

    Orbital Energies [Eh]
    ---------------------

    Doubly Occupied:

       1A    -20.544269     2A    -20.541145     3A    -15.643147
       4A    -15.629612     5A    -11.417208     6A    -11.381347
       7A    -11.335987     8A    -11.289114     9A    -11.254733
      10A     -1.429555    11A     -1.388775    12A     -1.312628
      13A     -1.248742    14A     -1.090569    15A     -0.990156
      16A     -0.928910    17A     -0.877617    18A     -0.770821
      19A     -0.749928    20A     -0.697362    21A     -0.686116
      22A     -0.657902    23A     -0.644442    24A     -0.616105
      25A     -0.609080    26A     -0.601689    27A     -0.570119
      28A     -0.554549    29A     -0.498853    30A     -0.479432
      31A     -0.447629    32A     -0.435059    33A     -0.359828

  @DF-RHF Final Energy:  -451.65876307831775

   => Energetics <=

    Nuclear Repulsion Energy =            441.5742449377858634
    One-Electron Energy =               -1491.1011593500622894
    Two-Electron Energy =                 597.8681513339587354
    Total Energy =                       -451.6587630783177474
  Basis Set: (AUG-CC-PVTZ AUX)
    Blend: AUG-CC-PVTZ-RI
    Molecular point group: c1

    Geometry (in Angstrom), charge = 0, multiplicity = 1:

       Center              X                  Y                   Z               Mass
    ------------   -----------------  -----------------  -----------------  -----------------
         O           -1.443791688732     1.821232262666     0.000022252398    15.994914619570
         O            2.863657411268     0.219845062666    -0.000069347602    15.994914619570
         N           -1.138824688732    -0.474999737334     0.000198252398    14.003074004430
         N            0.668305011268     0.947030162666     0.000272252398    14.003074004430
         C           -0.698234688732     0.845687262666    -0.000305747602    12.000000000000
         C           -0.253441688732    -1.535490737334     0.000043252398    12.000000000000
         C           -2.577463688732    -0.730682737334    -0.000071747602    12.000000000000
         C            1.089857311268    -1.377782737334     0.000075252398    12.000000000000
         C            1.661143311268    -0.039656737334    -0.000217747602    12.000000000000
         H           -0.725535688732    -2.513711737334     0.000178252398     1.007825032230
         H           -2.860607688732    -1.291692737334     0.893634252398     1.007825032230
         H           -2.859994688732    -1.292772737334    -0.893341747602     1.007825032230
         H           -3.077956688732     0.234793262666    -0.000816747602     1.007825032230
         H            1.025037311268     1.923782262666     0.000318252398     1.007825032230
         H            1.767496311268    -2.221637737334    -0.000085747602     1.007825032230

  Basis Set: AUG-CC-PVTZ
    Blend: AUG-CC-PVTZ
  Basis Set: (AUG-CC-PVTZ AUX)
    Blend: AUG-CC-PVTZ-JKFIT
	 Reference Energy          =    -451.6587630783177474 [Eh]
	 Singles Energy            =      -0.0000000000000000 [Eh]
	 Same-Spin Energy          =      -0.4584421342739355 [Eh]
	 Opposite-Spin Energy      =      -1.3852790969060624 [Eh]
	 Correlation Energy        =      -1.8437212311799980 [Eh]
	 Total Energy              =    -453.5024843094977314 [Eh]

	 ================> DF-SCS-MP2 Energies <==================
	-----------------------------------------------------------
	 SCS Same-Spin Scale       =       0.3333333333333333 [-]
	 SCS Opposite-Spin Scale   =       1.2000000000000000 [-]
	 SCS Same-Spin Energy      =      -0.1528140447579785 [Eh]
	 SCS Opposite-Spin Energy  =      -1.6623349162872749 [Eh]
	 SCS Correlation Energy    =      -1.8151489610452534 [Eh]
	 SCS Total Energy          =    -453.4739120393630287 [Eh]
	-----------------------------------------------------------

  Dipole Moment: [D]
     X:    -3.1537      Y:    -3.4767      Z:    -0.0008     Total:     4.6940

*** Psi4 exiting successfully. Buy a developer a beer!
