                               Psi4 1.3.2 release

  ==> Input File <==

--------------------------------------------------------------------------
#psi4
#
memory 32 gb

molecule  {
0 1
  O       -1.3945310     1.8555980     0.0000210
  O        2.9082060     0.2751580    -0.0000600
  N       -1.0895640    -0.4406340     0.0001970
  N        0.7349370     0.9985730     0.0002800
  C       -0.6720903     0.8875412    -0.0002983
  C       -0.2228240    -1.5164155     0.0000540
  C       -2.5282030    -0.6963170    -0.0000730
  C        1.1391180    -1.3434170     0.0000740
  C        1.7104040    -0.0052910    -0.0002190
  H       -0.6762750    -2.4793460     0.0001770
  H       -2.8113470    -1.2573270     0.8936330
  H       -2.8107340    -1.2584070    -0.8933430
  H       -3.0286960     0.2691590    -0.0008180
  H        1.0742980     1.9581480     0.0003170
  H        1.8167570    -2.1872720    -0.0000870
units angstrom
no_reorient  #important for SAPT in psi4, default
symmetry c1  #important for SAPT in psi4, default
}

set PROPERTIES_ORIGIN ["COM"]
properties('MP2/aug-cc-pvtz', properties = ['dipole'])
--------------------------------------------------------------------------

    Molecular point group: c1
  Charge       = 0
  Multiplicity = 1
  Basis Set: AUG-CC-PVTZ
    Blend: AUG-CC-PVTZ
  Basis Set: (AUG-CC-PVTZ AUX)
    Blend: AUG-CC-PVTZ-JKFIT

    Orbital Energies [Eh]
    ---------------------

    Doubly Occupied:

       1A    -20.551455     2A    -20.535931     3A    -15.644463
       4A    -15.622552     5A    -11.419792     6A    -11.377386
       7A    -11.338304     8A    -11.289804     9A    -11.257193
      10A     -1.437494    11A     -1.387394    12A     -1.315577
      13A     -1.239063    14A     -1.086061    15A     -0.988281
      16A     -0.933121    17A     -0.866486    18A     -0.769330
      19A     -0.749544    20A     -0.705433    21A     -0.685439
      22A     -0.661419    23A     -0.645186    24A     -0.613544
      25A     -0.609917    26A     -0.599906    27A     -0.572545
      28A     -0.557553    29A     -0.498801    30A     -0.485341
      31A     -0.444194    32A     -0.431825    33A     -0.357243

  @DF-RHF Final Energy:  -451.65847677525784

   => Energetics <=

    Nuclear Repulsion Energy =            440.7503997359538062
    One-Electron Energy =               -1489.4625973835456989
    Two-Electron Energy =                 597.0537208723339972
    Total Energy =                       -451.6584767752578955
  Basis Set: (AUG-CC-PVTZ AUX)
    Blend: AUG-CC-PVTZ-RI
    Molecular point group: c1

    Geometry (in Angstrom), charge = 0, multiplicity = 1:

       Center              X                  Y                   Z               Mass
    ------------   -----------------  -----------------  -----------------  -----------------
         O           -1.441147909787     1.817408539370     0.000017936617    15.994914619570
         O            2.861589090213     0.236968539370    -0.000063063383    15.994914619570
         N           -1.136180909787    -0.478823460630     0.000193936617    14.003074004430
         N            0.688320090213     0.960383539370     0.000276936617    14.003074004430
         C           -0.718707209787     0.849351739370    -0.000301363383    12.000000000000
         C           -0.269440909787    -1.554604960630     0.000050936617    12.000000000000
         C           -2.574819909787    -0.734506460630    -0.000076063383    12.000000000000
         C            1.092501090213    -1.381606460630     0.000070936617    12.000000000000
         C            1.663787090213    -0.043480460630    -0.000222063383    12.000000000000
         H           -0.722891909787    -2.517535460630     0.000173936617     1.007825032230
         H           -2.857963909787    -1.295516460630     0.893629936617     1.007825032230
         H           -2.857350909787    -1.296596460630    -0.893346063383     1.007825032230
         H           -3.075312909787     0.230969539370    -0.000821063383     1.007825032230
         H            1.027681090213     1.919958539370     0.000313936617     1.007825032230
         H            1.770140090213    -2.225461460630    -0.000090063383     1.007825032230

  Basis Set: AUG-CC-PVTZ
    Blend: AUG-CC-PVTZ
  Basis Set: (AUG-CC-PVTZ AUX)
    Blend: AUG-CC-PVTZ-JKFIT
	 Reference Energy          =    -451.6584767752578387 [Eh]
	 Singles Energy            =      -0.0000000000000000 [Eh]
	 Same-Spin Energy          =      -0.4580337233213835 [Eh]
	 Opposite-Spin Energy      =      -1.3849883636802884 [Eh]
	 Correlation Energy        =      -1.8430220870016720 [Eh]
	 Total Energy              =    -453.5014988622594956 [Eh]

	 ================> DF-SCS-MP2 Energies <==================
	-----------------------------------------------------------
	 SCS Same-Spin Scale       =       0.3333333333333333 [-]
	 SCS Opposite-Spin Scale   =       1.2000000000000000 [-]
	 SCS Same-Spin Energy      =      -0.1526779077737945 [Eh]
	 SCS Opposite-Spin Energy  =      -1.6619860364163461 [Eh]
	 SCS Correlation Energy    =      -1.8146639441901407 [Eh]
	 SCS Total Energy          =    -453.4731407194479971 [Eh]
	-----------------------------------------------------------

  Dipole Moment: [D]
     X:    -3.4428      Y:    -3.4390      Z:    -0.0009     Total:     4.8662

*** Psi4 exiting successfully. Buy a developer a beer!
