                               Psi4 1.3.2 release

  ==> Input File <==

--------------------------------------------------------------------------
#psi4
#
memory 32 gb

molecule  {
0 1
  O       -1.3945310     1.8555980     0.0000210
  O        2.9082060     0.2751580    -0.0000600
  N       -1.1580796    -0.4157654     0.0001514
  N        0.7268376     1.0708389     0.0002373
  C       -0.6489740     0.8800530    -0.0003070
  C       -0.2041810    -1.5011250     0.0000420
  C       -2.5282030    -0.6963170    -0.0000730
  C        1.1391180    -1.3434170     0.0000740
  C        1.7104040    -0.0052910    -0.0002190
  H       -0.6762750    -2.4793460     0.0001770
  H       -2.8113470    -1.2573270     0.8936330
  H       -2.8107340    -1.2584070    -0.8933430
  H       -3.0286960     0.2691590    -0.0008180
  H        1.0742980     1.9581480     0.0003170
  H        1.8167570    -2.1872720    -0.0000870
units angstrom
no_reorient  #important for SAPT in psi4, default
symmetry c1  #important for SAPT in psi4, default
}

set PROPERTIES_ORIGIN ["COM"]
properties('MP2/aug-cc-pvtz', properties = ['dipole'])
--------------------------------------------------------------------------

    Molecular point group: c1
  Charge       = 0
  Multiplicity = 1
  Basis Set: AUG-CC-PVTZ
    Blend: AUG-CC-PVTZ
  Basis Set: (AUG-CC-PVTZ AUX)
    Blend: AUG-CC-PVTZ-JKFIT

    Orbital Energies [Eh]
    ---------------------

    Doubly Occupied:

       1A    -20.549605     2A    -20.534138     3A    -15.643086
       4A    -15.621816     5A    -11.412779     6A    -11.389434
       7A    -11.344340     8A    -11.282475     9A    -11.267051
      10A     -1.423482    11A     -1.392150    12A     -1.301478
      13A     -1.244300    14A     -1.098002    15A     -0.989713
      16A     -0.927884    17A     -0.854705    18A     -0.783925
      19A     -0.757305    20A     -0.699289    21A     -0.684004
      22A     -0.665358    23A     -0.644823    24A     -0.617187
      25A     -0.615076    26A     -0.611690    27A     -0.560465
      28A     -0.553070    29A     -0.487342    30A     -0.476841
      31A     -0.446014    32A     -0.431864    33A     -0.367439

  @DF-RHF Final Energy:  -451.64688360757998

   => Energetics <=

    Nuclear Repulsion Energy =            439.5576281456940251
    One-Electron Energy =               -1487.0527682360668678
    Two-Electron Energy =                 595.8482564827928627
    Total Energy =                       -451.6468836075799800
  Basis Set: (AUG-CC-PVTZ AUX)
    Blend: AUG-CC-PVTZ-RI
    Molecular point group: c1

    Geometry (in Angstrom), charge = 0, multiplicity = 1:

       Center              X                  Y                   Z               Mass
    ------------   -----------------  -----------------  -----------------  -----------------
         O           -1.436611884431     1.805874300826     0.000029717297    15.994914619570
         O            2.866125115569     0.225434300826    -0.000051282703    15.994914619570
         N           -1.200160484431    -0.465489099174     0.000160117297    14.003074004430
         N            0.684756715569     1.021115200826     0.000246017297    14.003074004430
         C           -0.691054884431     0.830329300826    -0.000298282703    12.000000000000
         C           -0.246261884431    -1.550848699174     0.000050717297    12.000000000000
         C           -2.570283884431    -0.746040699174    -0.000064282703    12.000000000000
         C            1.097037115569    -1.393140699174     0.000082717297    12.000000000000
         C            1.668323115569    -0.055014699174    -0.000210282703    12.000000000000
         H           -0.718355884431    -2.529069699174     0.000185717297     1.007825032230
         H           -2.853427884431    -1.307050699174     0.893641717297     1.007825032230
         H           -2.852814884431    -1.308130699174    -0.893334282703     1.007825032230
         H           -3.070776884431     0.219435300826    -0.000809282703     1.007825032230
         H            1.032217115569     1.908424300826     0.000325717297     1.007825032230
         H            1.774676115569    -2.236995699174    -0.000078282703     1.007825032230

  Basis Set: AUG-CC-PVTZ
    Blend: AUG-CC-PVTZ
  Basis Set: (AUG-CC-PVTZ AUX)
    Blend: AUG-CC-PVTZ-JKFIT
	 Reference Energy          =    -451.6468836075799800 [Eh]
	 Singles Energy            =      -0.0000000000000000 [Eh]
	 Same-Spin Energy          =      -0.4570212631983193 [Eh]
	 Opposite-Spin Energy      =      -1.3845205803405527 [Eh]
	 Correlation Energy        =      -1.8415418435388720 [Eh]
	 Total Energy              =    -453.4884254511188715 [Eh]

	 ================> DF-SCS-MP2 Energies <==================
	-----------------------------------------------------------
	 SCS Same-Spin Scale       =       0.3333333333333333 [-]
	 SCS Opposite-Spin Scale   =       1.2000000000000000 [-]
	 SCS Same-Spin Energy      =      -0.1523404210661064 [Eh]
	 SCS Opposite-Spin Energy  =      -1.6614246964086632 [Eh]
	 SCS Correlation Energy    =      -1.8137651174747695 [Eh]
	 SCS Total Energy          =    -453.4606487250547389 [Eh]
	-----------------------------------------------------------

  Dipole Moment: [D]
     X:    -2.6312      Y:    -3.8172      Z:    -0.0008     Total:     4.6362

*** Psi4 exiting successfully. Buy a developer a beer!
