                               Psi4 1.3.2 release

  ==> Input File <==

--------------------------------------------------------------------------
#psi4
#
memory 32 gb

molecule  {
0 1
  O       -1.3945310     1.8555980     0.0000210
  O        2.9082060     0.2751580    -0.0000600
  N       -1.0895640    -0.4406340     0.0001970
  N        0.7349370     0.9985730     0.0002800
  C       -0.6466948     0.8559185    -0.0003265
  C       -0.2041810    -1.5011250     0.0000420
  C       -2.5282030    -0.6963170    -0.0000730
  C        1.1391180    -1.3434170     0.0000740
  C        1.6927356    -0.0221623    -0.0002394
  H       -0.6762750    -2.4793460     0.0001770
  H       -2.8113470    -1.2573270     0.8936330
  H       -2.8107340    -1.2584070    -0.8933430
  H       -3.0286960     0.2691590    -0.0008180
  H        1.0742980     1.9581480     0.0003170
  H        1.8167570    -2.1872720    -0.0000870
units angstrom
no_reorient  #important for SAPT in psi4, default
symmetry c1  #important for SAPT in psi4, default
}

set PROPERTIES_ORIGIN ["COM"]
properties('MP2/aug-cc-pvtz', properties = ['dipole'])
--------------------------------------------------------------------------

    Molecular point group: c1
  Charge       = 0
  Multiplicity = 1
  Basis Set: AUG-CC-PVTZ
    Blend: AUG-CC-PVTZ
  Basis Set: (AUG-CC-PVTZ AUX)
    Blend: AUG-CC-PVTZ-JKFIT

    Orbital Energies [Eh]
    ---------------------

    Doubly Occupied:

       1A    -20.540289     2A    -20.535273     3A    -15.650258
       4A    -15.628699     5A    -11.418005     6A    -11.379989
       7A    -11.342132     8A    -11.293105     9A    -11.259244
      10A     -1.421991    11A     -1.374008    12A     -1.313132
      13A     -1.244614    14A     -1.098214    15A     -0.995578
      16A     -0.939051    17A     -0.871244    18A     -0.777125
      19A     -0.757031    20A     -0.702297    21A     -0.688962
      22A     -0.652988    23A     -0.641543    24A     -0.614345
      25A     -0.612347    26A     -0.598971    27A     -0.575042
      28A     -0.547666    29A     -0.500672    30A     -0.475715
      31A     -0.443327    32A     -0.428440    33A     -0.364459

  @DF-RHF Final Energy:  -451.65566163495851

   => Energetics <=

    Nuclear Repulsion Energy =            441.3956211972118240
    One-Electron Energy =               -1490.7310520931364408
    Two-Electron Energy =                 597.6797692609661681
    Total Energy =                       -451.6556616349585056
  Basis Set: (AUG-CC-PVTZ AUX)
    Blend: AUG-CC-PVTZ-RI
    Molecular point group: c1

    Geometry (in Angstrom), charge = 0, multiplicity = 1:

       Center              X                  Y                   Z               Mass
    ------------   -----------------  -----------------  -----------------  -----------------
         O           -1.443658492542     1.820569700476     0.000023706080    15.994914619570
         O            2.859078507458     0.240129700476    -0.000057293920    15.994914619570
         N           -1.138691492542    -0.475662299524     0.000199706080    14.003074004430
         N            0.685809507458     0.963544700476     0.000282706080    14.003074004430
         C           -0.695822292542     0.820890200476    -0.000323793920    12.000000000000
         C           -0.253308492542    -1.536153299524     0.000044706080    12.000000000000
         C           -2.577330492542    -0.731345299524    -0.000070293920    12.000000000000
         C            1.089990507458    -1.378445299524     0.000076706080    12.000000000000
         C            1.643608107458    -0.057190599524    -0.000236693920    12.000000000000
         H           -0.725402492542    -2.514374299524     0.000179706080     1.007825032230
         H           -2.860474492542    -1.292355299524     0.893635706080     1.007825032230
         H           -2.859861492542    -1.293435299524    -0.893340293920     1.007825032230
         H           -3.077823492542     0.234130700476    -0.000815293920     1.007825032230
         H            1.025170507458     1.923119700476     0.000319706080     1.007825032230
         H            1.767629507458    -2.222300299524    -0.000084293920     1.007825032230

  Basis Set: AUG-CC-PVTZ
    Blend: AUG-CC-PVTZ
  Basis Set: (AUG-CC-PVTZ AUX)
    Blend: AUG-CC-PVTZ-JKFIT
	 Reference Energy          =    -451.6556616349585056 [Eh]
	 Singles Energy            =      -0.0000000000000000 [Eh]
	 Same-Spin Energy          =      -0.4589737616387148 [Eh]
	 Opposite-Spin Energy      =      -1.3864352952855910 [Eh]
	 Correlation Energy        =      -1.8454090569243058 [Eh]
	 Total Energy              =    -453.5010706918828305 [Eh]

	 ================> DF-SCS-MP2 Energies <==================
	-----------------------------------------------------------
	 SCS Same-Spin Scale       =       0.3333333333333333 [-]
	 SCS Opposite-Spin Scale   =       1.2000000000000000 [-]
	 SCS Same-Spin Energy      =      -0.1529912538795716 [Eh]
	 SCS Opposite-Spin Energy  =      -1.6637223543427091 [Eh]
	 SCS Correlation Energy    =      -1.8167136082222808 [Eh]
	 SCS Total Energy          =    -453.4723752431808066 [Eh]
	-----------------------------------------------------------

  Dipole Moment: [D]
     X:    -3.3443      Y:    -3.8417      Z:    -0.0008     Total:     5.0935

*** Psi4 exiting successfully. Buy a developer a beer!
