                               Psi4 1.3.2 release

  ==> Input File <==

--------------------------------------------------------------------------
#psi4
#
memory 32 gb

molecule  {
0 1
  O       -1.3945310     1.8555980     0.0000210
  O        2.9082060     0.2751580    -0.0000600
  N       -1.0919800    -0.4283354     0.0224066
  N        0.7349370     0.9985730     0.0002800
  C       -0.6489740     0.8800530    -0.0003070
  C       -0.2041810    -1.5011250     0.0000420
  C       -2.5282030    -0.6963170    -0.0000730
  C        1.1391180    -1.3434170     0.0000740
  C        1.7104040    -0.0052910    -0.0002190
  H       -0.6762750    -2.4793460     0.0001770
  H       -2.8113470    -1.2573270     0.8936330
  H       -2.8288799    -1.2582728    -0.8874846
  H       -3.0286960     0.2691590    -0.0008180
  H        1.0742980     1.9581480     0.0003170
  H        1.8167570    -2.1872720    -0.0000870
units angstrom
no_reorient  #important for SAPT in psi4, default
symmetry c1  #important for SAPT in psi4, default
}

set PROPERTIES_ORIGIN ["COM"]
properties('MP2/aug-cc-pvtz', properties = ['dipole'])
--------------------------------------------------------------------------

    Molecular point group: c1
  Charge       = 0
  Multiplicity = 1
  Basis Set: AUG-CC-PVTZ
    Blend: AUG-CC-PVTZ
  Basis Set: (AUG-CC-PVTZ AUX)
    Blend: AUG-CC-PVTZ-JKFIT

    Orbital Energies [Eh]
    ---------------------

    Doubly Occupied:

       1A    -20.543308     2A    -20.539642     3A    -15.644367
       4A    -15.626226     5A    -11.416738     6A    -11.380504
       7A    -11.338091     8A    -11.289620     9A    -11.257923
      10A     -1.428218    11A     -1.388595    12A     -1.310650
      13A     -1.245182    14A     -1.091903    15A     -0.990571
      16A     -0.930439    17A     -0.871717    18A     -0.772523
      19A     -0.752817    20A     -0.699340    21A     -0.684871
      22A     -0.657058    23A     -0.644832    24A     -0.614268
      25A     -0.611025    26A     -0.602691    27A     -0.570587
      28A     -0.554355    29A     -0.497481    30A     -0.479253
      31A     -0.446430    32A     -0.432884    33A     -0.362404

  @DF-RHF Final Energy:  -451.66038738222528

   => Energetics <=

    Nuclear Repulsion Energy =            441.1959622083157910
    One-Electron Energy =               -1490.3596693624358522
    Two-Electron Energy =                 597.5033197718946667
    Total Energy =                       -451.6603873822252808
  Basis Set: (AUG-CC-PVTZ AUX)
    Blend: AUG-CC-PVTZ-RI
    Molecular point group: c1

    Geometry (in Angstrom), charge = 0, multiplicity = 1:

       Center              X                  Y                   Z               Mass
    ------------   -----------------  -----------------  -----------------  -----------------
         O           -1.444710126962     1.815298297554    -0.002494370270    15.994914619570
         O            2.858026873038     0.234858297554    -0.002575370270    15.994914619570
         N           -1.142159126962    -0.468635102446     0.019891229730    14.003074004430
         N            0.684757873038     0.958273297554    -0.002235370270    14.003074004430
         C           -0.699153126962     0.839753297554    -0.002822370270    12.000000000000
         C           -0.254360126962    -1.541424702446    -0.002473370270    12.000000000000
         C           -2.578382126962    -0.736616702446    -0.002588370270    12.000000000000
         C            1.088938873038    -1.383716702446    -0.002441370270    12.000000000000
         C            1.660224873038    -0.045590702446    -0.002734370270    12.000000000000
         H           -0.726454126962    -2.519645702446    -0.002338370270     1.007825032230
         H           -2.861526126962    -1.297626702446     0.891117629730     1.007825032230
         H           -2.879059026962    -1.298572502446    -0.889999970270     1.007825032230
         H           -3.078875126962     0.228859297554    -0.003333370270     1.007825032230
         H            1.024118873038     1.917848297554    -0.002198370270     1.007825032230
         H            1.766577873038    -2.227571702446    -0.002602370270     1.007825032230

  Basis Set: AUG-CC-PVTZ
    Blend: AUG-CC-PVTZ
  Basis Set: (AUG-CC-PVTZ AUX)
    Blend: AUG-CC-PVTZ-JKFIT
	 Reference Energy          =    -451.6603873822252808 [Eh]
	 Singles Energy            =      -0.0000000000000000 [Eh]
	 Same-Spin Energy          =      -0.4578970315312469 [Eh]
	 Opposite-Spin Energy      =      -1.3846817460709788 [Eh]
	 Correlation Energy        =      -1.8425787776022258 [Eh]
	 Total Energy              =    -453.5029661598275084 [Eh]

	 ================> DF-SCS-MP2 Energies <==================
	-----------------------------------------------------------
	 SCS Same-Spin Scale       =       0.3333333333333333 [-]
	 SCS Opposite-Spin Scale   =       1.2000000000000000 [-]
	 SCS Same-Spin Energy      =      -0.1526323438437490 [Eh]
	 SCS Opposite-Spin Energy  =      -1.6616180952851745 [Eh]
	 SCS Correlation Energy    =      -1.8142504391289234 [Eh]
	 SCS Total Energy          =    -453.4746378213541789 [Eh]
	-----------------------------------------------------------

  Dipole Moment: [D]
     X:    -3.1761      Y:    -3.6084      Z:    -0.0179     Total:     4.8071

*** Psi4 exiting successfully. Buy a developer a beer!
