                               Psi4 1.3.2 release

  ==> Input File <==

--------------------------------------------------------------------------
#psi4
#
memory 32 gb

molecule  {
0 1
  O       -1.3945310     1.8555980     0.0000210
  O        2.9129181     0.2542108    -0.0000526
  N       -1.0895640    -0.4406340     0.0001970
  N        0.7349370     0.9985730     0.0002800
  C       -0.6489740     0.8800530    -0.0003070
  C       -0.2041810    -1.5011250     0.0000420
  C       -2.5282030    -0.6963170    -0.0000730
  C        1.1625585    -1.3531835     0.0000818
  C        1.7104040    -0.0052910    -0.0002190
  H       -0.6762750    -2.4793460     0.0001770
  H       -2.8113470    -1.2573270     0.8936330
  H       -2.8107340    -1.2584070    -0.8933430
  H       -3.0286960     0.2691590    -0.0008180
  H        1.0742980     1.9581480     0.0003170
  H        1.8167570    -2.1872720    -0.0000870
units angstrom
no_reorient  #important for SAPT in psi4, default
symmetry c1  #important for SAPT in psi4, default
}

set PROPERTIES_ORIGIN ["COM"]
properties('MP2/aug-cc-pvtz', properties = ['dipole'])
--------------------------------------------------------------------------

    Molecular point group: c1
  Charge       = 0
  Multiplicity = 1
  Basis Set: AUG-CC-PVTZ
    Blend: AUG-CC-PVTZ
  Basis Set: (AUG-CC-PVTZ AUX)
    Blend: AUG-CC-PVTZ-JKFIT

    Orbital Energies [Eh]
    ---------------------

    Doubly Occupied:

       1A    -20.546560     2A    -20.537088     3A    -15.646219
       4A    -15.627982     5A    -11.419657     6A    -11.378818
       7A    -11.339983     8A    -11.290745     9A    -11.255939
      10A     -1.428976    11A     -1.387172    12A     -1.312563
      13A     -1.246648    14A     -1.086674    15A     -0.990445
      16A     -0.930961    17A     -0.872570    18A     -0.771791
      19A     -0.753019    20A     -0.698234    21A     -0.685566
      22A     -0.659102    23A     -0.644122    24A     -0.615363
      25A     -0.615257    26A     -0.599522    27A     -0.574568
      28A     -0.554095    29A     -0.498055    30A     -0.480026
      31A     -0.445079    32A     -0.433808    33A     -0.357420

  @DF-RHF Final Energy:  -451.65888989424712

   => Energetics <=

    Nuclear Repulsion Energy =            440.7218245081638202
    One-Electron Energy =               -1489.3933770579851625
    Two-Electron Energy =                 597.0126626555743314
    Total Energy =                       -451.6588898942470678
  Basis Set: (AUG-CC-PVTZ AUX)
    Blend: AUG-CC-PVTZ-RI
    Molecular point group: c1

    Geometry (in Angstrom), charge = 0, multiplicity = 1:

       Center              X                  Y                   Z               Mass
    ------------   -----------------  -----------------  -----------------  -----------------
         O           -1.447953267728     1.820253753161     0.000018225706    15.994914619570
         O            2.859495832272     0.218866553161    -0.000055374294    15.994914619570
         N           -1.142986267728    -0.475978246839     0.000194225706    14.003074004430
         N            0.681514732272     0.963228753161     0.000277225706    14.003074004430
         C           -0.702396267728     0.844708753161    -0.000309774294    12.000000000000
         C           -0.257603267728    -1.536469246839     0.000039225706    12.000000000000
         C           -2.581625267728    -0.731661246839    -0.000075774294    12.000000000000
         C            1.109136232272    -1.388527746839     0.000079025706    12.000000000000
         C            1.656981732272    -0.040635246839    -0.000221774294    12.000000000000
         H           -0.729697267728    -2.514690246839     0.000174225706     1.007825032230
         H           -2.864769267728    -1.292671246839     0.893630225706     1.007825032230
         H           -2.864156267728    -1.293751246839    -0.893345774294     1.007825032230
         H           -3.082118267728     0.233814753161    -0.000820774294     1.007825032230
         H            1.020875732272     1.922803753161     0.000314225706     1.007825032230
         H            1.763334732272    -2.222616246839    -0.000089774294     1.007825032230

  Basis Set: AUG-CC-PVTZ
    Blend: AUG-CC-PVTZ
  Basis Set: (AUG-CC-PVTZ AUX)
    Blend: AUG-CC-PVTZ-JKFIT
	 Reference Energy          =    -451.6588898942471246 [Eh]
	 Singles Energy            =      -0.0000000000000000 [Eh]
	 Same-Spin Energy          =      -0.4581609908089428 [Eh]
	 Opposite-Spin Energy      =      -1.3851665842436045 [Eh]
	 Correlation Energy        =      -1.8433275750525473 [Eh]
	 Total Energy              =    -453.5022174692996941 [Eh]

	 ================> DF-SCS-MP2 Energies <==================
	-----------------------------------------------------------
	 SCS Same-Spin Scale       =       0.3333333333333333 [-]
	 SCS Opposite-Spin Scale   =       1.2000000000000000 [-]
	 SCS Same-Spin Energy      =      -0.1527203302696476 [Eh]
	 SCS Opposite-Spin Energy  =      -1.6621999010923254 [Eh]
	 SCS Correlation Energy    =      -1.8149202313619730 [Eh]
	 SCS Total Energy          =    -453.4738101256090772 [Eh]
	-----------------------------------------------------------

  Dipole Moment: [D]
     X:    -3.2835      Y:    -3.4818      Z:    -0.0009     Total:     4.7858

*** Psi4 exiting successfully. Buy a developer a beer!
