                               Psi4 1.3.2 release

  ==> Input File <==

--------------------------------------------------------------------------
#psi4
#
memory 32 gb

molecule  {
0 1
  O       -1.3424532     1.8932805     0.0000637
  O        2.9082060     0.2751580    -0.0000600
  N       -1.0895640    -0.4406340     0.0001970
  N        0.7268375     1.0708389     0.0003218
  C       -0.6489740     0.8800530    -0.0003070
  C       -0.2041810    -1.5011250     0.0000420
  C       -2.5282030    -0.6963170    -0.0000730
  C        1.1391180    -1.3434170     0.0000740
  C        1.7104040    -0.0052910    -0.0002190
  H       -0.6762750    -2.4793460     0.0001770
  H       -2.8113470    -1.2573270     0.8936330
  H       -2.8107340    -1.2584070    -0.8933430
  H       -3.0286960     0.2691590    -0.0008180
  H        1.0742980     1.9581480     0.0003170
  H        1.8167570    -2.1872720    -0.0000870
units angstrom
no_reorient  #important for SAPT in psi4, default
symmetry c1  #important for SAPT in psi4, default
}

set PROPERTIES_ORIGIN ["COM"]
properties('MP2/aug-cc-pvtz', properties = ['dipole'])
--------------------------------------------------------------------------

    Molecular point group: c1
  Charge       = 0
  Multiplicity = 1
  Basis Set: AUG-CC-PVTZ
    Blend: AUG-CC-PVTZ
  Basis Set: (AUG-CC-PVTZ AUX)
    Blend: AUG-CC-PVTZ-JKFIT

    Orbital Energies [Eh]
    ---------------------

    Doubly Occupied:

       1A    -20.543004     2A    -20.538640     3A    -15.648341
       4A    -15.615676     5A    -11.414472     6A    -11.383513
       7A    -11.340665     8A    -11.293039     9A    -11.259710
      10A     -1.424540    11A     -1.386897    12A     -1.312612
      13A     -1.237019    14A     -1.093721    15A     -0.988897
      16A     -0.935963    17A     -0.856098    18A     -0.781596
      19A     -0.754462    20A     -0.705693    21A     -0.684134
      22A     -0.657112    23A     -0.641929    24A     -0.611863
      25A     -0.610997    26A     -0.607065    27A     -0.576161
      28A     -0.551859    29A     -0.501374    30A     -0.478617
      31A     -0.441501    32A     -0.427713    33A     -0.362920

  @DF-RHF Final Energy:  -451.65289391317390

   => Energetics <=

    Nuclear Repulsion Energy =            439.9264252288509738
    One-Electron Energy =               -1487.8230381732644219
    Two-Electron Energy =                 596.2437190312394932
    Total Energy =                       -451.6528939131738980
  Basis Set: (AUG-CC-PVTZ AUX)
    Blend: AUG-CC-PVTZ-RI
    Molecular point group: c1

    Geometry (in Angstrom), charge = 0, multiplicity = 1:

       Center              X                  Y                   Z               Mass
    ------------   -----------------  -----------------  -----------------  -----------------
         O           -1.398754696550     1.841537714716     0.000052544839    15.994914619570
         O            2.851904503450     0.223415214716    -0.000071155161    15.994914619570
         N           -1.145865496550    -0.492376785284     0.000185844839    14.003074004430
         N            0.670536003450     1.019096114716     0.000310644839    14.003074004430
         C           -0.705275496550     0.828310214716    -0.000318155161    12.000000000000
         C           -0.260482496550    -1.552867785284     0.000030844839    12.000000000000
         C           -2.584504496550    -0.748059785284    -0.000084155161    12.000000000000
         C            1.082816503450    -1.395159785284     0.000062844839    12.000000000000
         C            1.654102503450    -0.057033785284    -0.000230155161    12.000000000000
         H           -0.732576496550    -2.531088785284     0.000165844839     1.007825032230
         H           -2.867648496550    -1.309069785284     0.893621844839     1.007825032230
         H           -2.867035496550    -1.310149785284    -0.893354155161     1.007825032230
         H           -3.084997496550     0.217416214716    -0.000829155161     1.007825032230
         H            1.017996503450     1.906405214716     0.000305844839     1.007825032230
         H            1.760455503450    -2.239014785284    -0.000098155161     1.007825032230

  Basis Set: AUG-CC-PVTZ
    Blend: AUG-CC-PVTZ
  Basis Set: (AUG-CC-PVTZ AUX)
    Blend: AUG-CC-PVTZ-JKFIT
	 Reference Energy          =    -451.6528939131738980 [Eh]
	 Singles Energy            =      -0.0000000000000000 [Eh]
	 Same-Spin Energy          =      -0.4571148437889790 [Eh]
	 Opposite-Spin Energy      =      -1.3841833859937611 [Eh]
	 Correlation Energy        =      -1.8412982297827400 [Eh]
	 Total Energy              =    -453.4941921429566491 [Eh]

	 ================> DF-SCS-MP2 Energies <==================
	-----------------------------------------------------------
	 SCS Same-Spin Scale       =       0.3333333333333333 [-]
	 SCS Opposite-Spin Scale   =       1.2000000000000000 [-]
	 SCS Same-Spin Energy      =      -0.1523716145963263 [Eh]
	 SCS Opposite-Spin Energy  =      -1.6610200631925134 [Eh]
	 SCS Correlation Energy    =      -1.8133916777888397 [Eh]
	 SCS Total Energy          =    -453.4662855909627410 [Eh]
	-----------------------------------------------------------

  Dipole Moment: [D]
     X:    -3.1783      Y:    -3.8474      Z:    -0.0010     Total:     4.9904

*** Psi4 exiting successfully. Buy a developer a beer!
