                               Psi4 1.3.2 release

  ==> Input File <==

--------------------------------------------------------------------------
#psi4
#
memory 32 gb

molecule  {
0 1
  O       -1.3945310     1.8555980     0.0000210
  O        2.9082060     0.2751580    -0.0000600
  N       -1.0520140    -0.4103806     0.0002018
  N        0.7349370     0.9985730     0.0002800
  C       -0.6489740     0.8800530    -0.0003070
  C       -0.2041810    -1.5011250     0.0000420
  C       -2.5282030    -0.6963170    -0.0000730
  C        1.1327958    -1.2966326     0.0000810
  C        1.7104040    -0.0052910    -0.0002190
  H       -0.6762750    -2.4793460     0.0001770
  H       -2.8113470    -1.2573270     0.8936330
  H       -2.8107340    -1.2584070    -0.8933430
  H       -3.0286960     0.2691590    -0.0008180
  H        1.0742980     1.9581480     0.0003170
  H        1.8167570    -2.1872720    -0.0000870
units angstrom
no_reorient  #important for SAPT in psi4, default
symmetry c1  #important for SAPT in psi4, default
}

set PROPERTIES_ORIGIN ["COM"]
properties('MP2/aug-cc-pvtz', properties = ['dipole'])
--------------------------------------------------------------------------

    Molecular point group: c1
  Charge       = 0
  Multiplicity = 1
  Basis Set: AUG-CC-PVTZ
    Blend: AUG-CC-PVTZ
  Basis Set: (AUG-CC-PVTZ AUX)
    Blend: AUG-CC-PVTZ-JKFIT

    Orbital Energies [Eh]
    ---------------------

    Doubly Occupied:

       1A    -20.539699     2A    -20.536240     3A    -15.644960
       4A    -15.621908     5A    -11.412464     6A    -11.375669
       7A    -11.340743     8A    -11.294874     9A    -11.256791
      10A     -1.429234    11A     -1.386607    12A     -1.314261
      13A     -1.241512    14A     -1.094583    15A     -0.992698
      16A     -0.940880    17A     -0.869600    18A     -0.775521
      19A     -0.749234    20A     -0.705521    21A     -0.686691
      22A     -0.650917    23A     -0.641966    24A     -0.614175
      25A     -0.606329    26A     -0.598033    27A     -0.566429
      28A     -0.556026    29A     -0.500859    30A     -0.479142
      31A     -0.445231    32A     -0.430556    33A     -0.362571

  @DF-RHF Final Energy:  -451.65401592329573

   => Energetics <=

    Nuclear Repulsion Energy =            442.6458736225696384
    One-Electron Energy =               -1493.2759310511642070
    Two-Electron Energy =                 598.9760415052990083
    Total Energy =                       -451.6540159232956739
  Basis Set: (AUG-CC-PVTZ AUX)
    Blend: AUG-CC-PVTZ-RI
    Molecular point group: c1

    Geometry (in Angstrom), charge = 0, multiplicity = 1:

       Center              X                  Y                   Z               Mass
    ------------   -----------------  -----------------  -----------------  -----------------
         O           -1.448693439300     1.808850494734     0.000018707665    15.994914619570
         O            2.854043560700     0.228410494734    -0.000062292335    15.994914619570
         N           -1.106176439300    -0.457128105266     0.000199507665    14.003074004430
         N            0.680774560700     0.951825494734     0.000277707665    14.003074004430
         C           -0.703136439300     0.833305494734    -0.000309292335    12.000000000000
         C           -0.258343439300    -1.547872505266     0.000039707665    12.000000000000
         C           -2.582365439300    -0.743064505266    -0.000075292335    12.000000000000
         C            1.078633360700    -1.343380105266     0.000078707665    12.000000000000
         C            1.656241560700    -0.052038505266    -0.000221292335    12.000000000000
         H           -0.730437439300    -2.526093505266     0.000174707665     1.007825032230
         H           -2.865509439300    -1.304074505266     0.893630707665     1.007825032230
         H           -2.864896439300    -1.305154505266    -0.893345292335     1.007825032230
         H           -3.082858439300     0.222411494734    -0.000820292335     1.007825032230
         H            1.020135560700     1.911400494734     0.000314707665     1.007825032230
         H            1.762594560700    -2.234019505266    -0.000089292335     1.007825032230

  Basis Set: AUG-CC-PVTZ
    Blend: AUG-CC-PVTZ
  Basis Set: (AUG-CC-PVTZ AUX)
    Blend: AUG-CC-PVTZ-JKFIT
	 Reference Energy          =    -451.6540159232957308 [Eh]
	 Singles Energy            =      -0.0000000000000000 [Eh]
	 Same-Spin Energy          =      -0.4586934883718999 [Eh]
	 Opposite-Spin Energy      =      -1.3854992683921890 [Eh]
	 Correlation Energy        =      -1.8441927567640888 [Eh]
	 Total Energy              =    -453.4982086800598040 [Eh]

	 ================> DF-SCS-MP2 Energies <==================
	-----------------------------------------------------------
	 SCS Same-Spin Scale       =       0.3333333333333333 [-]
	 SCS Opposite-Spin Scale   =       1.2000000000000000 [-]
	 SCS Same-Spin Energy      =      -0.1528978294573000 [Eh]
	 SCS Opposite-Spin Energy  =      -1.6625991220706267 [Eh]
	 SCS Correlation Energy    =      -1.8154969515279267 [Eh]
	 SCS Total Energy          =    -453.4695128748236357 [Eh]
	-----------------------------------------------------------

  Dipole Moment: [D]
     X:    -3.3838      Y:    -3.8219      Z:    -0.0008     Total:     5.1046

*** Psi4 exiting successfully. Buy a developer a beer!
