                               Psi4 1.3.2 release

  ==> Input File <==

--------------------------------------------------------------------------
#psi4
#
memory 32 gb

molecule  {
0 1
  O       -1.3945310     1.8555980     0.0000210
  O        2.9082060     0.2751580    -0.0000600
  N       -1.0895640    -0.4406340     0.0001970
  N        0.7349370     0.9985730     0.0002800
  C       -0.6489740     0.8800530    -0.0003070
  C       -0.2041810    -1.5011250     0.0000420
  C       -2.5282030    -0.6963170    -0.0000730
  C        1.1391180    -1.3434170     0.0000740
  C        1.7104040    -0.0052910    -0.0002190
  H       -0.6762750    -2.4793460     0.0001770
  H       -2.8113470    -1.2573270     0.8936330
  H       -2.8107340    -1.2584070    -0.8933430
  H       -3.0286960     0.2691590    -0.0008180
  H        1.0742980     1.9581480     0.0003170
  H        1.8167570    -2.1872720    -0.0000870
units angstrom
no_reorient  #important for SAPT in psi4, default
symmetry c1  #important for SAPT in psi4, default
}

set PROPERTIES_ORIGIN ["COM"]
properties('MP2/aug-cc-pvtz', properties = ['dipole'])
--------------------------------------------------------------------------

    Molecular point group: c1
  Charge       = 0
  Multiplicity = 1
  Basis Set: AUG-CC-PVTZ
    Blend: AUG-CC-PVTZ
  Basis Set: (AUG-CC-PVTZ AUX)
    Blend: AUG-CC-PVTZ-JKFIT

    Orbital Energies [Eh]
    ---------------------

    Doubly Occupied:

       1A    -20.545495     2A    -20.538813     3A    -15.644484
       4A    -15.626577     5A    -11.418538     6A    -11.379849
       7A    -11.337138     8A    -11.289998     9A    -11.256159
      10A     -1.428365    11A     -1.388132    12A     -1.312338
      13A     -1.245645    14A     -1.091175    15A     -0.989661
      16A     -0.930693    17A     -0.872359    18A     -0.771984
      19A     -0.752252    20A     -0.699892    21A     -0.685227
      22A     -0.657838    23A     -0.644218    24A     -0.614937
      25A     -0.610190    26A     -0.602264    27A     -0.571862
      28A     -0.554217    29A     -0.499437    30A     -0.479979
      31A     -0.446135    32A     -0.433064    33A     -0.360649

  @DF-RHF Final Energy:  -451.66054599282580

   => Energetics <=

    Nuclear Repulsion Energy =            441.1763510622512854
    One-Electron Energy =               -1490.3146701594203023
    Two-Electron Energy =                 597.4777731043432141
    Total Energy =                       -451.6605459928257460
  Basis Set: (AUG-CC-PVTZ AUX)
    Blend: AUG-CC-PVTZ-RI
    Molecular point group: c1

    Geometry (in Angstrom), charge = 0, multiplicity = 1:

       Center              X                  Y                   Z               Mass
    ------------   -----------------  -----------------  -----------------  -----------------
         O           -1.445123631473     1.816665716254     0.000019907374    15.994914619570
         O            2.857613368527     0.236225716254    -0.000061092626    15.994914619570
         N           -1.140156631473    -0.479566283746     0.000195907374    14.003074004430
         N            0.684344368527     0.959640716254     0.000278907374    14.003074004430
         C           -0.699566631473     0.841120716254    -0.000308092626    12.000000000000
         C           -0.254773631473    -1.540057283746     0.000040907374    12.000000000000
         C           -2.578795631473    -0.735249283746    -0.000074092626    12.000000000000
         C            1.088525368527    -1.382349283746     0.000072907374    12.000000000000
         C            1.659811368527    -0.044223283746    -0.000220092626    12.000000000000
         H           -0.726867631473    -2.518278283746     0.000175907374     1.007825032230
         H           -2.861939631473    -1.296259283746     0.893631907374     1.007825032230
         H           -2.861326631473    -1.297339283746    -0.893344092626     1.007825032230
         H           -3.079288631473     0.230226716254    -0.000819092626     1.007825032230
         H            1.023705368527     1.919215716254     0.000315907374     1.007825032230
         H            1.766164368527    -2.226204283746    -0.000088092626     1.007825032230

  Basis Set: AUG-CC-PVTZ
    Blend: AUG-CC-PVTZ
  Basis Set: (AUG-CC-PVTZ AUX)
    Blend: AUG-CC-PVTZ-JKFIT
	 Reference Energy          =    -451.6605459928258028 [Eh]
	 Singles Energy            =      -0.0000000000000000 [Eh]
	 Same-Spin Energy          =      -0.4580525348623309 [Eh]
	 Opposite-Spin Energy      =      -1.3848174990631756 [Eh]
	 Correlation Energy        =      -1.8428700339255064 [Eh]
	 Total Energy              =    -453.5034160267513244 [Eh]

	 ================> DF-SCS-MP2 Energies <==================
	-----------------------------------------------------------
	 SCS Same-Spin Scale       =       0.3333333333333333 [-]
	 SCS Opposite-Spin Scale   =       1.2000000000000000 [-]
	 SCS Same-Spin Energy      =      -0.1526841782874436 [Eh]
	 SCS Opposite-Spin Energy  =      -1.6617809988758108 [Eh]
	 SCS Correlation Energy    =      -1.8144651771632545 [Eh]
	 SCS Total Energy          =    -453.4750111699890454 [Eh]
	-----------------------------------------------------------

  Dipole Moment: [D]
     X:    -3.2355      Y:    -3.5402      Z:    -0.0009     Total:     4.7960

*** Psi4 exiting successfully. Buy a developer a beer!
