                               Psi4 1.3.2 release

  ==> Input File <==

--------------------------------------------------------------------------
#psi4
#
memory 32 gb

molecule  {
0 1
  O       -1.3945310     1.8555980     0.0000210
  O        2.9082060     0.2751580    -0.0000600
  N       -1.0895640    -0.4406340     0.0001970
  N        0.7349370     0.9985730     0.0002800
  C       -0.6489740     0.8800530    -0.0003070
  C       -0.2041810    -1.5011250     0.0000420
  C       -2.5282030    -0.6963170    -0.0000730
  C        1.1391180    -1.3434170     0.0000740
  C        1.6565290    -0.0549672    -0.0002084
  H       -0.6762750    -2.4793460     0.0001770
  H       -2.8113470    -1.2573270     0.8936330
  H       -2.8107340    -1.2584070    -0.8933430
  H       -3.0286960     0.2691590    -0.0008180
  H        1.0236126     1.9745937     0.0003372
  H        1.8167570    -2.1872720    -0.0000870
units angstrom
no_reorient  #important for SAPT in psi4, default
symmetry c1  #important for SAPT in psi4, default
}

set PROPERTIES_ORIGIN ["COM"]
properties('MP2/aug-cc-pvtz', properties = ['dipole'])
--------------------------------------------------------------------------

    Molecular point group: c1
  Charge       = 0
  Multiplicity = 1
  Basis Set: AUG-CC-PVTZ
    Blend: AUG-CC-PVTZ
  Basis Set: (AUG-CC-PVTZ AUX)
    Blend: AUG-CC-PVTZ-JKFIT

    Orbital Energies [Eh]
    ---------------------

    Doubly Occupied:

       1A    -20.547963     2A    -20.525000     3A    -15.651654
       4A    -15.630527     5A    -11.419124     6A    -11.378997
       7A    -11.347633     8A    -11.294195     9A    -11.256703
      10A     -1.430720    11A     -1.353513    12A     -1.314023
      13A     -1.239986    14A     -1.106631    15A     -0.993655
      16A     -0.943975    17A     -0.871986    18A     -0.774597
      19A     -0.763548    20A     -0.704914    21A     -0.689479
      22A     -0.658720    23A     -0.639083    24A     -0.616093
      25A     -0.614839    26A     -0.586396    27A     -0.577218
      28A     -0.544847    29A     -0.503026    30A     -0.480221
      31A     -0.437008    32A     -0.425225    33A     -0.363857

  @DF-RHF Final Energy:  -451.64532574126730

   => Energetics <=

    Nuclear Repulsion Energy =            441.4634101769091217
    One-Electron Energy =               -1490.8467639587377107
    Two-Electron Energy =                 597.7380280405614030
    Total Energy =                       -451.6453257412672428
  Basis Set: (AUG-CC-PVTZ AUX)
    Blend: AUG-CC-PVTZ-RI
    Molecular point group: c1

    Geometry (in Angstrom), charge = 0, multiplicity = 1:

       Center              X                  Y                   Z               Mass
    ------------   -----------------  -----------------  -----------------  -----------------
         O           -1.439589151840     1.821263673662     0.000018736677    15.994914619570
         O            2.863147848160     0.240823673662    -0.000062263323    15.994914619570
         N           -1.134622151840    -0.474968326338     0.000194736677    14.003074004430
         N            0.689878848160     0.964238673662     0.000277736677    14.003074004430
         C           -0.694032151840     0.845718673662    -0.000309263323    12.000000000000
         C           -0.249239151840    -1.535459326338     0.000039736677    12.000000000000
         C           -2.573261151840    -0.730651326338    -0.000075263323    12.000000000000
         C            1.094059848160    -1.377751326338     0.000071736677    12.000000000000
         C            1.611470848160    -0.089301526338    -0.000210663323    12.000000000000
         H           -0.721333151840    -2.513680326338     0.000174736677     1.007825032230
         H           -2.856405151840    -1.291661326338     0.893630736677     1.007825032230
         H           -2.855792151840    -1.292741326338    -0.893345263323     1.007825032230
         H           -3.073754151840     0.234824673662    -0.000820263323     1.007825032230
         H            0.978554448160     1.940259373662     0.000334936677     1.007825032230
         H            1.771698848160    -2.221606326338    -0.000089263323     1.007825032230

  Basis Set: AUG-CC-PVTZ
    Blend: AUG-CC-PVTZ
  Basis Set: (AUG-CC-PVTZ AUX)
    Blend: AUG-CC-PVTZ-JKFIT
	 Reference Energy          =    -451.6453257412672997 [Eh]
	 Singles Energy            =      -0.0000000000000000 [Eh]
	 Same-Spin Energy          =      -0.4602157035280630 [Eh]
	 Opposite-Spin Energy      =      -1.3883489956055726 [Eh]
	 Correlation Energy        =      -1.8485646991336355 [Eh]
	 Total Energy              =    -453.4938904404009463 [Eh]

	 ================> DF-SCS-MP2 Energies <==================
	-----------------------------------------------------------
	 SCS Same-Spin Scale       =       0.3333333333333333 [-]
	 SCS Opposite-Spin Scale   =       1.2000000000000000 [-]
	 SCS Same-Spin Energy      =      -0.1534052345093543 [Eh]
	 SCS Opposite-Spin Energy  =      -1.6660187947266871 [Eh]
	 SCS Correlation Energy    =      -1.8194240292360415 [Eh]
	 SCS Total Energy          =    -453.4647497705033174 [Eh]
	-----------------------------------------------------------

  Dipole Moment: [D]
     X:    -3.7988      Y:    -3.7646      Z:    -0.0007     Total:     5.3482

*** Psi4 exiting successfully. Buy a developer a beer!
