                               Psi4 1.3.2 release

  ==> Input File <==

--------------------------------------------------------------------------
#psi4
#
memory 32 gb

molecule  {
0 1
  O       -1.3945310     1.8555980     0.0000210
  O        2.9082060     0.2751580    -0.0000600
  N       -1.0895640    -0.4406340     0.0001970
  N        0.7349370     0.9985730     0.0002800
  C       -0.5882520     0.8005996    -0.0003337
  C       -0.2041810    -1.5011250     0.0000420
  C       -2.5282030    -0.6963170    -0.0000730
  C        1.1391180    -1.3434170     0.0000740
  C        1.7104040    -0.0052910    -0.0002190
  H       -0.6762750    -2.4793460     0.0001770
  H       -2.8113470    -1.2573270     0.8936330
  H       -2.8107340    -1.2584070    -0.8933430
  H       -3.0286960     0.2691590    -0.0008180
  H        1.0742980     1.9581480     0.0003170
  H        1.8167570    -2.1872720    -0.0000870
units angstrom
no_reorient  #important for SAPT in psi4, default
symmetry c1  #important for SAPT in psi4, default
}

set PROPERTIES_ORIGIN ["COM"]
properties('MP2/aug-cc-pvtz', properties = ['dipole'])
--------------------------------------------------------------------------

    Molecular point group: c1
  Charge       = 0
  Multiplicity = 1
  Basis Set: AUG-CC-PVTZ
    Blend: AUG-CC-PVTZ
  Basis Set: (AUG-CC-PVTZ AUX)
    Blend: AUG-CC-PVTZ-JKFIT

    Orbital Energies [Eh]
    ---------------------

    Doubly Occupied:

       1A    -20.546135     2A    -20.518458     3A    -15.654907
       4A    -15.637650     5A    -11.413657     6A    -11.385966
       7A    -11.342738     8A    -11.294470     9A    -11.265265
      10A     -1.420023    11A     -1.382226    12A     -1.290476
      13A     -1.256767    14A     -1.097558    15A     -1.003997
      16A     -0.941384    17A     -0.882354    18A     -0.788888
      19A     -0.761530    20A     -0.704939    21A     -0.693227
      22A     -0.662465    23A     -0.628212    24A     -0.620352
      25A     -0.609238    26A     -0.604092    27A     -0.566404
      28A     -0.545861    29A     -0.497816    30A     -0.464059
      31A     -0.438891    32A     -0.424971    33A     -0.366610

  @DF-RHF Final Energy:  -451.64154835902514

   => Energetics <=

    Nuclear Repulsion Energy =            441.8580554645614029
    One-Electron Energy =               -1491.5760372232255122
    Two-Electron Energy =                 598.0764333996389723
    Total Energy =                       -451.6415483590251370
  Basis Set: (AUG-CC-PVTZ AUX)
    Blend: AUG-CC-PVTZ-RI
    Molecular point group: c1

    Geometry (in Angstrom), charge = 0, multiplicity = 1:

       Center              X                  Y                   Z               Mass
    ------------   -----------------  -----------------  -----------------  -----------------
         O           -1.450904709514     1.824230129581     0.000022449365    15.994914619570
         O            2.851832290486     0.243790129581    -0.000058550635    15.994914619570
         N           -1.145937709514    -0.472001870419     0.000198449365    14.003074004430
         N            0.678563290486     0.967205129581     0.000281449365    14.003074004430
         C           -0.644625709514     0.769231729581    -0.000332250635    12.000000000000
         C           -0.260554709514    -1.532492870419     0.000043449365    12.000000000000
         C           -2.584576709514    -0.727684870419    -0.000071550635    12.000000000000
         C            1.082744290486    -1.374784870419     0.000075449365    12.000000000000
         C            1.654030290486    -0.036658870419    -0.000217550635    12.000000000000
         H           -0.732648709514    -2.510713870419     0.000178449365     1.007825032230
         H           -2.867720709514    -1.288694870419     0.893634449365     1.007825032230
         H           -2.867107709514    -1.289774870419    -0.893341550635     1.007825032230
         H           -3.085069709514     0.237791129581    -0.000816550635     1.007825032230
         H            1.017924290486     1.926780129581     0.000318449365     1.007825032230
         H            1.760383290486    -2.218639870419    -0.000085550635     1.007825032230

  Basis Set: AUG-CC-PVTZ
    Blend: AUG-CC-PVTZ
  Basis Set: (AUG-CC-PVTZ AUX)
    Blend: AUG-CC-PVTZ-JKFIT
	 Reference Energy          =    -451.6415483590251370 [Eh]
	 Singles Energy            =      -0.0000000000000000 [Eh]
	 Same-Spin Energy          =      -0.4592949613582705 [Eh]
	 Opposite-Spin Energy      =      -1.3871341689775425 [Eh]
	 Correlation Energy        =      -1.8464291303358129 [Eh]
	 Total Energy              =    -453.4879774893609579 [Eh]

	 ================> DF-SCS-MP2 Energies <==================
	-----------------------------------------------------------
	 SCS Same-Spin Scale       =       0.3333333333333333 [-]
	 SCS Opposite-Spin Scale   =       1.2000000000000000 [-]
	 SCS Same-Spin Energy      =      -0.1530983204527568 [Eh]
	 SCS Opposite-Spin Energy  =      -1.6645610027730509 [Eh]
	 SCS Correlation Energy    =      -1.8176593232258076 [Eh]
	 SCS Total Energy          =    -453.4592076822509625 [Eh]
	-----------------------------------------------------------

  Dipole Moment: [D]
     X:    -2.6539      Y:    -4.3225      Z:    -0.0007     Total:     5.0722

*** Psi4 exiting successfully. Buy a developer a beer!
