                               Psi4 1.3.2 release

  ==> Input File <==

--------------------------------------------------------------------------
#psi4
#
memory 32 gb

molecule  {
0 1
  O       -1.3945310     1.8555980     0.0000210
  O        2.9082060     0.2751580    -0.0000600
  N       -1.0328488    -0.3957500     0.0001832
  N        0.7349370     0.9985730     0.0002800
  C       -0.6489740     0.8800530    -0.0003070
  C       -0.2041810    -1.5011250     0.0000420
  C       -2.5282030    -0.6963170    -0.0000730
  C        1.1391180    -1.3434170     0.0000740
  C        1.7104040    -0.0052910    -0.0002190
  H       -0.6244319    -2.5027129     0.0001666
  H       -2.8113470    -1.2573270     0.8936330
  H       -2.8107340    -1.2584070    -0.8933430
  H       -3.0286960     0.2691590    -0.0008180
  H        1.0742980     1.9581480     0.0003170
  H        1.8167570    -2.1872720    -0.0000870
units angstrom
no_reorient  #important for SAPT in psi4, default
symmetry c1  #important for SAPT in psi4, default
}

set PROPERTIES_ORIGIN ["COM"]
properties('MP2/aug-cc-pvtz', properties = ['dipole'])
--------------------------------------------------------------------------

    Molecular point group: c1
  Charge       = 0
  Multiplicity = 1
  Basis Set: AUG-CC-PVTZ
    Blend: AUG-CC-PVTZ
  Basis Set: (AUG-CC-PVTZ AUX)
    Blend: AUG-CC-PVTZ-JKFIT

    Orbital Energies [Eh]
    ---------------------

    Doubly Occupied:

       1A    -20.537788     2A    -20.537319     3A    -15.645182
       4A    -15.621184     5A    -11.410080     6A    -11.378356
       7A    -11.337600     8A    -11.296652     9A    -11.257264
      10A     -1.429789    11A     -1.386378    12A     -1.313822
      13A     -1.239233    14A     -1.092880    15A     -0.992886
      16A     -0.934735    17A     -0.870855    18A     -0.776490
      19A     -0.749826    20A     -0.700988    21A     -0.686676
      22A     -0.652194    23A     -0.640535    24A     -0.612647
      25A     -0.610121    26A     -0.592419    27A     -0.573681
      28A     -0.555483    29A     -0.500826    30A     -0.477226
      31A     -0.443688    32A     -0.430237    33A     -0.363356

  @DF-RHF Final Energy:  -451.65416987851768

   => Energetics <=

    Nuclear Repulsion Energy =            442.0756875226460352
    One-Electron Energy =               -1492.1629220899117172
    Two-Electron Energy =                 598.4330646887478906
    Total Energy =                       -451.6541698785176777
  Basis Set: (AUG-CC-PVTZ AUX)
    Blend: AUG-CC-PVTZ-RI
    Molecular point group: c1

    Geometry (in Angstrom), charge = 0, multiplicity = 1:

       Center              X                  Y                   Z               Mass
    ------------   -----------------  -----------------  -----------------  -----------------
         O           -1.451839088928     1.811866048085     0.000021523679    15.994914619570
         O            2.850897911072     0.231426048085    -0.000059476321    15.994914619570
         N           -1.090156888928    -0.439481951915     0.000183723679    14.003074004430
         N            0.677628911072     0.954841048085     0.000280523679    14.003074004430
         C           -0.706282088928     0.836321048085    -0.000306476321    12.000000000000
         C           -0.261489088928    -1.544856951915     0.000042523679    12.000000000000
         C           -2.585511088928    -0.740048951915    -0.000072476321    12.000000000000
         C            1.081809911072    -1.387148951915     0.000074523679    12.000000000000
         C            1.653095911072    -0.049022951915    -0.000218476321    12.000000000000
         H           -0.681739988928    -2.546444851915     0.000167123679     1.007825032230
         H           -2.868655088928    -1.301058951915     0.893633523679     1.007825032230
         H           -2.868042088928    -1.302138951915    -0.893342476321     1.007825032230
         H           -3.086004088928     0.225427048085    -0.000817476321     1.007825032230
         H            1.016989911072     1.914416048085     0.000317523679     1.007825032230
         H            1.759448911072    -2.231003951915    -0.000086476321     1.007825032230

  Basis Set: AUG-CC-PVTZ
    Blend: AUG-CC-PVTZ
  Basis Set: (AUG-CC-PVTZ AUX)
    Blend: AUG-CC-PVTZ-JKFIT
	 Reference Energy          =    -451.6541698785176777 [Eh]
	 Singles Energy            =      -0.0000000000000000 [Eh]
	 Same-Spin Energy          =      -0.4579358059510344 [Eh]
	 Opposite-Spin Energy      =      -1.3847980155682731 [Eh]
	 Correlation Energy        =      -1.8427338215193074 [Eh]
	 Total Energy              =    -453.4969037000369667 [Eh]

	 ================> DF-SCS-MP2 Energies <==================
	-----------------------------------------------------------
	 SCS Same-Spin Scale       =       0.3333333333333333 [-]
	 SCS Opposite-Spin Scale   =       1.2000000000000000 [-]
	 SCS Same-Spin Energy      =      -0.1526452686503448 [Eh]
	 SCS Opposite-Spin Energy  =      -1.6617576186819276 [Eh]
	 SCS Correlation Energy    =      -1.8144028873322724 [Eh]
	 SCS Total Energy          =    -453.4685727658499559 [Eh]
	-----------------------------------------------------------

  Dipole Moment: [D]
     X:    -3.3121      Y:    -3.8722      Z:    -0.0008     Total:     5.0955

*** Psi4 exiting successfully. Buy a developer a beer!
