                               Psi4 1.3.2 release

  ==> Input File <==

--------------------------------------------------------------------------
#psi4
#
memory 32 gb

molecule  {
0 1
  O       -1.3945310     1.8555980     0.0000210
  O        2.9082060     0.2751580    -0.0000600
  N       -1.0895640    -0.4406340     0.0001970
  N        0.7349370     0.9985730     0.0002800
  C       -0.6489740     0.8800530    -0.0003070
  C       -0.2027536    -1.5128413     0.0000398
  C       -2.5282030    -0.6963170    -0.0000730
  C        1.1391180    -1.3434170     0.0000740
  C        1.7104040    -0.0052910    -0.0002190
  H       -0.6762750    -2.4793460     0.0001770
  H       -2.8113470    -1.2573270     0.8936330
  H       -2.8107340    -1.2584070    -0.8933430
  H       -3.0286960     0.2691590    -0.0008180
  H        1.0742980     1.9581480     0.0003170
  H        1.8093673    -2.1931533    -0.0000881
units angstrom
no_reorient  #important for SAPT in psi4, default
symmetry c1  #important for SAPT in psi4, default
}

set PROPERTIES_ORIGIN ["COM"]
properties('MP2/aug-cc-pvtz', properties = ['dipole'])
--------------------------------------------------------------------------

    Molecular point group: c1
  Charge       = 0
  Multiplicity = 1
  Basis Set: AUG-CC-PVTZ
    Blend: AUG-CC-PVTZ
  Basis Set: (AUG-CC-PVTZ AUX)
    Blend: AUG-CC-PVTZ-JKFIT

    Orbital Energies [Eh]
    ---------------------

    Doubly Occupied:

       1A    -20.544986     2A    -20.539633     3A    -15.643511
       4A    -15.626595     5A    -11.418141     6A    -11.380838
       7A    -11.337088     8A    -11.289174     9A    -11.257203
      10A     -1.427632    11A     -1.388627    12A     -1.309757
      13A     -1.245166    14A     -1.091547    15A     -0.988536
      16A     -0.930546    17A     -0.872059    18A     -0.771571
      19A     -0.751712    20A     -0.702101    21A     -0.683991
      22A     -0.657561    23A     -0.644315    24A     -0.614656
      25A     -0.610313    26A     -0.603075    27A     -0.570406
      28A     -0.554283    29A     -0.497787    30A     -0.480062
      31A     -0.446769    32A     -0.433120    33A     -0.361289

  @DF-RHF Final Energy:  -451.66016217591613

   => Energetics <=

    Nuclear Repulsion Energy =            440.9436242826369607
    One-Electron Energy =               -1489.8594737124965377
    Two-Electron Energy =                 597.2556872539432788
    Total Energy =                       -451.6601621759161844
  Basis Set: (AUG-CC-PVTZ AUX)
    Blend: AUG-CC-PVTZ-RI
    Molecular point group: c1

    Geometry (in Angstrom), charge = 0, multiplicity = 1:

       Center              X                  Y                   Z               Mass
    ------------   -----------------  -----------------  -----------------  -----------------
         O           -1.445200440823     1.817828200531     0.000020125622    15.994914619570
         O            2.857536559177     0.237388200531    -0.000060874378    15.994914619570
         N           -1.140233440823    -0.478403799469     0.000196125622    14.003074004430
         N            0.684267559177     0.960803200531     0.000279125622    14.003074004430
         C           -0.699643440823     0.842283200531    -0.000307874378    12.000000000000
         C           -0.253423040823    -1.550611099469     0.000038925622    12.000000000000
         C           -2.578872440823    -0.734086799469    -0.000073874378    12.000000000000
         C            1.088448559177    -1.381186799469     0.000073125622    12.000000000000
         C            1.659734559177    -0.043060799469    -0.000219874378    12.000000000000
         H           -0.726944440823    -2.517115799469     0.000176125622     1.007825032230
         H           -2.862016440823    -1.295096799469     0.893632125622     1.007825032230
         H           -2.861403440823    -1.296176799469    -0.893343874378     1.007825032230
         H           -3.079365440823     0.231389200531    -0.000818874378     1.007825032230
         H            1.023628559177     1.920378200531     0.000316125622     1.007825032230
         H            1.758697859177    -2.230923099469    -0.000088974378     1.007825032230

  Basis Set: AUG-CC-PVTZ
    Blend: AUG-CC-PVTZ
  Basis Set: (AUG-CC-PVTZ AUX)
    Blend: AUG-CC-PVTZ-JKFIT
	 Reference Energy          =    -451.6601621759161276 [Eh]
	 Singles Energy            =      -0.0000000000000000 [Eh]
	 Same-Spin Energy          =      -0.4579937433037819 [Eh]
	 Opposite-Spin Energy      =      -1.3849138668617429 [Eh]
	 Correlation Energy        =      -1.8429076101655248 [Eh]
	 Total Energy              =    -453.5030697860816531 [Eh]

	 ================> DF-SCS-MP2 Energies <==================
	-----------------------------------------------------------
	 SCS Same-Spin Scale       =       0.3333333333333333 [-]
	 SCS Opposite-Spin Scale   =       1.2000000000000000 [-]
	 SCS Same-Spin Energy      =      -0.1526645811012606 [Eh]
	 SCS Opposite-Spin Energy  =      -1.6618966402340913 [Eh]
	 SCS Correlation Energy    =      -1.8145612213353519 [Eh]
	 SCS Total Energy          =    -453.4747233972514664 [Eh]
	-----------------------------------------------------------

  Dipole Moment: [D]
     X:    -3.1898      Y:    -3.5655      Z:    -0.0009     Total:     4.7841

*** Psi4 exiting successfully. Buy a developer a beer!
