                               Psi4 1.3.2 release

  ==> Input File <==

--------------------------------------------------------------------------
#psi4
#
memory 32 gb

molecule  {
0 1
  O       -1.3945310     1.8555980     0.0000210
  O        2.9082060     0.2751580    -0.0000600
  N       -1.0895640    -0.4406340     0.0001970
  N        0.7349370     0.9985730     0.0002800
  C       -0.6489740     0.8800530    -0.0003070
  C       -0.2041810    -1.5011250     0.0000420
  C       -2.5282030    -0.6963170    -0.0000730
  C        1.1391180    -1.3434170     0.0000740
  C        1.6711397    -0.0972601    -0.0001989
  H       -0.6762750    -2.4793460     0.0001770
  H       -2.8113470    -1.2573270     0.8936330
  H       -2.8107340    -1.2584070    -0.8933430
  H       -3.0286960     0.2691590    -0.0008180
  H        1.0742980     1.9581480     0.0003170
  H        1.8167570    -2.1872720    -0.0000870
units angstrom
no_reorient  #important for SAPT in psi4, default
symmetry c1  #important for SAPT in psi4, default
}

set PROPERTIES_ORIGIN ["COM"]
properties('MP2/aug-cc-pvtz', properties = ['dipole'])
--------------------------------------------------------------------------

    Molecular point group: c1
  Charge       = 0
  Multiplicity = 1
  Basis Set: AUG-CC-PVTZ
    Blend: AUG-CC-PVTZ
  Basis Set: (AUG-CC-PVTZ AUX)
    Blend: AUG-CC-PVTZ-JKFIT

    Orbital Energies [Eh]
    ---------------------

    Doubly Occupied:

       1A    -20.544362     2A    -20.526759     3A    -15.653422
       4A    -15.624574     5A    -11.416110     6A    -11.378473
       7A    -11.353561     8A    -11.294817     9A    -11.254671
      10A     -1.426824    11A     -1.351951    12A     -1.314721
      13A     -1.230146    14A     -1.113370    15A     -0.994143
      16A     -0.948850    17A     -0.862003    18A     -0.774962
      19A     -0.762151    20A     -0.705944    21A     -0.688446
      22A     -0.656213    23A     -0.639803    24A     -0.615391
      25A     -0.611615    26A     -0.590336    27A     -0.575935
      28A     -0.545064    29A     -0.501962    30A     -0.479027
      31A     -0.436303    32A     -0.423048    33A     -0.365946

  @DF-RHF Final Energy:  -451.63924106296031

   => Energetics <=

    Nuclear Repulsion Energy =            441.2239572813827522
    One-Electron Energy =               -1490.4045901147117092
    Two-Electron Energy =                 597.5413917703685911
    Total Energy =                       -451.6392410629603091
  Basis Set: (AUG-CC-PVTZ AUX)
    Blend: AUG-CC-PVTZ-RI
    Molecular point group: c1

    Geometry (in Angstrom), charge = 0, multiplicity = 1:

       Center              X                  Y                   Z               Mass
    ------------   -----------------  -----------------  -----------------  -----------------
         O           -1.441385447907     1.825421695050     0.000017993740    15.994914619570
         O            2.861351552093     0.244981695050    -0.000063006260    15.994914619570
         N           -1.136418447907    -0.470810304950     0.000193993740    14.003074004430
         N            0.688082552093     0.968396695050     0.000276993740    14.003074004430
         C           -0.695828447907     0.849876695050    -0.000310006260    12.000000000000
         C           -0.251035447907    -1.531301304950     0.000038993740    12.000000000000
         C           -2.575057447907    -0.726493304950    -0.000076006260    12.000000000000
         C            1.092263552093    -1.373593304950     0.000070993740    12.000000000000
         C            1.624285252093    -0.127436404950    -0.000201906260    12.000000000000
         H           -0.723129447907    -2.509522304950     0.000173993740     1.007825032230
         H           -2.858201447907    -1.287503304950     0.893629993740     1.007825032230
         H           -2.857588447907    -1.288583304950    -0.893346006260     1.007825032230
         H           -3.075550447907     0.238982695050    -0.000821006260     1.007825032230
         H            1.027443552093     1.927971695050     0.000313993740     1.007825032230
         H            1.769902552093    -2.217448304950    -0.000090006260     1.007825032230

  Basis Set: AUG-CC-PVTZ
    Blend: AUG-CC-PVTZ
  Basis Set: (AUG-CC-PVTZ AUX)
    Blend: AUG-CC-PVTZ-JKFIT
	 Reference Energy          =    -451.6392410629603091 [Eh]
	 Singles Energy            =      -0.0000000000000000 [Eh]
	 Same-Spin Energy          =      -0.4607271287723121 [Eh]
	 Opposite-Spin Energy      =      -1.3891515671754231 [Eh]
	 Correlation Energy        =      -1.8498786959477354 [Eh]
	 Total Energy              =    -453.4891197589080321 [Eh]

	 ================> DF-SCS-MP2 Energies <==================
	-----------------------------------------------------------
	 SCS Same-Spin Scale       =       0.3333333333333333 [-]
	 SCS Opposite-Spin Scale   =       1.2000000000000000 [-]
	 SCS Same-Spin Energy      =      -0.1535757095907707 [Eh]
	 SCS Opposite-Spin Energy  =      -1.6669818806105077 [Eh]
	 SCS Correlation Energy    =      -1.8205575902012785 [Eh]
	 SCS Total Energy          =    -453.4597986531616129 [Eh]
	-----------------------------------------------------------

  Dipole Moment: [D]
     X:    -3.7047      Y:    -3.9787      Z:    -0.0008     Total:     5.4365

*** Psi4 exiting successfully. Buy a developer a beer!
