                               Psi4 1.4a3.dev225

  ==> Input File <==

--------------------------------------------------------------------------
#psi4
#
memory 32 gb

molecule  {
0 1
  O       -1.4350980    -1.8086910     0.0000000
  O        2.9075840    -0.3082450     0.0000000
  N       -1.0785060     0.4619330     0.0000000
  N        0.7249750    -1.0056720    -0.0000010
  C       -0.6019673    -0.8692225    -0.0000000
  C       -0.1841290     1.5083600     0.0000000
  C       -2.5245930     0.6731660     0.0000000
  C        1.1582900     1.3329580     0.0000000
  C        1.7164880    -0.0081480     0.0000000
  H       -0.6338540     2.4967290    -0.0000010
  H       -2.9690000     0.2175100    -0.8862740
  H       -2.7140630     1.7465080     0.0000000
  H       -2.9689990     0.2175090     0.8862740
  H        1.0585810    -1.9665760     0.0000000
  H        1.8360540     2.1766110     0.0000000
units angstrom
no_reorient  #important for SAPT in psi4, default
symmetry c1  #important for SAPT in psi4, default
}

set PROPERTIES_ORIGIN ["COM"]
properties('MP2/aug-cc-pvtz', properties = ['dipole'])
--------------------------------------------------------------------------

    Molecular point group: c1
  Charge       = 0
  Multiplicity = 1
  Basis Set: AUG-CC-PVTZ
    Blend: AUG-CC-PVTZ
  Basis Set: (AUG-CC-PVTZ AUX)
    Blend: AUG-CC-PVTZ-JKFIT

    Orbital Energies [Eh]
    ---------------------

    Doubly Occupied:

       1A    -20.543233     2A    -20.538620     3A    -15.644363
       4A    -15.634795     5A    -11.416070     6A    -11.384526
       7A    -11.338689     8A    -11.291423     9A    -11.253362
      10A     -1.423053    11A     -1.387879    12A     -1.302973
      13A     -1.261038    14A     -1.091079    15A     -0.988241
      16A     -0.929739    17A     -0.884835    18A     -0.775371
      19A     -0.755815    20A     -0.701085    21A     -0.684780
      22A     -0.659411    23A     -0.636209    24A     -0.615012
      25A     -0.608850    26A     -0.604397    27A     -0.574374
      28A     -0.546545    29A     -0.502454    30A     -0.472861
      31A     -0.449681    32A     -0.434980    33A     -0.357354

  @DF-RHF Final Energy:  -451.65644765540270

   => Energetics <=

    Nuclear Repulsion Energy =            441.6584898705948490
    One-Electron Energy =               -1491.2436818062651582
    Two-Electron Energy =                 597.9287442802676651
    Total Energy =                       -451.6564476554026442
  Basis Set: (AUG-CC-PVTZ AUX)
    Blend: AUG-CC-PVTZ-RI
    Molecular point group: c1

    Geometry (in Angstrom), charge = 0, multiplicity = 1:

       Center              X                  Y                   Z               Mass
    ------------   -----------------  -----------------  -----------------  -----------------
         O           -1.490075606864    -1.769796917674     0.000000119094    15.994914619570
         O            2.852606393136    -0.269350917674     0.000000119094    15.994914619570
         N           -1.133483606864     0.500827082326     0.000000119094    14.003074004430
         N            0.669997393136    -0.966777917674    -0.000000880906    14.003074004430
         C           -0.656944906864    -0.830328417674     0.000000119094    12.000000000000
         C           -0.239106606864     1.547254082326     0.000000119094    12.000000000000
         C           -2.579570606864     0.712060082326     0.000000119094    12.000000000000
         C            1.103312393136     1.371852082326     0.000000119094    12.000000000000
         C            1.661510393136     0.030746082326     0.000000119094    12.000000000000
         H           -0.688831606864     2.535623082326    -0.000000880906     1.007825032230
         H           -3.023977606864     0.256404082326    -0.886273880906     1.007825032230
         H           -2.769040606864     1.785402082326     0.000000119094     1.007825032230
         H           -3.023976606864     0.256403082326     0.886274119094     1.007825032230
         H            1.003603393136    -1.927681917674     0.000000119094     1.007825032230
         H            1.781076393136     2.215505082326     0.000000119094     1.007825032230

  Basis Set: AUG-CC-PVTZ
    Blend: AUG-CC-PVTZ
  Basis Set: (AUG-CC-PVTZ AUX)
    Blend: AUG-CC-PVTZ-JKFIT
	 Reference Energy          =    -451.6564476554027010 [Eh]
	 Singles Energy            =      -0.0000000000000000 [Eh]
	 Same-Spin Energy          =      -0.4585608865232226 [Eh]
	 Opposite-Spin Energy      =      -1.3854496711836406 [Eh]
	 Correlation Energy        =      -1.8440105577068633 [Eh]
	 Total Energy              =    -453.5004582131095390 [Eh]

	 ================> DF-SCS-MP2 Energies <==================
	-----------------------------------------------------------
	 SCS Same-Spin Scale       =       0.3333333333333333 [-]
	 SCS Opposite-Spin Scale   =       1.2000000000000000 [-]
	 SCS Same-Spin Energy      =      -0.1528536288410742 [Eh]
	 SCS Opposite-Spin Energy  =      -1.6625396054203687 [Eh]
	 SCS Correlation Energy    =      -1.8153932342614429 [Eh]
	 SCS Total Energy          =    -453.4718408896641222 [Eh]
	-----------------------------------------------------------

  Dipole Moment: [D]
     X:    -2.8819      Y:     3.5876      Z:     0.0000     Total:     4.6017

*** Psi4 exiting successfully. Buy a developer a beer!
