                               Psi4 1.4a3.dev225

  ==> Input File <==

--------------------------------------------------------------------------
#psi4
#
memory 32 gb

molecule  {
0 1
  O       -1.4350980    -1.8086910     0.0000000
  O        2.9075840    -0.3082450     0.0000000
  N       -1.0785060     0.4619330     0.0000000
  N        0.7249750    -1.0056720    -0.0000010
  C       -0.6318099    -0.8661538    -0.0000000
  C       -0.1841290     1.5083600     0.0000000
  C       -2.5245930     0.6731660     0.0000000
  C        1.1582900     1.3329580     0.0000000
  C        1.7164880    -0.0081480     0.0000000
  H       -0.6338540     2.4967290    -0.0000010
  H       -2.9690000     0.2175100    -0.8862740
  H       -2.7140630     1.7465080     0.0000000
  H       -2.9689990     0.2175090     0.8862740
  H        1.0585810    -1.9665760     0.0000000
  H        1.8360540     2.1766110     0.0000000
units angstrom
no_reorient  #important for SAPT in psi4, default
symmetry c1  #important for SAPT in psi4, default
}

set PROPERTIES_ORIGIN ["COM"]
properties('MP2/aug-cc-pvtz', properties = ['dipole'])
--------------------------------------------------------------------------

    Molecular point group: c1
  Charge       = 0
  Multiplicity = 1
  Basis Set: AUG-CC-PVTZ
    Blend: AUG-CC-PVTZ
  Basis Set: (AUG-CC-PVTZ AUX)
    Blend: AUG-CC-PVTZ-JKFIT

    Orbital Energies [Eh]
    ---------------------

    Doubly Occupied:

       1A    -20.543038     2A    -20.540404     3A    -15.644696
       4A    -15.629973     5A    -11.416215     6A    -11.381673
       7A    -11.338440     8A    -11.292184     9A    -11.253458
      10A     -1.425690    11A     -1.388934    12A     -1.308605
      13A     -1.252268    14A     -1.091132    15A     -0.988699
      16A     -0.930655    17A     -0.877197    18A     -0.773817
      19A     -0.753292    20A     -0.701051    21A     -0.685355
      22A     -0.658434    23A     -0.640959    24A     -0.612366
      25A     -0.608328    26A     -0.603384    27A     -0.576990
      28A     -0.548856    29A     -0.502812    30A     -0.477295
      31A     -0.447690    32A     -0.434054    33A     -0.358089

  @DF-RHF Final Energy:  -451.66027543294570

   => Energetics <=

    Nuclear Repulsion Energy =            441.6137546113446888
    One-Electron Energy =               -1491.1759933488717706
    Two-Electron Energy =                 597.9019633045812725
    Total Energy =                       -451.6602754329456957
  Basis Set: (AUG-CC-PVTZ AUX)
    Blend: AUG-CC-PVTZ-RI
    Molecular point group: c1

    Geometry (in Angstrom), charge = 0, multiplicity = 1:

       Center              X                  Y                   Z               Mass
    ------------   -----------------  -----------------  -----------------  -----------------
         O           -1.487234422457    -1.770089075280     0.000000119094    15.994914619570
         O            2.855447577543    -0.269643075280     0.000000119094    15.994914619570
         N           -1.130642422457     0.500534924720     0.000000119094    14.003074004430
         N            0.672838577543    -0.967070075280    -0.000000880906    14.003074004430
         C           -0.683946322457    -0.827551875280     0.000000119094    12.000000000000
         C           -0.236265422457     1.546961924720     0.000000119094    12.000000000000
         C           -2.576729422457     0.711767924720     0.000000119094    12.000000000000
         C            1.106153577543     1.371559924720     0.000000119094    12.000000000000
         C            1.664351577543     0.030453924720     0.000000119094    12.000000000000
         H           -0.685990422457     2.535330924720    -0.000000880906     1.007825032230
         H           -3.021136422457     0.256111924720    -0.886273880906     1.007825032230
         H           -2.766199422457     1.785109924720     0.000000119094     1.007825032230
         H           -3.021135422457     0.256110924720     0.886274119094     1.007825032230
         H            1.006444577543    -1.927974075280     0.000000119094     1.007825032230
         H            1.783917577543     2.215212924720     0.000000119094     1.007825032230

  Basis Set: AUG-CC-PVTZ
    Blend: AUG-CC-PVTZ
  Basis Set: (AUG-CC-PVTZ AUX)
    Blend: AUG-CC-PVTZ-JKFIT
	 Reference Energy          =    -451.6602754329456957 [Eh]
	 Singles Energy            =      -0.0000000000000000 [Eh]
	 Same-Spin Energy          =      -0.4582214720352595 [Eh]
	 Opposite-Spin Energy      =      -1.3849242654925353 [Eh]
	 Correlation Energy        =      -1.8431457375277949 [Eh]
	 Total Energy              =    -453.5034211704734730 [Eh]

	 ================> DF-SCS-MP2 Energies <==================
	-----------------------------------------------------------
	 SCS Same-Spin Scale       =       0.3333333333333333 [-]
	 SCS Opposite-Spin Scale   =       1.2000000000000000 [-]
	 SCS Same-Spin Energy      =      -0.1527404906784198 [Eh]
	 SCS Opposite-Spin Energy  =      -1.6619091185910424 [Eh]
	 SCS Correlation Energy    =      -1.8146496092694622 [Eh]
	 SCS Total Energy          =    -453.4749250422151476 [Eh]
	-----------------------------------------------------------

  Dipole Moment: [D]
     X:    -3.0835      Y:     3.5645      Z:     0.0000     Total:     4.7132

*** Psi4 exiting successfully. Buy a developer a beer!
