                               Psi4 1.3.2 release

  ==> Input File <==

--------------------------------------------------------------------------
#psi4
#
memory 32 gb

molecule  {
0 1
  O       -1.3945310     1.8555980     0.0000210
  O        2.9082060     0.2751580    -0.0000600
  N       -1.0895640    -0.4406340     0.0001970
  N        0.7349370     0.9985730     0.0002800
  C       -0.6489740     0.8800530    -0.0003070
  C       -0.2027536    -1.5128413     0.0000449
  C       -2.5282030    -0.6963170    -0.0000730
  C        1.1391180    -1.3434170     0.0000740
  C        1.7220595    -0.0103273    -0.0002172
  H       -0.6762750    -2.4793460     0.0001770
  H       -2.8113470    -1.2573270     0.8936330
  H       -2.8107340    -1.2584070    -0.8933430
  H       -3.0286960     0.2691590    -0.0008180
  H        1.0742980     1.9581480     0.0003170
  H        1.8167570    -2.1872720    -0.0000870
units angstrom
no_reorient  #important for SAPT in psi4, default
symmetry c1  #important for SAPT in psi4, default
}

set PROPERTIES_ORIGIN ["COM"]
properties('MP2/aug-cc-pvtz', properties = ['dipole'])
--------------------------------------------------------------------------

    Molecular point group: c1
  Charge       = 0
  Multiplicity = 1
  Basis Set: AUG-CC-PVTZ
    Blend: AUG-CC-PVTZ
  Basis Set: (AUG-CC-PVTZ AUX)
    Blend: AUG-CC-PVTZ-JKFIT

    Orbital Energies [Eh]
    ---------------------

    Doubly Occupied:

       1A    -20.543668     2A    -20.542195     3A    -15.642780
       4A    -15.624247     5A    -11.416809     6A    -11.380957
       7A    -11.337313     8A    -11.288646     9A    -11.256858
      10A     -1.426709    11A     -1.394705    12A     -1.309011
      13A     -1.242349    14A     -1.091087    15A     -0.987594
      16A     -0.930186    17A     -0.869117    18A     -0.770064
      19A     -0.751107    20A     -0.701945    21A     -0.682965
      22A     -0.657397    23A     -0.645267    24A     -0.613962
      25A     -0.609767    26A     -0.605202    27A     -0.569783
      28A     -0.556116    29A     -0.497183    30A     -0.480011
      31A     -0.447405    32A     -0.433173    33A     -0.361301

  @DF-RHF Final Energy:  -451.66060124922336

   => Energetics <=

    Nuclear Repulsion Energy =            440.8566624036495796
    One-Electron Energy =               -1489.7007745603366402
    Two-Electron Energy =                 597.1835109074636421
    Total Energy =                       -451.6606012492234186
  Basis Set: (AUG-CC-PVTZ AUX)
    Blend: AUG-CC-PVTZ-RI
    Molecular point group: c1

    Geometry (in Angstrom), charge = 0, multiplicity = 1:

       Center              X                  Y                   Z               Mass
    ------------   -----------------  -----------------  -----------------  -----------------
         O           -1.446369197593     1.818260658581     0.000019459907    15.994914619570
         O            2.856367802407     0.237820658581    -0.000061540093    15.994914619570
         N           -1.141402197593    -0.477971341419     0.000195459907    14.003074004430
         N            0.683098802407     0.961235658581     0.000278459907    14.003074004430
         C           -0.700812197593     0.842715658581    -0.000308540093    12.000000000000
         C           -0.254591797593    -1.550178641419     0.000043359907    12.000000000000
         C           -2.580041197593    -0.733654341419    -0.000074540093    12.000000000000
         C            1.087279802407    -1.380754341419     0.000072459907    12.000000000000
         C            1.670221302407    -0.047664641419    -0.000218740093    12.000000000000
         H           -0.728113197593    -2.516683341419     0.000175459907     1.007825032230
         H           -2.863185197593    -1.294664341419     0.893631459907     1.007825032230
         H           -2.862572197593    -1.295744341419    -0.893344540093     1.007825032230
         H           -3.080534197593     0.231821658581    -0.000819540093     1.007825032230
         H            1.022459802407     1.920810658581     0.000315459907     1.007825032230
         H            1.764918802407    -2.224609341419    -0.000088540093     1.007825032230

  Basis Set: AUG-CC-PVTZ
    Blend: AUG-CC-PVTZ
  Basis Set: (AUG-CC-PVTZ AUX)
    Blend: AUG-CC-PVTZ-JKFIT
	 Reference Energy          =    -451.6606012492233617 [Eh]
	 Singles Energy            =      -0.0000000000000000 [Eh]
	 Same-Spin Energy          =      -0.4578068866446115 [Eh]
	 Opposite-Spin Energy      =      -1.3845800101447976 [Eh]
	 Correlation Energy        =      -1.8423868967894090 [Eh]
	 Total Energy              =    -453.5029881460127967 [Eh]

	 ================> DF-SCS-MP2 Energies <==================
	-----------------------------------------------------------
	 SCS Same-Spin Scale       =       0.3333333333333333 [-]
	 SCS Opposite-Spin Scale   =       1.2000000000000000 [-]
	 SCS Same-Spin Energy      =      -0.1526022955482038 [Eh]
	 SCS Opposite-Spin Energy  =      -1.6614960121737570 [Eh]
	 SCS Correlation Energy    =      -1.8140983077219608 [Eh]
	 SCS Total Energy          =    -453.4746995569453247 [Eh]
	-----------------------------------------------------------

  Dipole Moment: [D]
     X:    -3.0816      Y:    -3.5898      Z:    -0.0009     Total:     4.7310

*** Psi4 exiting successfully. Buy a developer a beer!
