                               Psi4 1.3.2 release

  ==> Input File <==

--------------------------------------------------------------------------
#psi4
#
memory 32 gb

molecule  {
0 1
  O       -1.3945310     1.8555980     0.0000210
  O        2.9082060     0.2751580    -0.0000600
  N       -1.0907173    -0.4344747     0.0113022
  N        0.7349370     0.9985730     0.0002800
  C       -0.6489740     0.8800530    -0.0003070
  C       -0.2041810    -1.5011250     0.0000420
  C       -2.5282030    -0.6963170    -0.0000730
  C        1.1391180    -1.3434170     0.0000740
  C        1.7104040    -0.0052910    -0.0002190
  H       -0.6762750    -2.4793460     0.0001770
  H       -2.8113470    -1.2573270     0.8936330
  H       -2.8198181    -1.2583613    -0.8904477
  H       -3.0286960     0.2691590    -0.0008180
  H        1.0742980     1.9581480     0.0003170
  H        1.8167570    -2.1872720    -0.0000870
units angstrom
no_reorient  #important for SAPT in psi4, default
symmetry c1  #important for SAPT in psi4, default
}

set PROPERTIES_ORIGIN ["COM"]
properties('MP2/aug-cc-pvtz', properties = ['dipole'])
--------------------------------------------------------------------------

    Molecular point group: c1
  Charge       = 0
  Multiplicity = 1
  Basis Set: AUG-CC-PVTZ
    Blend: AUG-CC-PVTZ
  Basis Set: (AUG-CC-PVTZ AUX)
    Blend: AUG-CC-PVTZ-JKFIT

    Orbital Energies [Eh]
    ---------------------

    Doubly Occupied:

       1A    -20.544392     2A    -20.539221     3A    -15.644424
       4A    -15.626397     5A    -11.417636     6A    -11.380173
       7A    -11.337618     8A    -11.289812     9A    -11.257038
      10A     -1.428286    11A     -1.388357    12A     -1.311501
      13A     -1.245409    14A     -1.091539    15A     -0.990115
      16A     -0.930592    17A     -0.872044    18A     -0.772266
      19A     -0.752529    20A     -0.699616    21A     -0.685053
      22A     -0.657425    23A     -0.644513    24A     -0.614565
      25A     -0.610634    26A     -0.602499    27A     -0.571275
      28A     -0.554289    29A     -0.498469    30A     -0.479616
      31A     -0.446283    32A     -0.432971    33A     -0.361517

  @DF-RHF Final Energy:  -451.66057141495867

   => Energetics <=

    Nuclear Repulsion Energy =            441.1883304962940429
    One-Electron Energy =               -1490.3416553450172160
    Two-Electron Energy =                 597.4927534337643920
    Total Energy =                       -451.6605714149586674
  Basis Set: (AUG-CC-PVTZ AUX)
    Blend: AUG-CC-PVTZ-RI
    Molecular point group: c1

    Geometry (in Angstrom), charge = 0, multiplicity = 1:

       Center              X                  Y                   Z               Mass
    ------------   -----------------  -----------------  -----------------  -----------------
         O           -1.444922867106     1.815981067040    -0.001237004826    15.994914619570
         O            2.857814132894     0.235541067040    -0.001318004826    15.994914619570
         N           -1.141109167106    -0.474091632960     0.010044195174    14.003074004430
         N            0.684545132894     0.958956067040    -0.000978004826    14.003074004430
         C           -0.699365867106     0.840436067040    -0.001565004826    12.000000000000
         C           -0.254572867106    -1.540741932960    -0.001216004826    12.000000000000
         C           -2.578594867106    -0.735933932960    -0.001331004826    12.000000000000
         C            1.088726132894    -1.383033932960    -0.001184004826    12.000000000000
         C            1.660012132894    -0.044907932960    -0.001477004826    12.000000000000
         H           -0.726666867106    -2.518962932960    -0.001081004826     1.007825032230
         H           -2.861738867106    -1.296943932960     0.892374995174     1.007825032230
         H           -2.870209967106    -1.297978232960    -0.891705704826     1.007825032230
         H           -3.079087867106     0.229542067040    -0.002076004826     1.007825032230
         H            1.023906132894     1.918531067040    -0.000941004826     1.007825032230
         H            1.766365132894    -2.226888932960    -0.001345004826     1.007825032230

  Basis Set: AUG-CC-PVTZ
    Blend: AUG-CC-PVTZ
  Basis Set: (AUG-CC-PVTZ AUX)
    Blend: AUG-CC-PVTZ-JKFIT
	 Reference Energy          =    -451.6605714149586674 [Eh]
	 Singles Energy            =      -0.0000000000000000 [Eh]
	 Same-Spin Energy          =      -0.4579725130613760 [Eh]
	 Opposite-Spin Energy      =      -1.3847424897673952 [Eh]
	 Correlation Energy        =      -1.8427150028287711 [Eh]
	 Total Energy              =    -453.5032864177874217 [Eh]

	 ================> DF-SCS-MP2 Energies <==================
	-----------------------------------------------------------
	 SCS Same-Spin Scale       =       0.3333333333333333 [-]
	 SCS Opposite-Spin Scale   =       1.2000000000000000 [-]
	 SCS Same-Spin Energy      =      -0.1526575043537920 [Eh]
	 SCS Opposite-Spin Energy  =      -1.6616909877208743 [Eh]
	 SCS Correlation Energy    =      -1.8143484920746662 [Eh]
	 SCS Total Energy          =    -453.4749199070333248 [Eh]
	-----------------------------------------------------------

  Dipole Moment: [D]
     X:    -3.2062      Y:    -3.5747      Z:    -0.0094     Total:     4.8020

*** Psi4 exiting successfully. Buy a developer a beer!
