                               Psi4 1.3.2 release

  ==> Input File <==

--------------------------------------------------------------------------
#psi4
#
memory 32 gb

molecule  {
0 1
  O       -1.3945310     1.8555980     0.0000210
  O        2.9082060     0.2751580    -0.0000600
  N       -1.0895640    -0.4406340     0.0001970
  N        0.7349370     0.9985730     0.0002800
  C       -0.6720903     0.8875412    -0.0003168
  C       -0.2041810    -1.5011250     0.0000420
  C       -2.5324462    -0.6711703    -0.0000860
  C        1.1391180    -1.3434170     0.0000740
  C        1.7104040    -0.0052910    -0.0002190
  H       -0.6762750    -2.4793460     0.0001770
  H       -2.8113470    -1.2573270     0.8936330
  H       -2.8107340    -1.2584070    -0.8933430
  H       -3.0286960     0.2691590    -0.0008180
  H        1.0742980     1.9581480     0.0003170
  H        1.8167570    -2.1872720    -0.0000870
units angstrom
no_reorient  #important for SAPT in psi4, default
symmetry c1  #important for SAPT in psi4, default
}

set PROPERTIES_ORIGIN ["COM"]
properties('MP2/aug-cc-pvtz', properties = ['dipole'])
--------------------------------------------------------------------------

    Molecular point group: c1
  Charge       = 0
  Multiplicity = 1
  Basis Set: AUG-CC-PVTZ
    Blend: AUG-CC-PVTZ
  Basis Set: (AUG-CC-PVTZ AUX)
    Blend: AUG-CC-PVTZ-JKFIT

    Orbital Energies [Eh]
    ---------------------

    Doubly Occupied:

       1A    -20.550946     2A    -20.536432     3A    -15.643717
       4A    -15.622311     5A    -11.418605     6A    -11.377537
       7A    -11.336934     8A    -11.290401     9A    -11.255545
      10A     -1.437359    11A     -1.387788    12A     -1.315355
      13A     -1.238807    14A     -1.090972    15A     -0.988157
      16A     -0.930308    17A     -0.867423    18A     -0.769898
      19A     -0.749997    20A     -0.700648    21A     -0.683871
      22A     -0.660710    23A     -0.646224    24A     -0.611479
      25A     -0.610068    26A     -0.601492    27A     -0.577608
      28A     -0.557083    29A     -0.498424    30A     -0.484520
      31A     -0.444380    32A     -0.431870    33A     -0.360084

  @DF-RHF Final Energy:  -451.65971069410011

   => Energetics <=

    Nuclear Repulsion Energy =            441.1664572566660922
    One-Electron Energy =               -1490.2984290492240689
    Two-Electron Energy =                 597.4722610984579205
    Total Energy =                       -451.6597106941001130
  Basis Set: (AUG-CC-PVTZ AUX)
    Blend: AUG-CC-PVTZ-RI
    Molecular point group: c1

    Geometry (in Angstrom), charge = 0, multiplicity = 1:

       Center              X                  Y                   Z               Mass
    ------------   -----------------  -----------------  -----------------  -----------------
         O           -1.442518852239     1.813558689086     0.000022078063    15.994914619570
         O            2.860218147761     0.233118689086    -0.000058921937    15.994914619570
         N           -1.137551852239    -0.482673310914     0.000198078063    14.003074004430
         N            0.686949147761     0.956533689086     0.000281078063    14.003074004430
         C           -0.720078152239     0.845501889086    -0.000315721937    12.000000000000
         C           -0.252168852239    -1.543164310914     0.000043078063    12.000000000000
         C           -2.580434052239    -0.713209610914    -0.000084921937    12.000000000000
         C            1.091130147761    -1.385456310914     0.000075078063    12.000000000000
         C            1.662416147761    -0.047330310914    -0.000217921937    12.000000000000
         H           -0.724262852239    -2.521385310914     0.000178078063     1.007825032230
         H           -2.859334852239    -1.299366310914     0.893634078063     1.007825032230
         H           -2.858721852239    -1.300446310914    -0.893341921937     1.007825032230
         H           -3.076683852239     0.227119689086    -0.000816921937     1.007825032230
         H            1.026310147761     1.916108689086     0.000318078063     1.007825032230
         H            1.768769147761    -2.229311310914    -0.000085921937     1.007825032230

  Basis Set: AUG-CC-PVTZ
    Blend: AUG-CC-PVTZ
  Basis Set: (AUG-CC-PVTZ AUX)
    Blend: AUG-CC-PVTZ-JKFIT
	 Reference Energy          =    -451.6597106941001130 [Eh]
	 Singles Energy            =      -0.0000000000000000 [Eh]
	 Same-Spin Energy          =      -0.4577357857012818 [Eh]
	 Opposite-Spin Energy      =      -1.3843648365266956 [Eh]
	 Correlation Energy        =      -1.8421006222279774 [Eh]
	 Total Energy              =    -453.5018113163280873 [Eh]

	 ================> DF-SCS-MP2 Energies <==================
	-----------------------------------------------------------
	 SCS Same-Spin Scale       =       0.3333333333333333 [-]
	 SCS Opposite-Spin Scale   =       1.2000000000000000 [-]
	 SCS Same-Spin Energy      =      -0.1525785952337606 [Eh]
	 SCS Opposite-Spin Energy  =      -1.6612378038320348 [Eh]
	 SCS Correlation Energy    =      -1.8138163990657954 [Eh]
	 SCS Total Energy          =    -453.4735270931658988 [Eh]
	-----------------------------------------------------------

  Dipole Moment: [D]
     X:    -3.4137      Y:    -3.4323      Z:    -0.0009     Total:     4.8409

*** Psi4 exiting successfully. Buy a developer a beer!
