                               Psi4 1.3.2 release

  ==> Input File <==

--------------------------------------------------------------------------
#psi4
#
memory 32 gb

molecule  {
0 1
  O       -1.3945310     1.8555980     0.0000210
  O        2.9082060     0.2751580    -0.0000600
  N       -1.1438524    -0.4884247     0.0001894
  N        0.7349370     0.9985730     0.0002800
  C       -0.6489740     0.8800530    -0.0003070
  C       -0.2041810    -1.5011250     0.0000420
  C       -2.5282030    -0.6963170    -0.0000730
  C        1.1455309    -1.4139360     0.0000634
  C        1.7104040    -0.0052910    -0.0002190
  H       -0.6762750    -2.4793460     0.0001770
  H       -2.8113470    -1.2573270     0.8936330
  H       -2.8107340    -1.2584070    -0.8933430
  H       -3.0286960     0.2691590    -0.0008180
  H        1.0742980     1.9581480     0.0003170
  H        1.8167570    -2.1872720    -0.0000870
units angstrom
no_reorient  #important for SAPT in psi4, default
symmetry c1  #important for SAPT in psi4, default
}

set PROPERTIES_ORIGIN ["COM"]
properties('MP2/aug-cc-pvtz', properties = ['dipole'])
--------------------------------------------------------------------------

    Molecular point group: c1
  Charge       = 0
  Multiplicity = 1
  Basis Set: AUG-CC-PVTZ
    Blend: AUG-CC-PVTZ
  Basis Set: (AUG-CC-PVTZ AUX)
    Blend: AUG-CC-PVTZ-JKFIT

    Orbital Energies [Eh]
    ---------------------

    Doubly Occupied:

       1A    -20.554126     2A    -20.542512     3A    -15.643806
       4A    -15.633310     5A    -11.426841     6A    -11.385284
       7A    -11.333554     8A    -11.283047     9A    -11.256382
      10A     -1.428587    11A     -1.390314    12A     -1.311711
      13A     -1.252049    14A     -1.089241    15A     -0.985408
      16A     -0.916547    17A     -0.876574    18A     -0.770658
      19A     -0.754092    20A     -0.694605    21A     -0.684964
      22A     -0.668943    23A     -0.649021    24A     -0.628128
      25A     -0.617373    26A     -0.600689    27A     -0.566208
      28A     -0.552666    29A     -0.496087    30A     -0.479973
      31A     -0.445450    32A     -0.436664    33A     -0.357821

  @DF-RHF Final Energy:  -451.64689051260416

   => Energetics <=

    Nuclear Repulsion Energy =            439.1199836639331124
    One-Electron Energy =               -1486.1084805733701160
    Two-Electron Energy =                 595.3416063968327308
    Total Energy =                       -451.6468905126041591
  Basis Set: (AUG-CC-PVTZ AUX)
    Blend: AUG-CC-PVTZ-RI
    Molecular point group: c1

    Geometry (in Angstrom), charge = 0, multiplicity = 1:

       Center              X                  Y                   Z               Mass
    ------------   -----------------  -----------------  -----------------  -----------------
         O           -1.439702861767     1.828688958967     0.000021760896    15.994914619570
         O            2.863034138233     0.248248958967    -0.000059239104    15.994914619570
         N           -1.189024261767    -0.515333741033     0.000190160896    14.003074004430
         N            0.689765138233     0.971663958967     0.000280760896    14.003074004430
         C           -0.694145861767     0.853143958967    -0.000306239104    12.000000000000
         C           -0.249352861767    -1.528034041033     0.000042760896    12.000000000000
         C           -2.573374861767    -0.723226041033    -0.000072239104    12.000000000000
         C            1.100359038233    -1.440845041033     0.000064160896    12.000000000000
         C            1.665232138233    -0.032200041033    -0.000218239104    12.000000000000
         H           -0.721446861767    -2.506255041033     0.000177760896     1.007825032230
         H           -2.856518861767    -1.284236041033     0.893633760896     1.007825032230
         H           -2.855905861767    -1.285316041033    -0.893342239104     1.007825032230
         H           -3.073867861767     0.242249958967    -0.000817239104     1.007825032230
         H            1.029126138233     1.931238958967     0.000317760896     1.007825032230
         H            1.771585138233    -2.214181041033    -0.000086239104     1.007825032230

  Basis Set: AUG-CC-PVTZ
    Blend: AUG-CC-PVTZ
  Basis Set: (AUG-CC-PVTZ AUX)
    Blend: AUG-CC-PVTZ-JKFIT
	 Reference Energy          =    -451.6468905126041591 [Eh]
	 Singles Energy            =      -0.0000000000000000 [Eh]
	 Same-Spin Energy          =      -0.4579386235147156 [Eh]
	 Opposite-Spin Energy      =      -1.3855740778637899 [Eh]
	 Correlation Energy        =      -1.8435127013785055 [Eh]
	 Total Energy              =    -453.4904032139826882 [Eh]

	 ================> DF-SCS-MP2 Energies <==================
	-----------------------------------------------------------
	 SCS Same-Spin Scale       =       0.3333333333333333 [-]
	 SCS Opposite-Spin Scale   =       1.2000000000000000 [-]
	 SCS Same-Spin Energy      =      -0.1526462078382385 [Eh]
	 SCS Opposite-Spin Energy  =      -1.6626888934365478 [Eh]
	 SCS Correlation Energy    =      -1.8153351012747863 [Eh]
	 SCS Total Energy          =    -453.4622256138789567 [Eh]
	-----------------------------------------------------------

  Dipole Moment: [D]
     X:    -3.0230      Y:    -3.1021      Z:    -0.0009     Total:     4.3315

*** Psi4 exiting successfully. Buy a developer a beer!
