                               Psi4 1.3.2 release

  ==> Input File <==

--------------------------------------------------------------------------
#psi4
#
memory 32 gb

molecule  {
0 1
  O       -1.3945310     1.8555980     0.0000210
  O        2.9082060     0.2751580    -0.0000600
  N       -1.0895640    -0.4406340     0.0001970
  N        0.7349370     0.9985730     0.0002800
  C       -0.6489740     0.8800530    -0.0003070
  C       -0.2041810    -1.5011250     0.0000420
  C       -2.5282030    -0.6963170    -0.0000730
  C        1.1391180    -1.3434170     0.0000740
  C        1.6395890     0.0227739    -0.0001976
  H       -0.6762750    -2.4793460     0.0001770
  H       -2.8113470    -1.2573270     0.8936330
  H       -2.8107340    -1.2584070    -0.8933430
  H       -3.0286960     0.2691590    -0.0008180
  H        1.0742980     1.9581480     0.0003170
  H        1.7716644    -2.2215804    -0.0000693
units angstrom
no_reorient  #important for SAPT in psi4, default
symmetry c1  #important for SAPT in psi4, default
}

set PROPERTIES_ORIGIN ["COM"]
properties('MP2/aug-cc-pvtz', properties = ['dipole'])
--------------------------------------------------------------------------

    Molecular point group: c1
  Charge       = 0
  Multiplicity = 1
  Basis Set: AUG-CC-PVTZ
    Blend: AUG-CC-PVTZ
  Basis Set: (AUG-CC-PVTZ AUX)
    Blend: AUG-CC-PVTZ-JKFIT

    Orbital Energies [Eh]
    ---------------------

    Doubly Occupied:

       1A    -20.553263     2A    -20.523141     3A    -15.649067
       4A    -15.639625     5A    -11.426095     6A    -11.378636
       7A    -11.336157     8A    -11.293250     9A    -11.259010
      10A     -1.436924    11A     -1.361418    12A     -1.313135
      13A     -1.256370    14A     -1.094322    15A     -0.995605
      16A     -0.933664    17A     -0.890404    18A     -0.782603
      19A     -0.755398    20A     -0.702613    21A     -0.691954
      22A     -0.663037    23A     -0.637918    24A     -0.621370
      25A     -0.616145    26A     -0.581738    27A     -0.575824
      28A     -0.547256    29A     -0.503534    30A     -0.482343
      31A     -0.436191    32A     -0.428312    33A     -0.360290

  @DF-RHF Final Energy:  -451.64782424744209

   => Energetics <=

    Nuclear Repulsion Energy =            441.7869735337979478
    One-Electron Energy =               -1491.4163749019705847
    Two-Electron Energy =                 597.9815771207305488
    Total Energy =                       -451.6478242474421450
  Basis Set: (AUG-CC-PVTZ AUX)
    Blend: AUG-CC-PVTZ-RI
    Molecular point group: c1

    Geometry (in Angstrom), charge = 0, multiplicity = 1:

       Center              X                  Y                   Z               Mass
    ------------   -----------------  -----------------  -----------------  -----------------
         O           -1.438021087370     1.814268105045     0.000017728446    15.994914619570
         O            2.864715912630     0.233828105045    -0.000063271554    15.994914619570
         N           -1.133054087370    -0.481963894955     0.000193728446    14.003074004430
         N            0.691446912630     0.957243105045     0.000276728446    14.003074004430
         C           -0.692464087370     0.838723105045    -0.000310271554    12.000000000000
         C           -0.247671087370    -1.542454894955     0.000038728446    12.000000000000
         C           -2.571693087370    -0.737646894955    -0.000076271554    12.000000000000
         C            1.095627912630    -1.384746894955     0.000070728446    12.000000000000
         C            1.596098912630    -0.018555994955    -0.000200871554    12.000000000000
         H           -0.719765087370    -2.520675894955     0.000173728446     1.007825032230
         H           -2.854837087370    -1.298656894955     0.893629728446     1.007825032230
         H           -2.854224087370    -1.299736894955    -0.893346271554     1.007825032230
         H           -3.072186087370     0.227829105045    -0.000821271554     1.007825032230
         H            1.030807912630     1.916818105045     0.000313728446     1.007825032230
         H            1.728174312630    -2.262910294955    -0.000072571554     1.007825032230

  Basis Set: AUG-CC-PVTZ
    Blend: AUG-CC-PVTZ
  Basis Set: (AUG-CC-PVTZ AUX)
    Blend: AUG-CC-PVTZ-JKFIT
	 Reference Energy          =    -451.6478242474420881 [Eh]
	 Singles Energy            =      -0.0000000000000000 [Eh]
	 Same-Spin Energy          =      -0.4593679718087331 [Eh]
	 Opposite-Spin Energy      =      -1.3871145933955948 [Eh]
	 Correlation Energy        =      -1.8464825652043280 [Eh]
	 Total Energy              =    -453.4943068126464141 [Eh]

	 ================> DF-SCS-MP2 Energies <==================
	-----------------------------------------------------------
	 SCS Same-Spin Scale       =       0.3333333333333333 [-]
	 SCS Opposite-Spin Scale   =       1.2000000000000000 [-]
	 SCS Same-Spin Energy      =      -0.1531226572695777 [Eh]
	 SCS Opposite-Spin Energy  =      -1.6645375120747137 [Eh]
	 SCS Correlation Energy    =      -1.8176601693442913 [Eh]
	 SCS Total Energy          =    -453.4654844167863530 [Eh]
	-----------------------------------------------------------

  Dipole Moment: [D]
     X:    -3.8686      Y:    -3.4126      Z:    -0.0007     Total:     5.1587

*** Psi4 exiting successfully. Buy a developer a beer!
