                               Psi4 1.3.2 release

  ==> Input File <==

--------------------------------------------------------------------------
#psi4
#
memory 32 gb

molecule  {
0 1
  O       -1.3945310     1.8555980     0.0000210
  O        2.9057130     0.2856000    -0.0000547
  N       -1.0895640    -0.4406340     0.0001970
  N        0.7437344     1.0070472     0.0002844
  C       -0.6489740     0.8800530    -0.0003070
  C       -0.2041810    -1.5011250     0.0000420
  C       -2.5282030    -0.6963170    -0.0000730
  C        1.1391180    -1.3434170     0.0000740
  C        1.7104040    -0.0052910    -0.0002190
  H       -0.6762750    -2.4793460     0.0001770
  H       -2.8113470    -1.2573270     0.8936330
  H       -2.8107340    -1.2584070    -0.8933430
  H       -3.0286960     0.2691590    -0.0008180
  H        1.0742980     1.9581480     0.0003170
  H        1.8167570    -2.1872720    -0.0000870
units angstrom
no_reorient  #important for SAPT in psi4, default
symmetry c1  #important for SAPT in psi4, default
}

set PROPERTIES_ORIGIN ["COM"]
properties('MP2/aug-cc-pvtz', properties = ['dipole'])
--------------------------------------------------------------------------

    Molecular point group: c1
  Charge       = 0
  Multiplicity = 1
  Basis Set: AUG-CC-PVTZ
    Blend: AUG-CC-PVTZ
  Basis Set: (AUG-CC-PVTZ AUX)
    Blend: AUG-CC-PVTZ-JKFIT

    Orbital Energies [Eh]
    ---------------------

    Doubly Occupied:

       1A    -20.546097     2A    -20.537652     3A    -15.645138
       4A    -15.625032     5A    -11.419166     6A    -11.379159
       7A    -11.337719     8A    -11.290429     9A    -11.256875
      10A     -1.427816    11A     -1.387855    12A     -1.312261
      13A     -1.244039    14A     -1.091524    15A     -0.989469
      16A     -0.931610    17A     -0.869750    18A     -0.772555
      19A     -0.753415    20A     -0.701116    21A     -0.684839
      22A     -0.657774    23A     -0.644128    24A     -0.614336
      25A     -0.610842    26A     -0.602356    27A     -0.572675
      28A     -0.554082    29A     -0.499716    30A     -0.480223
      31A     -0.445284    32A     -0.432035    33A     -0.361060

  @DF-RHF Final Energy:  -451.66060518059982

   => Energetics <=

    Nuclear Repulsion Energy =            440.9834979418072294
    One-Electron Energy =               -1489.9321491899747798
    Two-Electron Energy =                 597.2880460675677341
    Total Energy =                       -451.6606051805998732
  Basis Set: (AUG-CC-PVTZ AUX)
    Blend: AUG-CC-PVTZ-RI
    Molecular point group: c1

    Geometry (in Angstrom), charge = 0, multiplicity = 1:

       Center              X                  Y                   Z               Mass
    ------------   -----------------  -----------------  -----------------  -----------------
         O           -1.445784638979     1.814399157123     0.000018745971    15.994914619570
         O            2.854459361021     0.244401157123    -0.000056954029    15.994914619570
         N           -1.140817638979    -0.481832842877     0.000194745971    14.003074004430
         N            0.692480761021     0.965848357123     0.000282145971    14.003074004430
         C           -0.700227638979     0.838854157123    -0.000309254029    12.000000000000
         C           -0.255434638979    -1.542323842877     0.000039745971    12.000000000000
         C           -2.579456638979    -0.737515842877    -0.000075254029    12.000000000000
         C            1.087864361021    -1.384615842877     0.000071745971    12.000000000000
         C            1.659150361021    -0.046489842877    -0.000221254029    12.000000000000
         H           -0.727528638979    -2.520544842877     0.000174745971     1.007825032230
         H           -2.862600638979    -1.298525842877     0.893630745971     1.007825032230
         H           -2.861987638979    -1.299605842877    -0.893345254029     1.007825032230
         H           -3.079949638979     0.227960157123    -0.000820254029     1.007825032230
         H            1.023044361021     1.916949157123     0.000314745971     1.007825032230
         H            1.765503361021    -2.228470842877    -0.000089254029     1.007825032230

  Basis Set: AUG-CC-PVTZ
    Blend: AUG-CC-PVTZ
  Basis Set: (AUG-CC-PVTZ AUX)
    Blend: AUG-CC-PVTZ-JKFIT
	 Reference Energy          =    -451.6606051805998163 [Eh]
	 Singles Energy            =      -0.0000000000000000 [Eh]
	 Same-Spin Energy          =      -0.4578813210021031 [Eh]
	 Opposite-Spin Energy      =      -1.3846421570841683 [Eh]
	 Correlation Energy        =      -1.8425234780862714 [Eh]
	 Total Energy              =    -453.5031286586860801 [Eh]

	 ================> DF-SCS-MP2 Energies <==================
	-----------------------------------------------------------
	 SCS Same-Spin Scale       =       0.3333333333333333 [-]
	 SCS Opposite-Spin Scale   =       1.2000000000000000 [-]
	 SCS Same-Spin Energy      =      -0.1526271070007010 [Eh]
	 SCS Opposite-Spin Energy  =      -1.6615705885010019 [Eh]
	 SCS Correlation Energy    =      -1.8141976955017030 [Eh]
	 SCS Total Energy          =    -453.4748028761015348 [Eh]
	-----------------------------------------------------------

  Dipole Moment: [D]
     X:    -3.2757      Y:    -3.5728      Z:    -0.0009     Total:     4.8472

*** Psi4 exiting successfully. Buy a developer a beer!
