                               Psi4 1.3.2 release

  ==> Input File <==

--------------------------------------------------------------------------
#psi4
#
memory 32 gb

molecule  {
0 1
  O       -1.3945310     1.8555980     0.0000210
  O        2.9082060     0.2751580    -0.0000600
  N       -1.0895640    -0.4406340     0.0001970
  N        0.7349370     0.9985730     0.0002800
  C       -0.6259919     0.8721625    -0.0002970
  C       -0.2041810    -1.5011250     0.0000420
  C       -2.5235216    -0.7213858    -0.0000599
  C        1.1391180    -1.3434170     0.0000740
  C        1.7104040    -0.0052910    -0.0002190
  H       -0.6762750    -2.4793460     0.0001770
  H       -2.8113470    -1.2573270     0.8936330
  H       -2.8107340    -1.2584070    -0.8933430
  H       -3.0286960     0.2691590    -0.0008180
  H        1.0742980     1.9581480     0.0003170
  H        1.8167570    -2.1872720    -0.0000870
units angstrom
no_reorient  #important for SAPT in psi4, default
symmetry c1  #important for SAPT in psi4, default
}

set PROPERTIES_ORIGIN ["COM"]
properties('MP2/aug-cc-pvtz', properties = ['dipole'])
--------------------------------------------------------------------------

    Molecular point group: c1
  Charge       = 0
  Multiplicity = 1
  Basis Set: AUG-CC-PVTZ
    Blend: AUG-CC-PVTZ
  Basis Set: (AUG-CC-PVTZ AUX)
    Blend: AUG-CC-PVTZ-JKFIT

    Orbital Energies [Eh]
    ---------------------

    Doubly Occupied:

       1A    -20.541194     2A    -20.540055     3A    -15.645411
       4A    -15.630705     5A    -11.418431     6A    -11.382115
       7A    -11.337382     8A    -11.289827     9A    -11.256823
      10A     -1.422650    11A     -1.387151    12A     -1.308235
      13A     -1.252390    14A     -1.091446    15A     -0.991345
      16A     -0.931206    17A     -0.877497    18A     -0.774477
      19A     -0.754560    20A     -0.699902    21A     -0.687156
      22A     -0.657660    23A     -0.639710    24A     -0.620034
      25A     -0.609500    26A     -0.602989    27A     -0.564428
      28A     -0.551999    29A     -0.500328    30A     -0.475172
      31A     -0.447428    32A     -0.433487    33A     -0.361198

  @DF-RHF Final Energy:  -451.65783949816483

   => Energetics <=

    Nuclear Repulsion Energy =            441.2096276559854005
    One-Electron Energy =               -1490.3671508156996879
    Two-Electron Energy =                 597.4996836615495113
    Total Energy =                       -451.6578394981648898
  Basis Set: (AUG-CC-PVTZ AUX)
    Blend: AUG-CC-PVTZ-RI
    Molecular point group: c1

    Geometry (in Angstrom), charge = 0, multiplicity = 1:

       Center              X                  Y                   Z               Mass
    ------------   -----------------  -----------------  -----------------  -----------------
         O           -1.447757353228     1.819803628139     0.000017708123    15.994914619570
         O            2.854979646772     0.239363628139    -0.000063291877    15.994914619570
         N           -1.142790353228    -0.476428371861     0.000193708123    14.003074004430
         N            0.681710646772     0.962778628139     0.000276708123    14.003074004430
         C           -0.679218253228     0.836368128139    -0.000300291877    12.000000000000
         C           -0.257407353228    -1.536919371861     0.000038708123    12.000000000000
         C           -2.576747953228    -0.757180171861    -0.000063191877    12.000000000000
         C            1.085891646772    -1.379211371861     0.000070708123    12.000000000000
         C            1.657177646772    -0.041085371861    -0.000222291877    12.000000000000
         H           -0.729501353228    -2.515140371861     0.000173708123     1.007825032230
         H           -2.864573353228    -1.293121371861     0.893629708123     1.007825032230
         H           -2.863960353228    -1.294201371861    -0.893346291877     1.007825032230
         H           -3.081922353228     0.233364628139    -0.000821291877     1.007825032230
         H            1.021071646772     1.922353628139     0.000313708123     1.007825032230
         H            1.763530646772    -2.223066371861    -0.000090291877     1.007825032230

  Basis Set: AUG-CC-PVTZ
    Blend: AUG-CC-PVTZ
  Basis Set: (AUG-CC-PVTZ AUX)
    Blend: AUG-CC-PVTZ-JKFIT
	 Reference Energy          =    -451.6578394981648330 [Eh]
	 Singles Energy            =      -0.0000000000000000 [Eh]
	 Same-Spin Energy          =      -0.4584339416699748 [Eh]
	 Opposite-Spin Energy      =      -1.3854271827513664 [Eh]
	 Correlation Energy        =      -1.8438611244213412 [Eh]
	 Total Energy              =    -453.5017006225861564 [Eh]

	 ================> DF-SCS-MP2 Energies <==================
	-----------------------------------------------------------
	 SCS Same-Spin Scale       =       0.3333333333333333 [-]
	 SCS Opposite-Spin Scale   =       1.2000000000000000 [-]
	 SCS Same-Spin Energy      =      -0.1528113138899916 [Eh]
	 SCS Opposite-Spin Energy  =      -1.6625126193016397 [Eh]
	 SCS Correlation Energy    =      -1.8153239331916313 [Eh]
	 SCS Total Energy          =    -453.4731634313564541 [Eh]
	-----------------------------------------------------------

  Dipole Moment: [D]
     X:    -3.0578      Y:    -3.6481      Z:    -0.0008     Total:     4.7601

*** Psi4 exiting successfully. Buy a developer a beer!
