                               Psi4 1.3.2 release

  ==> Input File <==

--------------------------------------------------------------------------
#psi4
#
memory 32 gb

molecule  {
0 1
  O       -1.3945310     1.8555980     0.0000210
  O        2.9082060     0.2751580    -0.0000600
  N       -1.0895640    -0.4406340     0.0001970
  N        0.7349370     0.9985730     0.0002800
  C       -0.6489740     0.8800530    -0.0003070
  C       -0.2041810    -1.5011250     0.0000420
  C       -2.5282030    -0.6963170    -0.0000730
  C        1.1391180    -1.3434170     0.0000740
  C        1.5710259     0.1381445    -0.0001477
  H       -0.6762750    -2.4793460     0.0001770
  H       -2.8113470    -1.2573270     0.8936330
  H       -2.8107340    -1.2584070    -0.8933430
  H       -3.0286960     0.2691590    -0.0008180
  H        1.0742980     1.9581480     0.0003170
  H        1.8167570    -2.1872720    -0.0000870
units angstrom
no_reorient  #important for SAPT in psi4, default
symmetry c1  #important for SAPT in psi4, default
}

set PROPERTIES_ORIGIN ["COM"]
properties('MP2/aug-cc-pvtz', properties = ['dipole'])
--------------------------------------------------------------------------

    Molecular point group: c1
  Charge       = 0
  Multiplicity = 1
  Basis Set: AUG-CC-PVTZ
    Blend: AUG-CC-PVTZ
  Basis Set: (AUG-CC-PVTZ AUX)
    Blend: AUG-CC-PVTZ-JKFIT

    Orbital Energies [Eh]
    ---------------------

    Doubly Occupied:

       1A    -20.566565     2A    -20.506850     3A    -15.656269
       4A    -15.651650     5A    -11.439011     6A    -11.372387
       7A    -11.325356     8A    -11.295545     9A    -11.264169
      10A     -1.457444    11A     -1.381414    12A     -1.311695
      13A     -1.258022    14A     -1.082897    15A     -1.008819
      16A     -0.933788    17A     -0.918771    18A     -0.799917
      19A     -0.746959    20A     -0.705018    21A     -0.703963
      22A     -0.671294    23A     -0.637917    24A     -0.631913
      25A     -0.619424    26A     -0.581472    27A     -0.555430
      28A     -0.550238    29A     -0.506147    30A     -0.488108
      31A     -0.420229    32A     -0.415733    33A     -0.356029

  @DF-RHF Final Energy:  -451.59758191007569

   => Energetics <=

    Nuclear Repulsion Energy =            442.8708321431928425
    One-Electron Energy =               -1493.2959463479480746
    Two-Electron Energy =                 598.8275322946794859
    Total Energy =                       -451.5975819100756325
  Basis Set: (AUG-CC-PVTZ AUX)
    Blend: AUG-CC-PVTZ-RI
    Molecular point group: c1

    Geometry (in Angstrom), charge = 0, multiplicity = 1:

       Center              X                  Y                   Z               Mass
    ------------   -----------------  -----------------  -----------------  -----------------
         O           -1.431854047579     1.803009844918     0.000013119210    15.994914619570
         O            2.870882952421     0.222569844918    -0.000067880790    15.994914619570
         N           -1.126887047579    -0.493222155082     0.000189119210    14.003074004430
         N            0.697613952421     0.945984844918     0.000272119210    14.003074004430
         C           -0.686297047579     0.827464844918    -0.000314880790    12.000000000000
         C           -0.241504047579    -1.553713155082     0.000034119210    12.000000000000
         C           -2.565526047579    -0.748905155082    -0.000080880790    12.000000000000
         C            1.101794952421    -1.396005155082     0.000066119210    12.000000000000
         C            1.533702852421     0.085556344918    -0.000155580790    12.000000000000
         H           -0.713598047579    -2.531934155082     0.000169119210     1.007825032230
         H           -2.848670047579    -1.309915155082     0.893625119210     1.007825032230
         H           -2.848057047579    -1.310995155082    -0.893350880790     1.007825032230
         H           -3.066019047579     0.216570844918    -0.000825880790     1.007825032230
         H            1.036974952421     1.905559844918     0.000309119210     1.007825032230
         H            1.779433952421    -2.239860155082    -0.000094880790     1.007825032230

  Basis Set: AUG-CC-PVTZ
    Blend: AUG-CC-PVTZ
  Basis Set: (AUG-CC-PVTZ AUX)
    Blend: AUG-CC-PVTZ-JKFIT
	 Reference Energy          =    -451.5975819100756894 [Eh]
	 Singles Energy            =      -0.0000000000000000 [Eh]
	 Same-Spin Energy          =      -0.4600187820481415 [Eh]
	 Opposite-Spin Energy      =      -1.3888383269066504 [Eh]
	 Correlation Energy        =      -1.8488571089547918 [Eh]
	 Total Energy              =    -453.4464390190304925 [Eh]

	 ================> DF-SCS-MP2 Energies <==================
	-----------------------------------------------------------
	 SCS Same-Spin Scale       =       0.3333333333333333 [-]
	 SCS Opposite-Spin Scale   =       1.2000000000000000 [-]
	 SCS Same-Spin Energy      =      -0.1533395940160471 [Eh]
	 SCS Opposite-Spin Energy  =      -1.6666059922879806 [Eh]
	 SCS Correlation Energy    =      -1.8199455863040277 [Eh]
	 SCS Total Energy          =    -453.4175274963797051 [Eh]
	-----------------------------------------------------------

  Dipole Moment: [D]
     X:    -4.4989      Y:    -2.9086      Z:    -0.0006     Total:     5.3573

*** Psi4 exiting successfully. Buy a developer a beer!
