                               Psi4 1.3.2 release

  ==> Input File <==

--------------------------------------------------------------------------
#psi4
#
memory 32 gb

molecule  {
0 1
  O       -1.4445653     1.8152416     0.0000603
  O        2.9082060     0.2751580    -0.0000600
  N       -1.1580796    -0.4157653     0.0002377
  N        0.7349370     0.9985730     0.0002800
  C       -0.6489740     0.8800530    -0.0003070
  C       -0.2041810    -1.5011250     0.0000420
  C       -2.5282030    -0.6963170    -0.0000730
  C        1.1391180    -1.3434170     0.0000740
  C        1.7104040    -0.0052910    -0.0002190
  H       -0.6762750    -2.4793460     0.0001770
  H       -2.8113470    -1.2573270     0.8936330
  H       -2.8107340    -1.2584070    -0.8933430
  H       -3.0286960     0.2691590    -0.0008180
  H        1.0742980     1.9581480     0.0003170
  H        1.8167570    -2.1872720    -0.0000870
units angstrom
no_reorient  #important for SAPT in psi4, default
symmetry c1  #important for SAPT in psi4, default
}

set PROPERTIES_ORIGIN ["COM"]
properties('MP2/aug-cc-pvtz', properties = ['dipole'])
--------------------------------------------------------------------------

    Molecular point group: c1
  Charge       = 0
  Multiplicity = 1
  Basis Set: AUG-CC-PVTZ
    Blend: AUG-CC-PVTZ
  Basis Set: (AUG-CC-PVTZ AUX)
    Blend: AUG-CC-PVTZ-JKFIT

    Orbital Energies [Eh]
    ---------------------

    Doubly Occupied:

       1A    -20.545229     2A    -20.540772     3A    -15.639032
       4A    -15.632546     5A    -11.417101     6A    -11.385506
       7A    -11.340579     8A    -11.279406     9A    -11.263189
      10A     -1.427807    11A     -1.393268    12A     -1.301356
      13A     -1.252208    14A     -1.094867    15A     -0.990894
      16A     -0.923544    17A     -0.870224    18A     -0.772559
      19A     -0.755984    20A     -0.694214    21A     -0.685086
      22A     -0.662605    23A     -0.647746    24A     -0.617249
      25A     -0.616352    26A     -0.610181    27A     -0.556558
      28A     -0.554786    29A     -0.485030    30A     -0.476608
      31A     -0.450810    32A     -0.437061    33A     -0.364967

  @DF-RHF Final Energy:  -451.65158882632323

   => Energetics <=

    Nuclear Repulsion Energy =            440.8890751123674363
    One-Electron Energy =               -1489.7106728792975900
    Two-Electron Energy =                 597.1700089406068628
    Total Energy =                       -451.6515888263232910
  Basis Set: (AUG-CC-PVTZ AUX)
    Blend: AUG-CC-PVTZ-RI
    Molecular point group: c1

    Geometry (in Angstrom), charge = 0, multiplicity = 1:

       Center              X                  Y                   Z               Mass
    ------------   -----------------  -----------------  -----------------  -----------------
         O           -1.481196629482     1.778667710588     0.000049698508    15.994914619570
         O            2.871574670518     0.238584110588    -0.000070601492    15.994914619570
         N           -1.194710929482    -0.452339189412     0.000227098508    14.003074004430
         N            0.698305670518     0.961999110588     0.000269398508    14.003074004430
         C           -0.685605329482     0.843479110588    -0.000317601492    12.000000000000
         C           -0.240812329482    -1.537698889412     0.000031398508    12.000000000000
         C           -2.564834329482    -0.732890889412    -0.000083601492    12.000000000000
         C            1.102486670518    -1.379990889412     0.000063398508    12.000000000000
         C            1.673772670518    -0.041864889412    -0.000229601492    12.000000000000
         H           -0.712906329482    -2.515919889412     0.000166398508     1.007825032230
         H           -2.847978329482    -1.293900889412     0.893622398508     1.007825032230
         H           -2.847365329482    -1.294980889412    -0.893353601492     1.007825032230
         H           -3.065327329482     0.232585110588    -0.000828601492     1.007825032230
         H            1.037666670518     1.921574110588     0.000306398508     1.007825032230
         H            1.780125670518    -2.223845889412    -0.000097601492     1.007825032230

  Basis Set: AUG-CC-PVTZ
    Blend: AUG-CC-PVTZ
  Basis Set: (AUG-CC-PVTZ AUX)
    Blend: AUG-CC-PVTZ-JKFIT
	 Reference Energy          =    -451.6515888263232341 [Eh]
	 Singles Energy            =      -0.0000000000000000 [Eh]
	 Same-Spin Energy          =      -0.4580743871268133 [Eh]
	 Opposite-Spin Energy      =      -1.3853754397306306 [Eh]
	 Correlation Energy        =      -1.8434498268574440 [Eh]
	 Total Energy              =    -453.4950386531806998 [Eh]

	 ================> DF-SCS-MP2 Energies <==================
	-----------------------------------------------------------
	 SCS Same-Spin Scale       =       0.3333333333333333 [-]
	 SCS Opposite-Spin Scale   =       1.2000000000000000 [-]
	 SCS Same-Spin Energy      =      -0.1526914623756044 [Eh]
	 SCS Opposite-Spin Energy  =      -1.6624505276767567 [Eh]
	 SCS Correlation Energy    =      -1.8151419900523611 [Eh]
	 SCS Total Energy          =    -453.4667308163756161 [Eh]
	-----------------------------------------------------------

  Dipole Moment: [D]
     X:    -2.7032      Y:    -3.4914      Z:    -0.0010     Total:     4.4156

*** Psi4 exiting successfully. Buy a developer a beer!
