                               Psi4 1.3.2 release

  ==> Input File <==

--------------------------------------------------------------------------
#psi4
#
memory 32 gb

molecule  {
0 1
  O       -1.3945310     1.8555980     0.0000210
  O        2.9082060     0.2751580    -0.0000600
  N       -1.0987847    -0.4484007     0.0001993
  N        0.7349370     0.9985730     0.0002800
  C       -0.6489740     0.8800530    -0.0003070
  C       -0.2041810    -1.5011250     0.0000420
  C       -2.5282030    -0.6963170    -0.0000730
  C        1.1391180    -1.3434170     0.0000740
  C        1.7104040    -0.0052910    -0.0002190
  H       -0.6847935    -2.4751890     0.0001787
  H       -2.8113470    -1.2573270     0.8936330
  H       -2.8107340    -1.2584070    -0.8933430
  H       -3.0286960     0.2691590    -0.0008180
  H        1.0742980     1.9581480     0.0003170
  H        1.8167570    -2.1872720    -0.0000870
units angstrom
no_reorient  #important for SAPT in psi4, default
symmetry c1  #important for SAPT in psi4, default
}

set PROPERTIES_ORIGIN ["COM"]
properties('MP2/aug-cc-pvtz', properties = ['dipole'])
--------------------------------------------------------------------------

    Molecular point group: c1
  Charge       = 0
  Multiplicity = 1
  Basis Set: AUG-CC-PVTZ
    Blend: AUG-CC-PVTZ
  Basis Set: (AUG-CC-PVTZ AUX)
    Blend: AUG-CC-PVTZ-JKFIT

    Orbital Energies [Eh]
    ---------------------

    Doubly Occupied:

       1A    -20.546765     2A    -20.539059     3A    -15.644324
       4A    -15.627431     5A    -11.419850     6A    -11.380093
       7A    -11.337138     8A    -11.288914     9A    -11.256022
      10A     -1.428271    11A     -1.388424    12A     -1.312301
      13A     -1.246709    14A     -1.091204    15A     -0.989183
      16A     -0.929826    17A     -0.872657    18A     -0.771410
      19A     -0.752657    20A     -0.699580    21A     -0.685172
      22A     -0.659056    23A     -0.644754    24A     -0.615437
      25A     -0.610295    26A     -0.603955    27A     -0.570776
      28A     -0.554107    29A     -0.499031    30A     -0.480322
      31A     -0.446516    32A     -0.433523    33A     -0.360179

  @DF-RHF Final Energy:  -451.66010059468340

   => Energetics <=

    Nuclear Repulsion Energy =            441.0363654020839022
    One-Electron Energy =               -1490.0230537595148235
    Two-Electron Energy =                 597.3265877627475220
    Total Energy =                       -451.6601005946833993
  Basis Set: (AUG-CC-PVTZ AUX)
    Blend: AUG-CC-PVTZ-RI
    Molecular point group: c1

    Geometry (in Angstrom), charge = 0, multiplicity = 1:

       Center              X                  Y                   Z               Mass
    ------------   -----------------  -----------------  -----------------  -----------------
         O           -1.444031120336     1.817495339529     0.000019638256    15.994914619570
         O            2.858705879664     0.237055339529    -0.000061361744    15.994914619570
         N           -1.148284820336    -0.486503360471     0.000197938256    14.003074004430
         N            0.685436879664     0.960470339529     0.000278638256    14.003074004430
         C           -0.698474120336     0.841950339529    -0.000308361744    12.000000000000
         C           -0.253681120336    -1.539227660471     0.000040638256    12.000000000000
         C           -2.577703120336    -0.734419660471    -0.000074361744    12.000000000000
         C            1.089617879664    -1.381519660471     0.000072638256    12.000000000000
         C            1.660903879664    -0.043393660471    -0.000220361744    12.000000000000
         H           -0.734293620336    -2.513291660471     0.000177338256     1.007825032230
         H           -2.860847120336    -1.295429660471     0.893631638256     1.007825032230
         H           -2.860234120336    -1.296509660471    -0.893344361744     1.007825032230
         H           -3.078196120336     0.231056339529    -0.000819361744     1.007825032230
         H            1.024797879664     1.920045339529     0.000315638256     1.007825032230
         H            1.767256879664    -2.225374660471    -0.000088361744     1.007825032230

  Basis Set: AUG-CC-PVTZ
    Blend: AUG-CC-PVTZ
  Basis Set: (AUG-CC-PVTZ AUX)
    Blend: AUG-CC-PVTZ-JKFIT
	 Reference Energy          =    -451.6601005946833993 [Eh]
	 Singles Energy            =      -0.0000000000000000 [Eh]
	 Same-Spin Energy          =      -0.4581319559272242 [Eh]
	 Opposite-Spin Energy      =      -1.3849436382381708 [Eh]
	 Correlation Energy        =      -1.8430755941653949 [Eh]
	 Total Energy              =    -453.5031761888487836 [Eh]

	 ================> DF-SCS-MP2 Energies <==================
	-----------------------------------------------------------
	 SCS Same-Spin Scale       =       0.3333333333333333 [-]
	 SCS Opposite-Spin Scale   =       1.2000000000000000 [-]
	 SCS Same-Spin Energy      =      -0.1527106519757414 [Eh]
	 SCS Opposite-Spin Energy  =      -1.6619323658858050 [Eh]
	 SCS Correlation Energy    =      -1.8146430178615462 [Eh]
	 SCS Total Energy          =    -453.4747436125449553 [Eh]
	-----------------------------------------------------------

  Dipole Moment: [D]
     X:    -3.2233      Y:    -3.4844      Z:    -0.0009     Total:     4.7467

*** Psi4 exiting successfully. Buy a developer a beer!
