                               Psi4 1.3.2 release

  ==> Input File <==

--------------------------------------------------------------------------
#psi4
#
memory 32 gb

molecule  {
0 1
  O       -1.3945310     1.8555980     0.0000210
  O        2.9082060     0.2751580    -0.0000600
  N       -1.0895640    -0.4406340     0.0001970
  N        0.7349370     0.9985730     0.0002800
  C       -0.5856818     1.0697741    -0.0003794
  C       -0.2041810    -1.5011250     0.0000420
  C       -2.5282030    -0.6963170    -0.0000730
  C        1.1391180    -1.3434170     0.0000740
  C        1.7104040    -0.0052910    -0.0002190
  H       -0.6762750    -2.4793460     0.0001770
  H       -2.8113470    -1.2573270     0.8936330
  H       -2.8107340    -1.2584070    -0.8933430
  H       -3.0286960     0.2691590    -0.0008180
  H        1.0742980     1.9581480     0.0003170
  H        1.8167570    -2.1872720    -0.0000870
units angstrom
no_reorient  #important for SAPT in psi4, default
symmetry c1  #important for SAPT in psi4, default
}

set PROPERTIES_ORIGIN ["COM"]
properties('MP2/aug-cc-pvtz', properties = ['dipole'])
--------------------------------------------------------------------------

    Molecular point group: c1
  Charge       = 0
  Multiplicity = 1
  Basis Set: AUG-CC-PVTZ
    Blend: AUG-CC-PVTZ
  Basis Set: (AUG-CC-PVTZ AUX)
    Blend: AUG-CC-PVTZ-JKFIT

    Orbital Energies [Eh]
    ---------------------

    Doubly Occupied:

       1A    -20.580613     2A    -20.540225     3A    -15.636754
       4A    -15.610557     5A    -11.427396     6A    -11.384290
       7A    -11.323470     8A    -11.274729     9A    -11.235953
      10A     -1.499839    11A     -1.397217    12A     -1.306092
      13A     -1.245114    14A     -1.076223    15A     -0.966535
      16A     -0.900205    17A     -0.891197    18A     -0.751494
      19A     -0.748911    20A     -0.717504    21A     -0.685792
      22A     -0.678711    23A     -0.639679    24A     -0.619353
      25A     -0.603877    26A     -0.595053    27A     -0.577671
      28A     -0.557417    29A     -0.485205    30A     -0.477923
      31A     -0.454042    32A     -0.452789    33A     -0.338010

  @DF-RHF Final Energy:  -451.62216075017221

   => Energetics <=

    Nuclear Repulsion Energy =            440.4063518046812646
    One-Electron Energy =               -1488.6973468050173324
    Two-Electron Energy =                 596.6688342501638544
    Total Energy =                       -451.6221607501722701
  Basis Set: (AUG-CC-PVTZ AUX)
    Blend: AUG-CC-PVTZ-RI
    Molecular point group: c1

    Geometry (in Angstrom), charge = 0, multiplicity = 1:

       Center              X                  Y                   Z               Mass
    ------------   -----------------  -----------------  -----------------  -----------------
         O           -1.451149407099     1.798603193857     0.000026800264    15.994914619570
         O            2.851587592901     0.218163193857    -0.000054199736    15.994914619570
         N           -1.146182407099    -0.497628806143     0.000202800264    14.003074004430
         N            0.678318592901     0.941578193857     0.000285800264    14.003074004430
         C           -0.642300207099     1.012779293857    -0.000373599736    12.000000000000
         C           -0.260799407099    -1.558119806143     0.000047800264    12.000000000000
         C           -2.584821407099    -0.753311806143    -0.000067199736    12.000000000000
         C            1.082499592901    -1.400411806143     0.000079800264    12.000000000000
         C            1.653785592901    -0.062285806143    -0.000213199736    12.000000000000
         H           -0.732893407099    -2.536340806143     0.000182800264     1.007825032230
         H           -2.867965407099    -1.314321806143     0.893638800264     1.007825032230
         H           -2.867352407099    -1.315401806143    -0.893337199736     1.007825032230
         H           -3.085314407099     0.212164193857    -0.000812199736     1.007825032230
         H            1.017679592901     1.901153193857     0.000322800264     1.007825032230
         H            1.760138592901    -2.244266806143    -0.000081199736     1.007825032230

  Basis Set: AUG-CC-PVTZ
    Blend: AUG-CC-PVTZ
  Basis Set: (AUG-CC-PVTZ AUX)
    Blend: AUG-CC-PVTZ-JKFIT
	 Reference Energy          =    -451.6221607501722133 [Eh]
	 Singles Energy            =      -0.0000000000000000 [Eh]
	 Same-Spin Energy          =      -0.4584093615839962 [Eh]
	 Opposite-Spin Energy      =      -1.3847918432048902 [Eh]
	 Correlation Energy        =      -1.8432012047888864 [Eh]
	 Total Energy              =    -453.4653619549611108 [Eh]

	 ================> DF-SCS-MP2 Energies <==================
	-----------------------------------------------------------
	 SCS Same-Spin Scale       =       0.3333333333333333 [-]
	 SCS Opposite-Spin Scale   =       1.2000000000000000 [-]
	 SCS Same-Spin Energy      =      -0.1528031205279987 [Eh]
	 SCS Opposite-Spin Energy  =      -1.6617502118458682 [Eh]
	 SCS Correlation Energy    =      -1.8145533323738670 [Eh]
	 SCS Total Energy          =    -453.4367140825460751 [Eh]
	-----------------------------------------------------------

  Dipole Moment: [D]
     X:    -3.2533      Y:    -1.8304      Z:    -0.0012     Total:     3.7329

*** Psi4 exiting successfully. Buy a developer a beer!
