                               Psi4 1.3.2 release

  ==> Input File <==

--------------------------------------------------------------------------
#psi4
#
memory 32 gb

molecule  {
0 1
  O       -1.3945310     1.8555980     0.0000210
  O        2.9082060     0.2751580    -0.0000600
  N       -1.0895640    -0.4406340     0.0001970
  N        0.7349370     0.9985730     0.0002800
  C       -0.6953337     0.8946248    -0.0003265
  C       -0.2041810    -1.5011250     0.0000420
  C       -2.5362498    -0.6459535    -0.0000990
  C        1.1391180    -1.3434170     0.0000740
  C        1.7104040    -0.0052910    -0.0002190
  H       -0.6762750    -2.4793460     0.0001770
  H       -2.8113470    -1.2573270     0.8936330
  H       -2.8107340    -1.2584070    -0.8933430
  H       -3.0286960     0.2691590    -0.0008180
  H        1.0742980     1.9581480     0.0003170
  H        1.8167570    -2.1872720    -0.0000870
units angstrom
no_reorient  #important for SAPT in psi4, default
symmetry c1  #important for SAPT in psi4, default
}

set PROPERTIES_ORIGIN ["COM"]
properties('MP2/aug-cc-pvtz', properties = ['dipole'])
--------------------------------------------------------------------------

    Molecular point group: c1
  Charge       = 0
  Multiplicity = 1
  Basis Set: AUG-CC-PVTZ
    Blend: AUG-CC-PVTZ
  Basis Set: (AUG-CC-PVTZ AUX)
    Blend: AUG-CC-PVTZ-JKFIT

    Orbital Energies [Eh]
    ---------------------

    Doubly Occupied:

       1A    -20.556419     2A    -20.534042     3A    -15.643132
       4A    -15.617885     5A    -11.418679     6A    -11.375173
       7A    -11.336771     8A    -11.291050     9A    -11.254988
      10A     -1.448872    11A     -1.386490    12A     -1.317554
      13A     -1.231959    14A     -1.090848    15A     -0.986895
      16A     -0.930023    17A     -0.862736    18A     -0.768225
      19A     -0.747923    20A     -0.702494    21A     -0.683194
      22A     -0.664861    23A     -0.646896    24A     -0.613358
      25A     -0.605509    26A     -0.600896    27A     -0.581394
      28A     -0.560456    29A     -0.497168    30A     -0.488449
      31A     -0.442323    32A     -0.429994    33A     -0.359510

  @DF-RHF Final Energy:  -451.65518118046936

   => Energetics <=

    Nuclear Repulsion Energy =            441.1799671083826979
    One-Electron Energy =               -1490.3179639367738218
    Two-Electron Energy =                 597.4828156479217114
    Total Energy =                       -451.6551811804694125
  Basis Set: (AUG-CC-PVTZ AUX)
    Blend: AUG-CC-PVTZ-RI
    Molecular point group: c1

    Geometry (in Angstrom), charge = 0, multiplicity = 1:

       Center              X                  Y                   Z               Mass
    ------------   -----------------  -----------------  -----------------  -----------------
         O           -1.439943824774     1.810483508210     0.000024239231    15.994914619570
         O            2.862793175226     0.230043508210    -0.000056760769    15.994914619570
         N           -1.134976824774    -0.485748491790     0.000200239231    14.003074004430
         N            0.689524175226     0.953458508210     0.000283239231    14.003074004430
         C           -0.740746524774     0.849510308210    -0.000323260769    12.000000000000
         C           -0.249593824774    -1.546239491790     0.000045239231    12.000000000000
         C           -2.581662624774    -0.691067991790    -0.000095760769    12.000000000000
         C            1.093705175226    -1.388531491790     0.000077239231    12.000000000000
         C            1.664991175226    -0.050405491790    -0.000215760769    12.000000000000
         H           -0.721687824774    -2.524460491790     0.000180239231     1.007825032230
         H           -2.856759824774    -1.302441491790     0.893636239231     1.007825032230
         H           -2.856146824774    -1.303521491790    -0.893339760769     1.007825032230
         H           -3.074108824774     0.224044508210    -0.000814760769     1.007825032230
         H            1.028885175226     1.913033508210     0.000320239231     1.007825032230
         H            1.771344175226    -2.232386491790    -0.000083760769     1.007825032230

  Basis Set: AUG-CC-PVTZ
    Blend: AUG-CC-PVTZ
  Basis Set: (AUG-CC-PVTZ AUX)
    Blend: AUG-CC-PVTZ-JKFIT
	 Reference Energy          =    -451.6551811804693557 [Eh]
	 Singles Energy            =      -0.0000000000000000 [Eh]
	 Same-Spin Energy          =      -0.4574901425916912 [Eh]
	 Opposite-Spin Energy      =      -1.3840795399178656 [Eh]
	 Correlation Energy        =      -1.8415696825095569 [Eh]
	 Total Energy              =    -453.4967508629788995 [Eh]

	 ================> DF-SCS-MP2 Energies <==================
	-----------------------------------------------------------
	 SCS Same-Spin Scale       =       0.3333333333333333 [-]
	 SCS Opposite-Spin Scale   =       1.2000000000000000 [-]
	 SCS Same-Spin Energy      =      -0.1524967141972304 [Eh]
	 SCS Opposite-Spin Energy  =      -1.6608954479014386 [Eh]
	 SCS Correlation Energy    =      -1.8133921620986690 [Eh]
	 SCS Total Energy          =    -453.4685733425680496 [Eh]
	-----------------------------------------------------------

  Dipole Moment: [D]
     X:    -3.5928      Y:    -3.3245      Z:    -0.0010     Total:     4.8950

*** Psi4 exiting successfully. Buy a developer a beer!
