                               Psi4 1.4a3.dev225

  ==> Input File <==

--------------------------------------------------------------------------
#psi4
#
memory 32 gb

molecule  {
0 1
  O       -1.4350980    -1.8086910     0.0000000
  O        2.9075840    -0.3082450     0.0000000
  N       -1.0785060     0.4619330     0.0000000
  N        0.7249750    -1.0056720    -0.0000010
  C       -0.6517050    -0.8641080     0.0000000
  C       -0.1841290     1.5083600     0.0000000
  C       -2.5245930     0.6731660     0.0000000
  C        1.1582900     1.3329580     0.0000000
  C        1.7164880    -0.0081480     0.0000000
  H       -0.6338540     2.4967290    -0.0000010
  H       -2.9690000     0.2175100    -0.8862740
  H       -2.7053712     1.6972693     0.0000000
  H       -2.9689990     0.2175090     0.8862740
  H        1.0585810    -1.9665760     0.0000000
  H        1.8360540     2.1766110     0.0000000
units angstrom
no_reorient  #important for SAPT in psi4, default
symmetry c1  #important for SAPT in psi4, default
}

set PROPERTIES_ORIGIN ["COM"]
properties('MP2/aug-cc-pvtz', properties = ['dipole'])
--------------------------------------------------------------------------

    Molecular point group: c1
  Charge       = 0
  Multiplicity = 1
  Basis Set: AUG-CC-PVTZ
    Blend: AUG-CC-PVTZ
  Basis Set: (AUG-CC-PVTZ AUX)
    Blend: AUG-CC-PVTZ-JKFIT

    Orbital Energies [Eh]
    ---------------------

    Doubly Occupied:

       1A    -20.545614     2A    -20.538443     3A    -15.644527
       4A    -15.626478     5A    -11.415874     6A    -11.379667
       7A    -11.338350     8A    -11.286695     9A    -11.253529
      10A     -1.428815    11A     -1.388712    12A     -1.312075
      13A     -1.246202    14A     -1.091480    15A     -0.993513
      16A     -0.931339    17A     -0.872820    18A     -0.774060
      19A     -0.751714    20A     -0.701109    21A     -0.685723
      22A     -0.658363    23A     -0.643333    24A     -0.614713
      25A     -0.610324    26A     -0.602396    27A     -0.582128
      28A     -0.550422    29A     -0.503016    30A     -0.479898
      31A     -0.445973    32A     -0.432748    33A     -0.358430

  @DF-RHF Final Energy:  -451.66039774765420

   => Energetics <=

    Nuclear Repulsion Energy =            441.8290724342788280
    One-Electron Energy =               -1491.6019754855187784
    Two-Electron Energy =                 598.1125053035858627
    Total Energy =                       -451.6603977476542013
  Basis Set: (AUG-CC-PVTZ AUX)
    Blend: AUG-CC-PVTZ-RI
    Molecular point group: c1

    Geometry (in Angstrom), charge = 0, multiplicity = 1:

       Center              X                  Y                   Z               Mass
    ------------   -----------------  -----------------  -----------------  -----------------
         O           -1.485409794999    -1.769890139926     0.000000119094    15.994914619570
         O            2.857272205001    -0.269444139926     0.000000119094    15.994914619570
         N           -1.128817794999     0.500733860074     0.000000119094    14.003074004430
         N            0.674663205001    -0.966871139926    -0.000000880906    14.003074004430
         C           -0.702016794999    -0.825307139926     0.000000119094    12.000000000000
         C           -0.234440794999     1.547160860074     0.000000119094    12.000000000000
         C           -2.574904794999     0.711966860074     0.000000119094    12.000000000000
         C            1.107978205001     1.371758860074     0.000000119094    12.000000000000
         C            1.666176205001     0.030652860074     0.000000119094    12.000000000000
         H           -0.684165794999     2.535529860074    -0.000000880906     1.007825032230
         H           -3.019311794999     0.256310860074    -0.886273880906     1.007825032230
         H           -2.755682994999     1.736070160074     0.000000119094     1.007825032230
         H           -3.019310794999     0.256309860074     0.886274119094     1.007825032230
         H            1.008269205001    -1.927775139926     0.000000119094     1.007825032230
         H            1.785742205001     2.215411860074     0.000000119094     1.007825032230

  Basis Set: AUG-CC-PVTZ
    Blend: AUG-CC-PVTZ
  Basis Set: (AUG-CC-PVTZ AUX)
    Blend: AUG-CC-PVTZ-JKFIT
	 Reference Energy          =    -451.6603977476542013 [Eh]
	 Singles Energy            =      -0.0000000000000000 [Eh]
	 Same-Spin Energy          =      -0.4580039692768890 [Eh]
	 Opposite-Spin Energy      =      -1.3843208091865167 [Eh]
	 Correlation Energy        =      -1.8423247784634058 [Eh]
	 Total Energy              =    -453.5027225261176227 [Eh]

	 ================> DF-SCS-MP2 Energies <==================
	-----------------------------------------------------------
	 SCS Same-Spin Scale       =       0.3333333333333333 [-]
	 SCS Opposite-Spin Scale   =       1.2000000000000000 [-]
	 SCS Same-Spin Energy      =      -0.1526679897589630 [Eh]
	 SCS Opposite-Spin Energy  =      -1.6611849710238200 [Eh]
	 SCS Correlation Energy    =      -1.8138529607827829 [Eh]
	 SCS Total Energy          =    -453.4742507084370118 [Eh]
	-----------------------------------------------------------

  Dipole Moment: [D]
     X:    -3.2299      Y:     3.5649      Z:     0.0000     Total:     4.8105

*** Psi4 exiting successfully. Buy a developer a beer!
