                               Psi4 1.3.2 release

  ==> Input File <==

--------------------------------------------------------------------------
#psi4
#
memory 32 gb

molecule  {
0 1
  O       -1.3945310     1.8555980     0.0000210
  O        2.9082060     0.2751580    -0.0000600
  N       -1.0895640    -0.4406340     0.0001970
  N        0.7349370     0.9985730     0.0002800
  C       -0.8482445     0.8629872    -0.0003915
  C       -0.2041810    -1.5011250     0.0000420
  C       -2.5282030    -0.6963170    -0.0000730
  C        1.1391180    -1.3434170     0.0000740
  C        1.7104040    -0.0052910    -0.0002190
  H       -0.6762750    -2.4793460     0.0001770
  H       -2.8113470    -1.2573270     0.8936330
  H       -2.8107340    -1.2584070    -0.8933430
  H       -3.0286960     0.2691590    -0.0008180
  H        1.0742980     1.9581480     0.0003170
  H        1.8167570    -2.1872720    -0.0000870
units angstrom
no_reorient  #important for SAPT in psi4, default
symmetry c1  #important for SAPT in psi4, default
}

set PROPERTIES_ORIGIN ["COM"]
properties('MP2/aug-cc-pvtz', properties = ['dipole'])
--------------------------------------------------------------------------

    Molecular point group: c1
  Charge       = 0
  Multiplicity = 1
  Basis Set: AUG-CC-PVTZ
    Blend: AUG-CC-PVTZ
  Basis Set: (AUG-CC-PVTZ AUX)
    Blend: AUG-CC-PVTZ-JKFIT

    Orbital Energies [Eh]
    ---------------------

    Doubly Occupied:

       1A    -20.574774     2A    -20.519245     3A    -15.651315
       4A    -15.587025     5A    -11.422906     6A    -11.358591
       7A    -11.335646     8A    -11.297067     9A    -11.257647
      10A     -1.491800    11A     -1.372847    12A     -1.341987
      13A     -1.190416    14A     -1.093117    15A     -0.995579
      16A     -0.940291    17A     -0.834617    18A     -0.763967
      19A     -0.737067    20A     -0.717439    21A     -0.701863
      22A     -0.667799    23A     -0.635748    24A     -0.613886
      25A     -0.609155    26A     -0.599991    27A     -0.579927
      28A     -0.566101    29A     -0.506798    30A     -0.488700
      31A     -0.423947    32A     -0.406192    33A     -0.366013

  @DF-RHF Final Energy:  -451.61951676292335

   => Energetics <=

    Nuclear Repulsion Energy =            441.0816933327391780
    One-Electron Energy =               -1490.1035003364320346
    Two-Electron Energy =                 597.4022902407695028
    Total Energy =                       -451.6195167629233538
  Basis Set: (AUG-CC-PVTZ AUX)
    Blend: AUG-CC-PVTZ-RI
    Molecular point group: c1

    Geometry (in Angstrom), charge = 0, multiplicity = 1:

       Center              X                  Y                   Z               Mass
    ------------   -----------------  -----------------  -----------------  -----------------
         O           -1.426151952153     1.818290476994     0.000027952252    15.994914619570
         O            2.876585047847     0.237850476994    -0.000053047748    15.994914619570
         N           -1.121184952153    -0.477941523006     0.000203952252    14.003074004430
         N            0.703316047847     0.961265476994     0.000286952252    14.003074004430
         C           -0.879865452153     0.825679676994    -0.000384547748    12.000000000000
         C           -0.235801952153    -1.538432523006     0.000048952252    12.000000000000
         C           -2.559823952153    -0.733624523006    -0.000066047748    12.000000000000
         C            1.107497047847    -1.380724523006     0.000080952252    12.000000000000
         C            1.678783047847    -0.042598523006    -0.000212047748    12.000000000000
         H           -0.707895952153    -2.516653523006     0.000183952252     1.007825032230
         H           -2.842967952153    -1.294634523006     0.893639952252     1.007825032230
         H           -2.842354952153    -1.295714523006    -0.893336047748     1.007825032230
         H           -3.060316952153     0.231851476994    -0.000811047748     1.007825032230
         H            1.042677047847     1.920840476994     0.000323952252     1.007825032230
         H            1.785136047847    -2.224579523006    -0.000080047748     1.007825032230

  Basis Set: AUG-CC-PVTZ
    Blend: AUG-CC-PVTZ
  Basis Set: (AUG-CC-PVTZ AUX)
    Blend: AUG-CC-PVTZ-JKFIT
	 Reference Energy          =    -451.6195167629233538 [Eh]
	 Singles Energy            =      -0.0000000000000000 [Eh]
	 Same-Spin Energy          =      -0.4578221863093039 [Eh]
	 Opposite-Spin Energy      =      -1.3858310189102454 [Eh]
	 Correlation Energy        =      -1.8436532052195493 [Eh]
	 Total Energy              =    -453.4631699681428927 [Eh]

	 ================> DF-SCS-MP2 Energies <==================
	-----------------------------------------------------------
	 SCS Same-Spin Scale       =       0.3333333333333333 [-]
	 SCS Opposite-Spin Scale   =       1.2000000000000000 [-]
	 SCS Same-Spin Energy      =      -0.1526073954364346 [Eh]
	 SCS Opposite-Spin Energy  =      -1.6629972226922944 [Eh]
	 SCS Correlation Energy    =      -1.8156046181287291 [Eh]
	 SCS Total Energy          =    -453.4351213810520562 [Eh]
	-----------------------------------------------------------

  Dipole Moment: [D]
     X:    -4.7360      Y:    -3.3936      Z:    -0.0012     Total:     5.8263

*** Psi4 exiting successfully. Buy a developer a beer!
