                               Psi4 1.4a3.dev225

  ==> Input File <==

--------------------------------------------------------------------------
#psi4
#
memory 32 gb

molecule  {
0 1
  O       -1.4350980    -1.8086910     0.0000000
  O        2.9075840    -0.3082450     0.0000000
  N       -1.0785060     0.4619330     0.0000000
  N        0.7249750    -1.0056720    -0.0000010
  C       -0.6517050    -0.8641080     0.0000000
  C       -0.1841290     1.5083600     0.0000000
  C       -2.5245930     0.6731660     0.0000000
  C        1.1582900     1.3329580     0.0000000
  C        1.7164880    -0.0081480     0.0000000
  H       -0.6421372     2.5149331    -0.0000010
  H       -2.9690000     0.2175100    -0.8862740
  H       -2.7140630     1.7465080     0.0000000
  H       -2.9689990     0.2175090     0.8862740
  H        1.0585810    -1.9665760     0.0000000
  H        1.8360540     2.1766110     0.0000000
units angstrom
no_reorient  #important for SAPT in psi4, default
symmetry c1  #important for SAPT in psi4, default
}

set PROPERTIES_ORIGIN ["COM"]
properties('MP2/aug-cc-pvtz', properties = ['dipole'])
--------------------------------------------------------------------------

    Molecular point group: c1
  Charge       = 0
  Multiplicity = 1
  Basis Set: AUG-CC-PVTZ
    Blend: AUG-CC-PVTZ
  Basis Set: (AUG-CC-PVTZ AUX)
    Blend: AUG-CC-PVTZ-JKFIT

    Orbital Energies [Eh]
    ---------------------

    Doubly Occupied:

       1A    -20.546001     2A    -20.538576     3A    -15.645101
       4A    -15.626714     5A    -11.416380     6A    -11.379839
       7A    -11.340395     8A    -11.292660     9A    -11.253586
      10A     -1.429174    11A     -1.388883    12A     -1.312121
      13A     -1.246282    14A     -1.090802    15A     -0.989092
      16A     -0.929876    17A     -0.872208    18A     -0.772744
      19A     -0.751357    20A     -0.697874    21A     -0.686140
      22A     -0.658178    23A     -0.643283    24A     -0.610686
      25A     -0.607724    26A     -0.601726    27A     -0.578477
      28A     -0.550704    29A     -0.503262    30A     -0.480040
      31A     -0.446108    32A     -0.432992    33A     -0.358628

  @DF-RHF Final Energy:  -451.66070653953045

   => Energetics <=

    Nuclear Repulsion Energy =            441.4867986094482148
    One-Electron Energy =               -1490.9397831539201889
    Two-Electron Energy =                 597.7922780049415223
    Total Energy =                       -451.6607065395304517
  Basis Set: (AUG-CC-PVTZ AUX)
    Blend: AUG-CC-PVTZ-RI
    Molecular point group: c1

    Geometry (in Angstrom), charge = 0, multiplicity = 1:

       Center              X                  Y                   Z               Mass
    ------------   -----------------  -----------------  -----------------  -----------------
         O           -1.485274064813    -1.770429404948     0.000000119094    15.994914619570
         O            2.857407935187    -0.269983404948     0.000000119094    15.994914619570
         N           -1.128682064813     0.500194595052     0.000000119094    14.003074004430
         N            0.674798935187    -0.967410404948    -0.000000880906    14.003074004430
         C           -0.701881064813    -0.825846404948     0.000000119094    12.000000000000
         C           -0.234305064813     1.546621595052     0.000000119094    12.000000000000
         C           -2.574769064813     0.711427595052     0.000000119094    12.000000000000
         C            1.108113935187     1.371219595052     0.000000119094    12.000000000000
         C            1.666311935187     0.030113595052     0.000000119094    12.000000000000
         H           -0.692313264813     2.553194695052    -0.000000880906     1.007825032230
         H           -3.019176064813     0.255771595052    -0.886273880906     1.007825032230
         H           -2.764239064813     1.784769595052     0.000000119094     1.007825032230
         H           -3.019175064813     0.255770595052     0.886274119094     1.007825032230
         H            1.008404935187    -1.928314404948     0.000000119094     1.007825032230
         H            1.785877935187     2.214872595052     0.000000119094     1.007825032230

  Basis Set: AUG-CC-PVTZ
    Blend: AUG-CC-PVTZ
  Basis Set: (AUG-CC-PVTZ AUX)
    Blend: AUG-CC-PVTZ-JKFIT
	 Reference Energy          =    -451.6607065395304517 [Eh]
	 Singles Energy            =      -0.0000000000000000 [Eh]
	 Same-Spin Energy          =      -0.4580872837763059 [Eh]
	 Opposite-Spin Energy      =      -1.3848080714029620 [Eh]
	 Correlation Energy        =      -1.8428953551792679 [Eh]
	 Total Energy              =    -453.5036018947097318 [Eh]

	 ================> DF-SCS-MP2 Energies <==================
	-----------------------------------------------------------
	 SCS Same-Spin Scale       =       0.3333333333333333 [-]
	 SCS Opposite-Spin Scale   =       1.2000000000000000 [-]
	 SCS Same-Spin Energy      =      -0.1526957612587686 [Eh]
	 SCS Opposite-Spin Energy  =      -1.6617696856835544 [Eh]
	 SCS Correlation Energy    =      -1.8144654469423231 [Eh]
	 SCS Total Energy          =    -453.4751719864727875 [Eh]
	-----------------------------------------------------------

  Dipole Moment: [D]
     X:    -3.2192      Y:     3.5478      Z:     0.0000     Total:     4.7907

*** Psi4 exiting successfully. Buy a developer a beer!
