                               Psi4 1.3.2 release

  ==> Input File <==

--------------------------------------------------------------------------
#psi4
#
memory 32 gb

molecule  {
0 1
  O       -1.3945310     1.8555980     0.0000210
  O        2.9082060     0.2751580    -0.0000600
  N       -1.0895640    -0.4406340     0.0001970
  N        0.7349370     0.9985730     0.0002800
  C       -0.6489740     0.8800530    -0.0003070
  C       -0.2041810    -1.5011250     0.0000420
  C       -2.5282030    -0.6963170    -0.0000730
  C        0.9404823    -1.3667375     0.0000693
  C        1.7104040    -0.0052910    -0.0002190
  H       -0.6762750    -2.4793460     0.0001770
  H       -2.8113470    -1.2573270     0.8936330
  H       -2.8107340    -1.2584070    -0.8933430
  H       -3.0286960     0.2691590    -0.0008180
  H        1.0742980     1.9581480     0.0003170
  H        1.8167570    -2.1872720    -0.0000870
units angstrom
no_reorient  #important for SAPT in psi4, default
symmetry c1  #important for SAPT in psi4, default
}

set PROPERTIES_ORIGIN ["COM"]
properties('MP2/aug-cc-pvtz', properties = ['dipole'])
--------------------------------------------------------------------------

    Molecular point group: c1
  Charge       = 0
  Multiplicity = 1
  Basis Set: AUG-CC-PVTZ
    Blend: AUG-CC-PVTZ
  Basis Set: (AUG-CC-PVTZ AUX)
    Blend: AUG-CC-PVTZ-JKFIT

    Orbital Energies [Eh]
    ---------------------

    Doubly Occupied:

       1A    -20.558683     2A    -20.541435     3A    -15.628360
       4A    -15.626038     5A    -11.414451     6A    -11.396871
       7A    -11.293606     8A    -11.282535     9A    -11.250975
      10A     -1.426303    11A     -1.396441    12A     -1.312023
      13A     -1.245303    14A     -1.129421    15A     -0.981462
      16A     -0.911333    17A     -0.878147    18A     -0.777191
      19A     -0.740211    20A     -0.707016    21A     -0.683320
      22A     -0.661779    23A     -0.643782    24A     -0.613489
      25A     -0.612053    26A     -0.585832    27A     -0.555117
      28A     -0.544984    29A     -0.521282    30A     -0.472375
      31A     -0.446206    32A     -0.435584    33A     -0.383447

  @DF-RHF Final Energy:  -451.58912040573108

   => Energetics <=

    Nuclear Repulsion Energy =            443.3795152417362715
    One-Electron Energy =               -1494.6231596010713929
    Two-Electron Energy =                 599.6545239536039844
    Total Energy =                       -451.5891204057311370
  Basis Set: (AUG-CC-PVTZ AUX)
    Blend: AUG-CC-PVTZ-RI
    Molecular point group: c1

    Geometry (in Angstrom), charge = 0, multiplicity = 1:

       Center              X                  Y                   Z               Mass
    ------------   -----------------  -----------------  -----------------  -----------------
         O           -1.426212388706     1.818885959831     0.000020354840    15.994914619570
         O            2.876524611294     0.238445959831    -0.000060645160    15.994914619570
         N           -1.121245388706    -0.477346040169     0.000196354840    14.003074004430
         N            0.703255611294     0.961860959831     0.000279354840    14.003074004430
         C           -0.680655388706     0.843340959831    -0.000307645160    12.000000000000
         C           -0.235862388706    -1.537837040169     0.000041354840    12.000000000000
         C           -2.559884388706    -0.733029040169    -0.000073645160    12.000000000000
         C            0.908800911294    -1.403449540169     0.000068654840    12.000000000000
         C            1.678722611294    -0.042003040169    -0.000219645160    12.000000000000
         H           -0.707956388706    -2.516058040169     0.000176354840     1.007825032230
         H           -2.843028388706    -1.294039040169     0.893632354840     1.007825032230
         H           -2.842415388706    -1.295119040169    -0.893343645160     1.007825032230
         H           -3.060377388706     0.232446959831    -0.000818645160     1.007825032230
         H            1.042616611294     1.921435959831     0.000316354840     1.007825032230
         H            1.785075611294    -2.223984040169    -0.000087645160     1.007825032230

  Basis Set: AUG-CC-PVTZ
    Blend: AUG-CC-PVTZ
  Basis Set: (AUG-CC-PVTZ AUX)
    Blend: AUG-CC-PVTZ-JKFIT
	 Reference Energy          =    -451.5891204057310802 [Eh]
	 Singles Energy            =      -0.0000000000000000 [Eh]
	 Same-Spin Energy          =      -0.4572177186913388 [Eh]
	 Opposite-Spin Energy      =      -1.3835940804929971 [Eh]
	 Correlation Energy        =      -1.8408117991843360 [Eh]
	 Total Energy              =    -453.4299322049154171 [Eh]

	 ================> DF-SCS-MP2 Energies <==================
	-----------------------------------------------------------
	 SCS Same-Spin Scale       =       0.3333333333333333 [-]
	 SCS Opposite-Spin Scale   =       1.2000000000000000 [-]
	 SCS Same-Spin Energy      =      -0.1524059062304463 [Eh]
	 SCS Opposite-Spin Energy  =      -1.6603128965915965 [Eh]
	 SCS Correlation Energy    =      -1.8127188028220429 [Eh]
	 SCS Total Energy          =    -453.4018392085530991 [Eh]
	-----------------------------------------------------------

  Dipole Moment: [D]
     X:    -2.5392      Y:    -3.3830      Z:    -0.0009     Total:     4.2299

*** Psi4 exiting successfully. Buy a developer a beer!
