                               Psi4 1.3.2 release

  ==> Input File <==

--------------------------------------------------------------------------
#psi4
#
memory 32 gb

molecule  {
0 1
  O       -1.3945310     1.8555980     0.0000210
  O        2.9082060     0.2751580    -0.0000600
  N       -1.0895640    -0.4406340     0.0001970
  N        0.7349370     0.9985730     0.0002800
  C       -0.6489740     0.8800530    -0.0003070
  C       -0.2088666    -1.4541485     0.0000510
  C       -2.5282030    -0.6963170    -0.0000730
  C        1.1391180    -1.3434170     0.0000740
  C        1.7104040    -0.0052910    -0.0002190
  H       -0.6762750    -2.4793460     0.0001770
  H       -2.8113470    -1.2573270     0.8936330
  H       -2.8107340    -1.2584070    -0.8933430
  H       -3.0286960     0.2691590    -0.0008180
  H        1.0742980     1.9581480     0.0003170
  H        1.8457943    -2.1631087    -0.0000823
units angstrom
no_reorient  #important for SAPT in psi4, default
symmetry c1  #important for SAPT in psi4, default
}

set PROPERTIES_ORIGIN ["COM"]
properties('MP2/aug-cc-pvtz', properties = ['dipole'])
--------------------------------------------------------------------------

    Molecular point group: c1
  Charge       = 0
  Multiplicity = 1
  Basis Set: AUG-CC-PVTZ
    Blend: AUG-CC-PVTZ
  Basis Set: (AUG-CC-PVTZ AUX)
    Blend: AUG-CC-PVTZ-JKFIT

    Orbital Energies [Eh]
    ---------------------

    Doubly Occupied:

       1A    -20.547573     2A    -20.535589     3A    -15.648291
       4A    -15.626548     5A    -11.420121     6A    -11.375944
       7A    -11.337590     8A    -11.293330     9A    -11.252230
      10A     -1.431684    11A     -1.386155    12A     -1.323246
      13A     -1.247346    14A     -1.089957    15A     -0.994377
      16A     -0.932491    17A     -0.873044    18A     -0.773508
      19A     -0.754681    20A     -0.692516    21A     -0.690465
      22A     -0.659197    23A     -0.643051    24A     -0.616127
      25A     -0.612344    26A     -0.596396    27A     -0.575678
      28A     -0.553964    29A     -0.506258    30A     -0.479572
      31A     -0.443375    32A     -0.432874    33A     -0.358127

  @DF-RHF Final Energy:  -451.65815343459002

   => Energetics <=

    Nuclear Repulsion Energy =            442.1265535513420559
    One-Electron Energy =               -1492.1621122294652650
    Two-Electron Energy =                 598.3774052435331896
    Total Energy =                       -451.6581534345899627
  Basis Set: (AUG-CC-PVTZ AUX)
    Blend: AUG-CC-PVTZ-RI
    Molecular point group: c1

    Geometry (in Angstrom), charge = 0, multiplicity = 1:

       Center              X                  Y                   Z               Mass
    ------------   -----------------  -----------------  -----------------  -----------------
         O           -1.444909714812     1.812000080581     0.000019012942    15.994914619570
         O            2.857827285188     0.231560080581    -0.000061987058    15.994914619570
         N           -1.139942714812    -0.484231919419     0.000195012942    14.003074004430
         N            0.684558285188     0.954975080581     0.000278012942    14.003074004430
         C           -0.699352714812     0.836455080581    -0.000308987058    12.000000000000
         C           -0.259245314812    -1.497746419419     0.000049012942    12.000000000000
         C           -2.578581714812    -0.739914919419    -0.000074987058    12.000000000000
         C            1.088739285188    -1.387014919419     0.000072012942    12.000000000000
         C            1.660025285188    -0.048888919419    -0.000220987058    12.000000000000
         H           -0.726653714812    -2.522943919419     0.000175012942     1.007825032230
         H           -2.861725714812    -1.300924919419     0.893631012942     1.007825032230
         H           -2.861112714812    -1.302004919419    -0.893344987058     1.007825032230
         H           -3.079074714812     0.225561080581    -0.000819987058     1.007825032230
         H            1.023919285188     1.914550080581     0.000315012942     1.007825032230
         H            1.795415585188    -2.206706619419    -0.000084287058     1.007825032230

  Basis Set: AUG-CC-PVTZ
    Blend: AUG-CC-PVTZ
  Basis Set: (AUG-CC-PVTZ AUX)
    Blend: AUG-CC-PVTZ-JKFIT
	 Reference Energy          =    -451.6581534345900195 [Eh]
	 Singles Energy            =      -0.0000000000000000 [Eh]
	 Same-Spin Energy          =      -0.4583769927954991 [Eh]
	 Opposite-Spin Energy      =      -1.3846716572123945 [Eh]
	 Correlation Energy        =      -1.8430486500078935 [Eh]
	 Total Energy              =    -453.5012020845979350 [Eh]

	 ================> DF-SCS-MP2 Energies <==================
	-----------------------------------------------------------
	 SCS Same-Spin Scale       =       0.3333333333333333 [-]
	 SCS Opposite-Spin Scale   =       1.2000000000000000 [-]
	 SCS Same-Spin Energy      =      -0.1527923309318330 [Eh]
	 SCS Opposite-Spin Energy  =      -1.6616059886548733 [Eh]
	 SCS Correlation Energy    =      -1.8143983195867064 [Eh]
	 SCS Total Energy          =    -453.4725517541767204 [Eh]
	-----------------------------------------------------------

  Dipole Moment: [D]
     X:    -3.4168      Y:    -3.4352      Z:    -0.0009     Total:     4.8451

*** Psi4 exiting successfully. Buy a developer a beer!
