                               Psi4 1.4a3.dev225

  ==> Input File <==

--------------------------------------------------------------------------
#psi4
#
memory 32 gb

molecule  {
0 1
  O       -1.4350980    -1.8086910     0.0000000
  O        2.9075840    -0.3082450     0.0000000
  N       -1.0785060     0.4619330     0.0000000
  N        0.7249750    -1.0056720    -0.0000010
  C       -0.6517050    -0.8641080     0.0000000
  C       -0.1841290     1.5083600     0.0000000
  C       -2.5245930     0.6731660     0.0000000
  C        1.1582900     1.3329580     0.0000000
  C        1.6812397    -0.0436100    -0.0000000
  H       -0.6338540     2.4967290    -0.0000010
  H       -2.9690000     0.2175100    -0.8862740
  H       -2.7140630     1.7465080     0.0000000
  H       -2.9689990     0.2175090     0.8862740
  H        1.0585810    -1.9665760     0.0000000
  H        1.8360540     2.1766110     0.0000000
units angstrom
no_reorient  #important for SAPT in psi4, default
symmetry c1  #important for SAPT in psi4, default
}

set PROPERTIES_ORIGIN ["COM"]
properties('MP2/aug-cc-pvtz', properties = ['dipole'])
--------------------------------------------------------------------------

    Molecular point group: c1
  Charge       = 0
  Multiplicity = 1
  Basis Set: AUG-CC-PVTZ
    Blend: AUG-CC-PVTZ
  Basis Set: (AUG-CC-PVTZ AUX)
    Blend: AUG-CC-PVTZ-JKFIT

    Orbital Energies [Eh]
    ---------------------

    Doubly Occupied:

       1A    -20.551004     2A    -20.531249     3A    -15.646286
       4A    -15.634910     5A    -11.421452     6A    -11.378732
       7A    -11.335110     8A    -11.293842     9A    -11.255043
      10A     -1.434306    11A     -1.375573    12A     -1.313630
      13A     -1.257809    14A     -1.089005    15A     -0.992138
      16A     -0.930037    17A     -0.885126    18A     -0.778021
      19A     -0.751776    20A     -0.701614    21A     -0.689779
      22A     -0.660959    23A     -0.640669    24A     -0.614906
      25A     -0.610092    26A     -0.592846    27A     -0.580251
      28A     -0.547181    29A     -0.504867    30A     -0.481492
      31A     -0.442076    32A     -0.433349    33A     -0.357236

  @DF-RHF Final Energy:  -451.65750007795941

   => Energetics <=

    Nuclear Repulsion Energy =            441.9437434625162950
    One-Electron Energy =               -1491.7777556915277728
    Two-Electron Energy =                 598.1765121510520657
    Total Energy =                       -451.6575000779594120
  Basis Set: (AUG-CC-PVTZ AUX)
    Blend: AUG-CC-PVTZ-RI
    Molecular point group: c1

    Geometry (in Angstrom), charge = 0, multiplicity = 1:

       Center              X                  Y                   Z               Mass
    ------------   -----------------  -----------------  -----------------  -----------------
         O           -1.481984458707    -1.766907663930     0.000000119094    15.994914619570
         O            2.860697541293    -0.266461663930     0.000000119094    15.994914619570
         N           -1.125392458707     0.503716336070     0.000000119094    14.003074004430
         N            0.678088541293    -0.963888663930    -0.000000880906    14.003074004430
         C           -0.698591458707    -0.822324663930     0.000000119094    12.000000000000
         C           -0.231015458707     1.550143336070     0.000000119094    12.000000000000
         C           -2.571479458707     0.714949336070     0.000000119094    12.000000000000
         C            1.111403541293     1.374741336070     0.000000119094    12.000000000000
         C            1.634353241293    -0.001826663930     0.000000119094    12.000000000000
         H           -0.680740458707     2.538512336070    -0.000000880906     1.007825032230
         H           -3.015886458707     0.259293336070    -0.886273880906     1.007825032230
         H           -2.760949458707     1.788291336070     0.000000119094     1.007825032230
         H           -3.015885458707     0.259292336070     0.886274119094     1.007825032230
         H            1.011694541293    -1.924792663930     0.000000119094     1.007825032230
         H            1.789167541293     2.218394336070     0.000000119094     1.007825032230

  Basis Set: AUG-CC-PVTZ
    Blend: AUG-CC-PVTZ
  Basis Set: (AUG-CC-PVTZ AUX)
    Blend: AUG-CC-PVTZ-JKFIT
	 Reference Energy          =    -451.6575000779594120 [Eh]
	 Singles Energy            =      -0.0000000000000000 [Eh]
	 Same-Spin Energy          =      -0.4583543493691450 [Eh]
	 Opposite-Spin Energy      =      -1.3853196314342093 [Eh]
	 Correlation Energy        =      -1.8436739808033544 [Eh]
	 Total Energy              =    -453.5011740587627855 [Eh]

	 ================> DF-SCS-MP2 Energies <==================
	-----------------------------------------------------------
	 SCS Same-Spin Scale       =       0.3333333333333333 [-]
	 SCS Opposite-Spin Scale   =       1.2000000000000000 [-]
	 SCS Same-Spin Energy      =      -0.1527847831230483 [Eh]
	 SCS Opposite-Spin Energy  =      -1.6623835577210511 [Eh]
	 SCS Correlation Energy    =      -1.8151683408440993 [Eh]
	 SCS Total Energy          =    -453.4726684188034938 [Eh]
	-----------------------------------------------------------

  Dipole Moment: [D]
     X:    -3.5144      Y:     3.3810      Z:     0.0000     Total:     4.8767

*** Psi4 exiting successfully. Buy a developer a beer!
