                               Psi4 1.4a3.dev225

  ==> Input File <==

--------------------------------------------------------------------------
#psi4
#
memory 32 gb

molecule  {
0 1
  O       -1.4350980    -1.8086910     0.0000000
  O        2.9075840    -0.3082450     0.0000000
  N       -1.0785060     0.4619330     0.0000000
  N        0.7249750    -1.0056720    -0.0000010
  C       -0.6517050    -0.8641080     0.0000000
  C       -0.1841290     1.5083600     0.0000000
  C       -2.5245930     0.6731660     0.0000000
  C        1.1781214     1.3303668     0.0000000
  C        1.7164880    -0.0081480     0.0000000
  H       -0.6338540     2.4967290    -0.0000010
  H       -2.9690000     0.2175100    -0.8862740
  H       -2.7140630     1.7465080     0.0000000
  H       -2.9689990     0.2175090     0.8862740
  H        1.0585810    -1.9665760     0.0000000
  H        1.8360540     2.1766110     0.0000000
units angstrom
no_reorient  #important for SAPT in psi4, default
symmetry c1  #important for SAPT in psi4, default
}

set PROPERTIES_ORIGIN ["COM"]
properties('MP2/aug-cc-pvtz', properties = ['dipole'])
--------------------------------------------------------------------------

    Molecular point group: c1
  Charge       = 0
  Multiplicity = 1
  Basis Set: AUG-CC-PVTZ
    Blend: AUG-CC-PVTZ
  Basis Set: (AUG-CC-PVTZ AUX)
    Blend: AUG-CC-PVTZ-JKFIT

    Orbital Energies [Eh]
    ---------------------

    Doubly Occupied:

       1A    -20.546463     2A    -20.536154     3A    -15.646877
       4A    -15.626736     5A    -11.416785     6A    -11.377810
       7A    -11.342270     8A    -11.293602     9A    -11.253729
      10A     -1.429499    11A     -1.387807    12A     -1.312611
      13A     -1.246257    14A     -1.088397    15A     -0.990081
      16A     -0.933272    17A     -0.871577    18A     -0.772757
      19A     -0.752162    20A     -0.700659    21A     -0.686542
      22A     -0.658416    23A     -0.643338    24A     -0.611148
      25A     -0.610970    26A     -0.600869    27A     -0.580074
      28A     -0.550636    29A     -0.502245    30A     -0.480527
      31A     -0.445177    32A     -0.432705    33A     -0.356188

  @DF-RHF Final Energy:  -451.66019988272791

   => Energetics <=

    Nuclear Repulsion Energy =            441.4169674936290448
    One-Electron Energy =               -1490.7856480602049487
    Two-Electron Energy =                 597.7084806838479381
    Total Energy =                       -451.6601998827279658
  Basis Set: (AUG-CC-PVTZ AUX)
    Blend: AUG-CC-PVTZ-RI
    Molecular point group: c1

    Geometry (in Angstrom), charge = 0, multiplicity = 1:

       Center              X                  Y                   Z               Mass
    ------------   -----------------  -----------------  -----------------  -----------------
         O           -1.487228357857    -1.770037150114     0.000000119094    15.994914619570
         O            2.855453642143    -0.269591150114     0.000000119094    15.994914619570
         N           -1.130636357857     0.500586849886     0.000000119094    14.003074004430
         N            0.672844642143    -0.967018150114    -0.000000880906    14.003074004430
         C           -0.703835357857    -0.825454150114     0.000000119094    12.000000000000
         C           -0.236259357857     1.547013849886     0.000000119094    12.000000000000
         C           -2.576723357857     0.711819849886     0.000000119094    12.000000000000
         C            1.125991042143     1.369020649886     0.000000119094    12.000000000000
         C            1.664357642143     0.030505849886     0.000000119094    12.000000000000
         H           -0.685984357857     2.535382849886    -0.000000880906     1.007825032230
         H           -3.021130357857     0.256163849886    -0.886273880906     1.007825032230
         H           -2.766193357857     1.785161849886     0.000000119094     1.007825032230
         H           -3.021129357857     0.256162849886     0.886274119094     1.007825032230
         H            1.006450642143    -1.927922150114     0.000000119094     1.007825032230
         H            1.783923642143     2.215264849886     0.000000119094     1.007825032230

  Basis Set: AUG-CC-PVTZ
    Blend: AUG-CC-PVTZ
  Basis Set: (AUG-CC-PVTZ AUX)
    Blend: AUG-CC-PVTZ-JKFIT
	 Reference Energy          =    -451.6601998827279090 [Eh]
	 Singles Energy            =      -0.0000000000000000 [Eh]
	 Same-Spin Energy          =      -0.4582559612972409 [Eh]
	 Opposite-Spin Energy      =      -1.3850054389943689 [Eh]
	 Correlation Energy        =      -1.8432614002916099 [Eh]
	 Total Energy              =    -453.5034612830195329 [Eh]

	 ================> DF-SCS-MP2 Energies <==================
	-----------------------------------------------------------
	 SCS Same-Spin Scale       =       0.3333333333333333 [-]
	 SCS Opposite-Spin Scale   =       1.2000000000000000 [-]
	 SCS Same-Spin Energy      =      -0.1527519870990803 [Eh]
	 SCS Opposite-Spin Energy  =      -1.6620065267932427 [Eh]
	 SCS Correlation Energy    =      -1.8147585138923230 [Eh]
	 SCS Total Energy          =    -453.4749583966202522 [Eh]
	-----------------------------------------------------------

  Dipole Moment: [D]
     X:    -3.2881      Y:     3.5620      Z:     0.0000     Total:     4.8476

*** Psi4 exiting successfully. Buy a developer a beer!
