                               Psi4 1.4a3.dev225

  ==> Input File <==

--------------------------------------------------------------------------
#psi4
#
memory 32 gb

molecule  {
0 1
  O       -1.4350980    -1.8086910     0.0000000
  O        2.9075840    -0.3082450     0.0000000
  N       -1.0785060     0.4619330     0.0000000
  N        0.7249750    -1.0056720    -0.0000010
  C       -0.6517050    -0.8641080     0.0000000
  C       -0.1841290     1.5083600     0.0000000
  C       -2.5245930     0.6731660     0.0000000
  C        1.1582900     1.3329580     0.0000000
  C        1.7517363     0.0273140     0.0000000
  H       -0.6338540     2.4967290    -0.0000010
  H       -2.9690000     0.2175100    -0.8862740
  H       -2.7140630     1.7465080     0.0000000
  H       -2.9689990     0.2175090     0.8862740
  H        1.0585810    -1.9665760     0.0000000
  H        1.8360540     2.1766110     0.0000000
units angstrom
no_reorient  #important for SAPT in psi4, default
symmetry c1  #important for SAPT in psi4, default
}

set PROPERTIES_ORIGIN ["COM"]
properties('MP2/aug-cc-pvtz', properties = ['dipole'])
--------------------------------------------------------------------------

    Molecular point group: c1
  Charge       = 0
  Multiplicity = 1
  Basis Set: AUG-CC-PVTZ
    Blend: AUG-CC-PVTZ
  Basis Set: (AUG-CC-PVTZ AUX)
    Blend: AUG-CC-PVTZ-JKFIT

    Orbital Energies [Eh]
    ---------------------

    Doubly Occupied:

       1A    -20.545679     2A    -20.540887     3A    -15.643801
       4A    -15.617704     5A    -11.410912     6A    -11.380821
       7A    -11.341592     8A    -11.291645     9A    -11.252497
      10A     -1.425877    11A     -1.403719    12A     -1.310000
      13A     -1.233469    14A     -1.093524    15A     -0.986815
      16A     -0.933079    17A     -0.860494    18A     -0.768946
      19A     -0.750060    20A     -0.701373    21A     -0.682887
      22A     -0.657294    23A     -0.645195    24A     -0.610459
      25A     -0.608000    26A     -0.605818    27A     -0.576616
      28A     -0.555419    29A     -0.501807    30A     -0.480332
      31A     -0.446520    32A     -0.430154    33A     -0.360026

  @DF-RHF Final Energy:  -451.65959973243724

   => Energetics <=

    Nuclear Repulsion Energy =            441.2701297306904280
    One-Electron Energy =               -1490.5526193591740594
    Two-Electron Energy =                 597.6228898960464448
    Total Energy =                       -451.6595997324373002
  Basis Set: (AUG-CC-PVTZ AUX)
    Blend: AUG-CC-PVTZ-RI
    Molecular point group: c1

    Geometry (in Angstrom), charge = 0, multiplicity = 1:

       Center              X                  Y                   Z               Mass
    ------------   -----------------  -----------------  -----------------  -----------------
         O           -1.488696133985    -1.773660030106     0.000000119094    15.994914619570
         O            2.853985866015    -0.273214030106     0.000000119094    15.994914619570
         N           -1.132104133985     0.496963969894     0.000000119094    14.003074004430
         N            0.671376866015    -0.970641030106    -0.000000880906    14.003074004430
         C           -0.705303133985    -0.829077030106     0.000000119094    12.000000000000
         C           -0.237727133985     1.543390969894     0.000000119094    12.000000000000
         C           -2.578191133985     0.708196969894     0.000000119094    12.000000000000
         C            1.104691866015     1.367988969894     0.000000119094    12.000000000000
         C            1.698138166015     0.062344969894     0.000000119094    12.000000000000
         H           -0.687452133985     2.531759969894    -0.000000880906     1.007825032230
         H           -3.022598133985     0.252540969894    -0.886273880906     1.007825032230
         H           -2.767661133985     1.781538969894     0.000000119094     1.007825032230
         H           -3.022597133985     0.252539969894     0.886274119094     1.007825032230
         H            1.004982866015    -1.931545030106     0.000000119094     1.007825032230
         H            1.782455866015     2.211641969894     0.000000119094     1.007825032230

  Basis Set: AUG-CC-PVTZ
    Blend: AUG-CC-PVTZ
  Basis Set: (AUG-CC-PVTZ AUX)
    Blend: AUG-CC-PVTZ-JKFIT
	 Reference Energy          =    -451.6595997324372433 [Eh]
	 Singles Energy            =      -0.0000000000000000 [Eh]
	 Same-Spin Energy          =      -0.4578632334632101 [Eh]
	 Opposite-Spin Energy      =      -1.3842663726047602 [Eh]
	 Correlation Energy        =      -1.8421296060679704 [Eh]
	 Total Energy              =    -453.5017293385051858 [Eh]

	 ================> DF-SCS-MP2 Energies <==================
	-----------------------------------------------------------
	 SCS Same-Spin Scale       =       0.3333333333333333 [-]
	 SCS Opposite-Spin Scale   =       1.2000000000000000 [-]
	 SCS Same-Spin Energy      =      -0.1526210778210700 [Eh]
	 SCS Opposite-Spin Energy  =      -1.6611196471257121 [Eh]
	 SCS Correlation Energy    =      -1.8137407249467821 [Eh]
	 SCS Total Energy          =    -453.4733404573840403 [Eh]
	-----------------------------------------------------------

  Dipole Moment: [D]
     X:    -2.9239      Y:     3.7285      Z:     0.0000     Total:     4.7382

*** Psi4 exiting successfully. Buy a developer a beer!
