                               Psi4 1.3.2 release

  ==> Input File <==

--------------------------------------------------------------------------
#psi4
#
memory 32 gb

molecule  {
0 1
  O       -1.3945310     1.8555980     0.0000210
  O        2.9082060     0.2751580    -0.0000600
  N       -1.0895640    -0.4406340     0.0001970
  N        0.7349370     0.9985730     0.0002800
  C       -0.6605158     0.8838475    -0.0003027
  C       -0.2134691    -1.5088109     0.0000480
  C       -2.5282030    -0.6963170    -0.0000730
  C        1.1391180    -1.3434170     0.0000740
  C        1.7104040    -0.0052910    -0.0002190
  H       -0.6762750    -2.4793460     0.0001770
  H       -2.8113470    -1.2573270     0.8936330
  H       -2.8107340    -1.2584070    -0.8933430
  H       -3.0286960     0.2691590    -0.0008180
  H        1.0742980     1.9581480     0.0003170
  H        1.8167570    -2.1872720    -0.0000870
units angstrom
no_reorient  #important for SAPT in psi4, default
symmetry c1  #important for SAPT in psi4, default
}

set PROPERTIES_ORIGIN ["COM"]
properties('MP2/aug-cc-pvtz', properties = ['dipole'])
--------------------------------------------------------------------------

    Molecular point group: c1
  Charge       = 0
  Multiplicity = 1
  Basis Set: AUG-CC-PVTZ
    Blend: AUG-CC-PVTZ
  Basis Set: (AUG-CC-PVTZ AUX)
    Blend: AUG-CC-PVTZ-JKFIT

    Orbital Energies [Eh]
    ---------------------

    Doubly Occupied:

       1A    -20.548475     2A    -20.537367     3A    -15.644454
       4A    -15.624579     5A    -11.419167     6A    -11.378619
       7A    -11.337715     8A    -11.289894     9A    -11.256665
      10A     -1.432541    11A     -1.387919    12A     -1.314080
      13A     -1.242365    14A     -1.088576    15A     -0.988957
      16A     -0.931910    17A     -0.869395    18A     -0.770543
      19A     -0.750877    20A     -0.702668    21A     -0.685268
      22A     -0.659155    23A     -0.645097    24A     -0.614175
      25A     -0.610004    26A     -0.601198    27A     -0.572315
      28A     -0.555861    29A     -0.499069    30A     -0.482712
      31A     -0.445211    32A     -0.432542    33A     -0.358958

  @DF-RHF Final Energy:  -451.65999663638627

   => Energetics <=

    Nuclear Repulsion Energy =            440.9599210085646632
    One-Electron Energy =               -1489.8831759051595327
    Two-Electron Energy =                 597.2632582602086586
    Total Energy =                       -451.6599966363862677
  Basis Set: (AUG-CC-PVTZ AUX)
    Blend: AUG-CC-PVTZ-RI
    Molecular point group: c1

    Geometry (in Angstrom), charge = 0, multiplicity = 1:

       Center              X                  Y                   Z               Mass
    ------------   -----------------  -----------------  -----------------  -----------------
         O           -1.443140507112     1.817036199557     0.000018926756    15.994914619570
         O            2.859596492888     0.236596199557    -0.000062073244    15.994914619570
         N           -1.138173507112    -0.479195800443     0.000194926756    14.003074004430
         N            0.686327492888     0.960011199557     0.000277926756    14.003074004430
         C           -0.709125307112     0.845285699557    -0.000304773244    12.000000000000
         C           -0.262078607112    -1.547372700443     0.000045926756    12.000000000000
         C           -2.576812507112    -0.734878800443    -0.000075073244    12.000000000000
         C            1.090508492888    -1.381978800443     0.000071926756    12.000000000000
         C            1.661794492888    -0.043852800443    -0.000221073244    12.000000000000
         H           -0.724884507112    -2.517907800443     0.000174926756     1.007825032230
         H           -2.859956507112    -1.295888800443     0.893630926756     1.007825032230
         H           -2.859343507112    -1.296968800443    -0.893345073244     1.007825032230
         H           -3.077305507112     0.230597199557    -0.000820073244     1.007825032230
         H            1.025688492888     1.919586199557     0.000314926756     1.007825032230
         H            1.768147492888    -2.225833800443    -0.000089073244     1.007825032230

  Basis Set: AUG-CC-PVTZ
    Blend: AUG-CC-PVTZ
  Basis Set: (AUG-CC-PVTZ AUX)
    Blend: AUG-CC-PVTZ-JKFIT
	 Reference Energy          =    -451.6599966363862677 [Eh]
	 Singles Energy            =      -0.0000000000000000 [Eh]
	 Same-Spin Energy          =      -0.4580327564537557 [Eh]
	 Opposite-Spin Energy      =      -1.3848774074103860 [Eh]
	 Correlation Energy        =      -1.8429101638641416 [Eh]
	 Total Energy              =    -453.5029068002504005 [Eh]

	 ================> DF-SCS-MP2 Energies <==================
	-----------------------------------------------------------
	 SCS Same-Spin Scale       =       0.3333333333333333 [-]
	 SCS Opposite-Spin Scale   =       1.2000000000000000 [-]
	 SCS Same-Spin Energy      =      -0.1526775854845852 [Eh]
	 SCS Opposite-Spin Energy  =      -1.6618528888924631 [Eh]
	 SCS Correlation Energy    =      -1.8145304743770483 [Eh]
	 SCS Total Energy          =    -453.4745271107632902 [Eh]
	-----------------------------------------------------------

  Dipole Moment: [D]
     X:    -3.3393      Y:    -3.4900      Z:    -0.0009     Total:     4.8303

*** Psi4 exiting successfully. Buy a developer a beer!
