                               Psi4 1.3.2 release

  ==> Input File <==

--------------------------------------------------------------------------
#psi4
#
memory 32 gb

molecule  {
0 1
  O       -1.4030157     1.8490547     0.0000138
  O        2.9082060     0.2751580    -0.0000600
  N       -1.0895640    -0.4406340     0.0001970
  N        0.7359186     0.9864917     0.0002729
  C       -0.6489740     0.8800530    -0.0003070
  C       -0.2041810    -1.5011250     0.0000420
  C       -2.5282030    -0.6963170    -0.0000730
  C        1.1391180    -1.3434170     0.0000740
  C        1.7104040    -0.0052910    -0.0002190
  H       -0.6762750    -2.4793460     0.0001770
  H       -2.8113470    -1.2573270     0.8936330
  H       -2.8107340    -1.2584070    -0.8933430
  H       -3.0286960     0.2691590    -0.0008180
  H        1.0742980     1.9581480     0.0003170
  H        1.8167570    -2.1872720    -0.0000870
units angstrom
no_reorient  #important for SAPT in psi4, default
symmetry c1  #important for SAPT in psi4, default
}

set PROPERTIES_ORIGIN ["COM"]
properties('MP2/aug-cc-pvtz', properties = ['dipole'])
--------------------------------------------------------------------------

    Molecular point group: c1
  Charge       = 0
  Multiplicity = 1
  Basis Set: AUG-CC-PVTZ
    Blend: AUG-CC-PVTZ
  Basis Set: (AUG-CC-PVTZ AUX)
    Blend: AUG-CC-PVTZ-JKFIT

    Orbital Energies [Eh]
    ---------------------

    Doubly Occupied:

       1A    -20.546641     2A    -20.538092     3A    -15.643861
       4A    -15.628330     5A    -11.419357     6A    -11.379169
       7A    -11.336529     8A    -11.289497     9A    -11.255566
      10A     -1.429129    11A     -1.388410    12A     -1.312466
      13A     -1.247015    14A     -1.090772    15A     -0.990050
      16A     -0.929817    17A     -0.875101    18A     -0.770996
      19A     -0.751318    20A     -0.698836    21A     -0.685529
      22A     -0.658019    23A     -0.644546    24A     -0.615626
      25A     -0.609926    26A     -0.601218    27A     -0.570993
      28A     -0.554671    29A     -0.499117    30A     -0.480251
      31A     -0.446546    32A     -0.433847    33A     -0.360273

  @DF-RHF Final Energy:  -451.65983055495326

   => Energetics <=

    Nuclear Repulsion Energy =            441.4008955254649891
    One-Electron Energy =               -1490.7584254588368822
    Two-Electron Energy =                 597.6976993784187471
    Total Energy =                       -451.6598305549532597
  Basis Set: (AUG-CC-PVTZ AUX)
    Blend: AUG-CC-PVTZ-RI
    Molecular point group: c1

    Geometry (in Angstrom), charge = 0, multiplicity = 1:

       Center              X                  Y                   Z               Mass
    ------------   -----------------  -----------------  -----------------  -----------------
         O           -1.452640671985     1.812294968641     0.000014409851    15.994914619570
         O            2.858581028015     0.238398268641    -0.000059390149    15.994914619570
         N           -1.139188971985    -0.477393731359     0.000197609851    14.003074004430
         N            0.686293628015     0.949731968641     0.000273509851    14.003074004430
         C           -0.698598971985     0.843293268641    -0.000306390149    12.000000000000
         C           -0.253805971985    -1.537884731359     0.000042609851    12.000000000000
         C           -2.577827971985    -0.733076731359    -0.000072390149    12.000000000000
         C            1.089493028015    -1.380176731359     0.000074609851    12.000000000000
         C            1.660779028015    -0.042050731359    -0.000218390149    12.000000000000
         H           -0.725899971985    -2.516105731359     0.000177609851     1.007825032230
         H           -2.860971971985    -1.294086731359     0.893633609851     1.007825032230
         H           -2.860358971985    -1.295166731359    -0.893342390149     1.007825032230
         H           -3.078320971985     0.232399268641    -0.000817390149     1.007825032230
         H            1.024673028015     1.921388268641     0.000317609851     1.007825032230
         H            1.767132028015    -2.224031731359    -0.000086390149     1.007825032230

  Basis Set: AUG-CC-PVTZ
    Blend: AUG-CC-PVTZ
  Basis Set: (AUG-CC-PVTZ AUX)
    Blend: AUG-CC-PVTZ-JKFIT
	 Reference Energy          =    -451.6598305549532597 [Eh]
	 Singles Energy            =      -0.0000000000000000 [Eh]
	 Same-Spin Energy          =      -0.4582697613187880 [Eh]
	 Opposite-Spin Energy      =      -1.3850648914785246 [Eh]
	 Correlation Energy        =      -1.8433346527973127 [Eh]
	 Total Energy              =    -453.5031652077505555 [Eh]

	 ================> DF-SCS-MP2 Energies <==================
	-----------------------------------------------------------
	 SCS Same-Spin Scale       =       0.3333333333333333 [-]
	 SCS Opposite-Spin Scale   =       1.2000000000000000 [-]
	 SCS Same-Spin Energy      =      -0.1527565871062627 [Eh]
	 SCS Opposite-Spin Energy  =      -1.6620778697742296 [Eh]
	 SCS Correlation Energy    =      -1.8148344568804922 [Eh]
	 SCS Total Energy          =    -453.4746650118337357 [Eh]
	-----------------------------------------------------------

  Dipole Moment: [D]
     X:    -3.2476      Y:    -3.4897      Z:    -0.0008     Total:     4.7671

*** Psi4 exiting successfully. Buy a developer a beer!
