                               Psi4 1.4a3.dev225

  ==> Input File <==

--------------------------------------------------------------------------
#psi4
#
memory 32 gb

molecule  {
0 1
  O       -1.4350980    -1.8086910     0.0000000
  O        2.9075840    -0.3082450     0.0000000
  N       -1.0785060     0.4619330     0.0000000
  N        0.7249750    -1.0056720    -0.0000010
  C       -0.6517050    -0.8641080     0.0000000
  C       -0.1841290     1.5083600     0.0000000
  C       -2.5245930     0.6731660     0.0000000
  C        1.1582900     1.3329580     0.0000000
  C        1.7164880    -0.0081480     0.0000000
  H       -0.6338540     2.4967290    -0.0000010
  H       -2.9690000     0.2175100    -0.8862740
  H       -2.7140630     1.7465080     0.0000000
  H       -2.9689990     0.2175090     0.8862740
  H        1.0520215    -1.9476823    -0.0000000
  H        1.8360540     2.1766110     0.0000000
units angstrom
no_reorient  #important for SAPT in psi4, default
symmetry c1  #important for SAPT in psi4, default
}

set PROPERTIES_ORIGIN ["COM"]
properties('MP2/aug-cc-pvtz', properties = ['dipole'])
--------------------------------------------------------------------------

    Molecular point group: c1
  Charge       = 0
  Multiplicity = 1
  Basis Set: AUG-CC-PVTZ
    Blend: AUG-CC-PVTZ
  Basis Set: (AUG-CC-PVTZ AUX)
    Blend: AUG-CC-PVTZ-JKFIT

    Orbital Energies [Eh]
    ---------------------

    Doubly Occupied:

       1A    -20.546184     2A    -20.538768     3A    -15.645042
       4A    -15.625138     5A    -11.416463     6A    -11.379923
       7A    -11.338412     8A    -11.292790     9A    -11.253605
      10A     -1.429590    11A     -1.389151    12A     -1.312328
      13A     -1.248448    14A     -1.091543    15A     -0.989375
      16A     -0.932739    17A     -0.872519    18A     -0.775128
      19A     -0.753316    20A     -0.702188    21A     -0.686272
      22A     -0.658862    23A     -0.643810    24A     -0.610926
      25A     -0.608262    26A     -0.603246    27A     -0.578912
      28A     -0.550843    29A     -0.503383    30A     -0.480303
      31A     -0.446307    32A     -0.433412    33A     -0.358693

  @DF-RHF Final Energy:  -451.66181472759456

   => Energetics <=

    Nuclear Repulsion Energy =            441.7214225012357929
    One-Electron Energy =               -1491.3747045443992647
    Two-Electron Energy =                 597.9914673155689115
    Total Energy =                       -451.6618147275945603
  Basis Set: (AUG-CC-PVTZ AUX)
    Blend: AUG-CC-PVTZ-RI
    Molecular point group: c1

    Geometry (in Angstrom), charge = 0, multiplicity = 1:

       Center              X                  Y                   Z               Mass
    ------------   -----------------  -----------------  -----------------  -----------------
         O           -1.485287847324    -1.770434918912     0.000000119094    15.994914619570
         O            2.857394152676    -0.269988918912     0.000000119094    15.994914619570
         N           -1.128695847324     0.500189081088     0.000000119094    14.003074004430
         N            0.674785152676    -0.967415918912    -0.000000880906    14.003074004430
         C           -0.701894847324    -0.825851918912     0.000000119094    12.000000000000
         C           -0.234318847324     1.546616081088     0.000000119094    12.000000000000
         C           -2.574782847324     0.711422081088     0.000000119094    12.000000000000
         C            1.108100152676     1.371214081088     0.000000119094    12.000000000000
         C            1.666298152676     0.030108081088     0.000000119094    12.000000000000
         H           -0.684043847324     2.534985081088    -0.000000880906     1.007825032230
         H           -3.019189847324     0.255766081088    -0.886273880906     1.007825032230
         H           -2.764252847324     1.784764081088     0.000000119094     1.007825032230
         H           -3.019188847324     0.255765081088     0.886274119094     1.007825032230
         H            1.001831652676    -1.909426218912     0.000000119094     1.007825032230
         H            1.785864152676     2.214867081088     0.000000119094     1.007825032230

  Basis Set: AUG-CC-PVTZ
    Blend: AUG-CC-PVTZ
  Basis Set: (AUG-CC-PVTZ AUX)
    Blend: AUG-CC-PVTZ-JKFIT
	 Reference Energy          =    -451.6618147275945603 [Eh]
	 Singles Energy            =      -0.0000000000000000 [Eh]
	 Same-Spin Energy          =      -0.4578524830406848 [Eh]
	 Opposite-Spin Energy      =      -1.3842991655460224 [Eh]
	 Correlation Energy        =      -1.8421516485867073 [Eh]
	 Total Energy              =    -453.5039663761812676 [Eh]

	 ================> DF-SCS-MP2 Energies <==================
	-----------------------------------------------------------
	 SCS Same-Spin Scale       =       0.3333333333333333 [-]
	 SCS Opposite-Spin Scale   =       1.2000000000000000 [-]
	 SCS Same-Spin Energy      =      -0.1526174943468949 [Eh]
	 SCS Opposite-Spin Energy  =      -1.6611589986552269 [Eh]
	 SCS Correlation Energy    =      -1.8137764930021218 [Eh]
	 SCS Total Energy          =    -453.4755912205966979 [Eh]
	-----------------------------------------------------------

  Dipole Moment: [D]
     X:    -3.2285      Y:     3.5736      Z:     0.0000     Total:     4.8159

*** Psi4 exiting successfully. Buy a developer a beer!
