                               Psi4 1.3.2 release

  ==> Input File <==

--------------------------------------------------------------------------
#psi4
#
memory 32 gb

molecule  {
0 1
  O       -1.3945310     1.8555980     0.0000210
  O        2.9082060     0.2751580    -0.0000600
  N       -1.0895640    -0.4406340     0.0001970
  N        0.7349370     0.9985730     0.0002800
  C       -0.6489740     0.8800530    -0.0003070
  C       -0.2041810    -1.5011250     0.0000420
  C       -2.5282030    -0.6963170    -0.0000730
  C        1.1391180    -1.3434170     0.0000740
  C        1.6633561     0.0138314    -0.0002048
  H       -0.6762750    -2.4793460     0.0001770
  H       -2.8113470    -1.2573270     0.8936330
  H       -2.8107340    -1.2584070    -0.8933430
  H       -3.0286960     0.2691590    -0.0008180
  H        1.0742980     1.9581480     0.0003170
  H        1.7868941    -2.2104072    -0.0000753
units angstrom
no_reorient  #important for SAPT in psi4, default
symmetry c1  #important for SAPT in psi4, default
}

set PROPERTIES_ORIGIN ["COM"]
properties('MP2/aug-cc-pvtz', properties = ['dipole'])
--------------------------------------------------------------------------

    Molecular point group: c1
  Charge       = 0
  Multiplicity = 1
  Basis Set: AUG-CC-PVTZ
    Blend: AUG-CC-PVTZ
  Basis Set: (AUG-CC-PVTZ AUX)
    Blend: AUG-CC-PVTZ-JKFIT

    Orbital Energies [Eh]
    ---------------------

    Doubly Occupied:

       1A    -20.550695     2A    -20.528430     3A    -15.647504
       4A    -15.635451     5A    -11.423654     6A    -11.379166
       7A    -11.336422     8A    -11.292149     9A    -11.257928
      10A     -1.433769    11A     -1.367476    12A     -1.313770
      13A     -1.254437    14A     -1.093213    15A     -0.993556
      16A     -0.932531    17A     -0.884378    18A     -0.778810
      19A     -0.754302    20A     -0.701565    21A     -0.689589
      22A     -0.660937    23A     -0.639711    24A     -0.618910
      25A     -0.614011    26A     -0.589469    27A     -0.574623
      28A     -0.548722    29A     -0.502099    30A     -0.481312
      31A     -0.440457    32A     -0.430658    33A     -0.360472

  @DF-RHF Final Energy:  -451.65400103742076

   => Energetics <=

    Nuclear Repulsion Energy =            441.5660233119733107
    One-Electron Energy =               -1491.0196937898472243
    Two-Electron Energy =                 597.7996694404531581
    Total Energy =                       -451.6540010374206986
  Basis Set: (AUG-CC-PVTZ AUX)
    Blend: AUG-CC-PVTZ-RI
    Molecular point group: c1

    Geometry (in Angstrom), charge = 0, multiplicity = 1:

       Center              X                  Y                   Z               Mass
    ------------   -----------------  -----------------  -----------------  -----------------
         O           -1.440405624757     1.815030142006     0.000018461902    15.994914619570
         O            2.862331375243     0.234590142006    -0.000062538098    15.994914619570
         N           -1.135438624757    -0.481201857994     0.000194461902    14.003074004430
         N            0.689062375243     0.958005142006     0.000277461902    14.003074004430
         C           -0.694848624757     0.839485142006    -0.000309538098    12.000000000000
         C           -0.250055624757    -1.541692857994     0.000039461902    12.000000000000
         C           -2.574077624757    -0.736884857994    -0.000075538098    12.000000000000
         C            1.093243375243    -1.383984857994     0.000071461902    12.000000000000
         C            1.617481475243    -0.026736457994    -0.000207338098    12.000000000000
         H           -0.722149624757    -2.519913857994     0.000174461902     1.007825032230
         H           -2.857221624757    -1.297894857994     0.893630461902     1.007825032230
         H           -2.856608624757    -1.298974857994    -0.893345538098     1.007825032230
         H           -3.074570624757     0.228591142006    -0.000820538098     1.007825032230
         H            1.028423375243     1.917580142006     0.000314461902     1.007825032230
         H            1.741019475243    -2.250975057994    -0.000077838098     1.007825032230

  Basis Set: AUG-CC-PVTZ
    Blend: AUG-CC-PVTZ
  Basis Set: (AUG-CC-PVTZ AUX)
    Blend: AUG-CC-PVTZ-JKFIT
	 Reference Energy          =    -451.6540010374207554 [Eh]
	 Singles Energy            =      -0.0000000000000000 [Eh]
	 Same-Spin Energy          =      -0.4588971749855075 [Eh]
	 Opposite-Spin Energy      =      -1.3862990721606101 [Eh]
	 Correlation Energy        =      -1.8451962471461176 [Eh]
	 Total Energy              =    -453.4991972845668897 [Eh]

	 ================> DF-SCS-MP2 Energies <==================
	-----------------------------------------------------------
	 SCS Same-Spin Scale       =       0.3333333333333333 [-]
	 SCS Opposite-Spin Scale   =       1.2000000000000000 [-]
	 SCS Same-Spin Energy      =      -0.1529657249951692 [Eh]
	 SCS Opposite-Spin Energy  =      -1.6635588865927320 [Eh]
	 SCS Correlation Energy    =      -1.8165246115879012 [Eh]
	 SCS Total Energy          =    -453.4705256490086640 [Eh]
	-----------------------------------------------------------

  Dipole Moment: [D]
     X:    -3.6599      Y:    -3.4521      Z:    -0.0008     Total:     5.0311

*** Psi4 exiting successfully. Buy a developer a beer!
