                               Psi4 1.4a3.dev225

  ==> Input File <==

--------------------------------------------------------------------------
#psi4
#
memory 32 gb

molecule  {
0 1
  O       -1.4350980    -1.8086910     0.0000000
  O        2.9075840    -0.3082450     0.0000000
  N       -1.0785060     0.4619330     0.0000000
  N        0.7249750    -1.0056720    -0.0000010
  C       -0.6517050    -0.8641080     0.0000000
  C       -0.1841290     1.5083600     0.0000000
  C       -2.5245930     0.6731660     0.0000000
  C        1.1582900     1.3329580     0.0000000
  C        1.7164880    -0.0081480     0.0000000
  H       -0.6338540     2.4967290    -0.0000010
  H       -2.9690000     0.2175100    -0.8862740
  H       -2.7140630     1.7465080     0.0000000
  H       -2.9689990     0.2175090     0.8862740
  H        1.0585810    -1.9665760     0.0000000
  H        1.8047393     2.1376317     0.0000000
units angstrom
no_reorient  #important for SAPT in psi4, default
symmetry c1  #important for SAPT in psi4, default
}

set PROPERTIES_ORIGIN ["COM"]
properties('MP2/aug-cc-pvtz', properties = ['dipole'])
--------------------------------------------------------------------------

    Molecular point group: c1
  Charge       = 0
  Multiplicity = 1
  Basis Set: AUG-CC-PVTZ
    Blend: AUG-CC-PVTZ
  Basis Set: (AUG-CC-PVTZ AUX)
    Blend: AUG-CC-PVTZ-JKFIT

    Orbital Energies [Eh]
    ---------------------

    Doubly Occupied:

       1A    -20.545880     2A    -20.538532     3A    -15.644880
       4A    -15.626427     5A    -11.416193     6A    -11.379430
       7A    -11.338205     8A    -11.292662     9A    -11.248102
      10A     -1.429032    11A     -1.388836    12A     -1.312073
      13A     -1.246121    14A     -1.092901    15A     -0.989327
      16A     -0.932015    17A     -0.873574    18A     -0.774154
      19A     -0.754382    20A     -0.701158    21A     -0.686007
      22A     -0.659957    23A     -0.644224    24A     -0.613641
      25A     -0.610585    26A     -0.602466    27A     -0.581007
      28A     -0.550616    29A     -0.503145    30A     -0.480103
      31A     -0.446001    32A     -0.432855    33A     -0.358606

  @DF-RHF Final Energy:  -451.66052192604388

   => Energetics <=

    Nuclear Repulsion Energy =            441.8670604556718331
    One-Electron Energy =               -1491.6689720440740530
    Two-Electron Energy =                 598.1413896623582787
    Total Energy =                       -451.6605219260438844
  Basis Set: (AUG-CC-PVTZ AUX)
    Blend: AUG-CC-PVTZ-RI
    Molecular point group: c1

    Geometry (in Angstrom), charge = 0, multiplicity = 1:

       Center              X                  Y                   Z               Mass
    ------------   -----------------  -----------------  -----------------  -----------------
         O           -1.485089907537    -1.769972172931     0.000000119094    15.994914619570
         O            2.857592092463    -0.269526172931     0.000000119094    15.994914619570
         N           -1.128497907537     0.500651827069     0.000000119094    14.003074004430
         N            0.674983092463    -0.966953172931    -0.000000880906    14.003074004430
         C           -0.701696907537    -0.825389172931     0.000000119094    12.000000000000
         C           -0.234120907537     1.547078827069     0.000000119094    12.000000000000
         C           -2.574584907537     0.711884827069     0.000000119094    12.000000000000
         C            1.108298092463     1.371676827069     0.000000119094    12.000000000000
         C            1.666496092463     0.030570827069     0.000000119094    12.000000000000
         H           -0.683845907537     2.535447827069    -0.000000880906     1.007825032230
         H           -3.018991907537     0.256228827069    -0.886273880906     1.007825032230
         H           -2.764054907537     1.785226827069     0.000000119094     1.007825032230
         H           -3.018990907537     0.256227827069     0.886274119094     1.007825032230
         H            1.008589092463    -1.927857172931     0.000000119094     1.007825032230
         H            1.754747392463     2.176350527069     0.000000119094     1.007825032230

  Basis Set: AUG-CC-PVTZ
    Blend: AUG-CC-PVTZ
  Basis Set: (AUG-CC-PVTZ AUX)
    Blend: AUG-CC-PVTZ-JKFIT
	 Reference Energy          =    -451.6605219260438844 [Eh]
	 Singles Energy            =      -0.0000000000000000 [Eh]
	 Same-Spin Energy          =      -0.4579319030067098 [Eh]
	 Opposite-Spin Energy      =      -1.3843759920773420 [Eh]
	 Correlation Energy        =      -1.8423078950840517 [Eh]
	 Total Energy              =    -453.5028298211279321 [Eh]

	 ================> DF-SCS-MP2 Energies <==================
	-----------------------------------------------------------
	 SCS Same-Spin Scale       =       0.3333333333333333 [-]
	 SCS Opposite-Spin Scale   =       1.2000000000000000 [-]
	 SCS Same-Spin Energy      =      -0.1526439676689033 [Eh]
	 SCS Opposite-Spin Energy  =      -1.6612511904928102 [Eh]
	 SCS Correlation Energy    =      -1.8138951581617135 [Eh]
	 SCS Total Energy          =    -453.4744170842055837 [Eh]
	-----------------------------------------------------------

  Dipole Moment: [D]
     X:    -3.2305      Y:     3.5464      Z:     0.0000     Total:     4.7972

*** Psi4 exiting successfully. Buy a developer a beer!
