                               Psi4 1.3.2 release

  ==> Input File <==

--------------------------------------------------------------------------
#psi4
#
memory 32 gb

molecule  {
0 1
  O       -1.3945310     1.8555980     0.0000210
  O        2.9082060     0.2751580    -0.0000600
  N       -1.0895640    -0.4406340     0.0001970
  N        0.7705656     1.0320048     0.0002617
  C       -0.6489740     0.8800530    -0.0003070
  C       -0.2041810    -1.5011250     0.0000420
  C       -2.5282030    -0.6963170    -0.0000730
  C        1.1861659    -1.3625394     0.0000499
  C        1.7104040    -0.0052910    -0.0002190
  H       -0.6762750    -2.4793460     0.0001770
  H       -2.8113470    -1.2573270     0.8936330
  H       -2.8107340    -1.2584070    -0.8933430
  H       -3.0286960     0.2691590    -0.0008180
  H        1.0742980     1.9581480     0.0003170
  H        1.8167570    -2.1872720    -0.0000870
units angstrom
no_reorient  #important for SAPT in psi4, default
symmetry c1  #important for SAPT in psi4, default
}

set PROPERTIES_ORIGIN ["COM"]
properties('MP2/aug-cc-pvtz', properties = ['dipole'])
--------------------------------------------------------------------------

    Molecular point group: c1
  Charge       = 0
  Multiplicity = 1
  Basis Set: AUG-CC-PVTZ
    Blend: AUG-CC-PVTZ
  Basis Set: (AUG-CC-PVTZ AUX)
    Blend: AUG-CC-PVTZ-JKFIT

    Orbital Energies [Eh]
    ---------------------

    Doubly Occupied:

       1A    -20.550121     2A    -20.530845     3A    -15.650590
       4A    -15.623202     5A    -11.423275     6A    -11.375311
       7A    -11.345187     8A    -11.293228     9A    -11.258645
      10A     -1.427744    11A     -1.385119    12A     -1.312899
      13A     -1.241281    14A     -1.083933    15A     -0.990775
      16A     -0.935070    17A     -0.862561    18A     -0.776407
      19A     -0.756030    20A     -0.701320    21A     -0.684684
      22A     -0.661147    23A     -0.643415    24A     -0.623526
      25A     -0.613089    26A     -0.596248    27A     -0.579487
      28A     -0.553654    29A     -0.497985    30A     -0.480894
      31A     -0.440640    32A     -0.430458    33A     -0.355811

  @DF-RHF Final Energy:  -451.65284295668704

   => Energetics <=

    Nuclear Repulsion Energy =            439.5123982437660288
    One-Electron Energy =               -1486.9613233753352688
    Two-Electron Energy =                 595.7960821748822582
    Total Energy =                       -451.6528429566869818
  Basis Set: (AUG-CC-PVTZ AUX)
    Blend: AUG-CC-PVTZ-RI
    Molecular point group: c1

    Geometry (in Angstrom), charge = 0, multiplicity = 1:

       Center              X                  Y                   Z               Mass
    ------------   -----------------  -----------------  -----------------  -----------------
         O           -1.453561111815     1.814772082281     0.000024234917    15.994914619570
         O            2.849175888185     0.234332082281    -0.000056765083    15.994914619570
         N           -1.148594111815    -0.481459917719     0.000200234917    14.003074004430
         N            0.711535488185     0.991178882281     0.000264934917    14.003074004430
         C           -0.708004111815     0.839227082281    -0.000303765083    12.000000000000
         C           -0.263211111815    -1.541950917719     0.000045234917    12.000000000000
         C           -2.587233111815    -0.737142917719    -0.000069765083    12.000000000000
         C            1.127135788185    -1.403365317719     0.000053134917    12.000000000000
         C            1.651373888185    -0.046116917719    -0.000215765083    12.000000000000
         H           -0.735305111815    -2.520171917719     0.000180234917     1.007825032230
         H           -2.870377111815    -1.298152917719     0.893636234917     1.007825032230
         H           -2.869764111815    -1.299232917719    -0.893339765083     1.007825032230
         H           -3.087726111815     0.228333082281    -0.000814765083     1.007825032230
         H            1.015267888185     1.917322082281     0.000320234917     1.007825032230
         H            1.757726888185    -2.228097917719    -0.000083765083     1.007825032230

  Basis Set: AUG-CC-PVTZ
    Blend: AUG-CC-PVTZ
  Basis Set: (AUG-CC-PVTZ AUX)
    Blend: AUG-CC-PVTZ-JKFIT
	 Reference Energy          =    -451.6528429566870386 [Eh]
	 Singles Energy            =      -0.0000000000000000 [Eh]
	 Same-Spin Energy          =      -0.4576963830483646 [Eh]
	 Opposite-Spin Energy      =      -1.3850903097652068 [Eh]
	 Correlation Energy        =      -1.8427866928135712 [Eh]
	 Total Energy              =    -453.4956296495005859 [Eh]

	 ================> DF-SCS-MP2 Energies <==================
	-----------------------------------------------------------
	 SCS Same-Spin Scale       =       0.3333333333333333 [-]
	 SCS Opposite-Spin Scale   =       1.2000000000000000 [-]
	 SCS Same-Spin Energy      =      -0.1525654610161215 [Eh]
	 SCS Opposite-Spin Energy  =      -1.6621083717182481 [Eh]
	 SCS Correlation Energy    =      -1.8146738327343697 [Eh]
	 SCS Total Energy          =    -453.4675167894213814 [Eh]
	-----------------------------------------------------------

  Dipole Moment: [D]
     X:    -3.4935      Y:    -3.5526      Z:    -0.0008     Total:     4.9825

*** Psi4 exiting successfully. Buy a developer a beer!
