                               Psi4 1.4a3.dev225

  ==> Input File <==

--------------------------------------------------------------------------
#psi4
#
memory 32 gb

molecule  {
0 1
  O       -1.4350980    -1.8086910     0.0000000
  O        2.9075840    -0.3082450     0.0000000
  N       -1.0785060     0.4619330     0.0000000
  N        0.7249750    -1.0056720    -0.0000010
  C       -0.6517050    -0.8641080     0.0000000
  C       -0.1971234     1.4931565     0.0000000
  C       -2.5245930     0.6731660     0.0000000
  C        1.1582900     1.3329580     0.0000000
  C        1.7164880    -0.0081480     0.0000000
  H       -0.6338540     2.4967290    -0.0000010
  H       -2.9690000     0.2175100    -0.8862740
  H       -2.7140630     1.7465080     0.0000000
  H       -2.9689990     0.2175090     0.8862740
  H        1.0585810    -1.9665760     0.0000000
  H        1.8360540     2.1766110     0.0000000
units angstrom
no_reorient  #important for SAPT in psi4, default
symmetry c1  #important for SAPT in psi4, default
}

set PROPERTIES_ORIGIN ["COM"]
properties('MP2/aug-cc-pvtz', properties = ['dipole'])
--------------------------------------------------------------------------

    Molecular point group: c1
  Charge       = 0
  Multiplicity = 1
  Basis Set: AUG-CC-PVTZ
    Blend: AUG-CC-PVTZ
  Basis Set: (AUG-CC-PVTZ AUX)
    Blend: AUG-CC-PVTZ-JKFIT

    Orbital Energies [Eh]
    ---------------------

    Doubly Occupied:

       1A    -20.547286     2A    -20.536497     3A    -15.647386
       4A    -15.626819     5A    -11.417599     6A    -11.377930
       7A    -11.339177     8A    -11.294320     9A    -11.252338
      10A     -1.430918    11A     -1.387573    12A     -1.317744
      13A     -1.247356    14A     -1.088208    15A     -0.991345
      16A     -0.933555    17A     -0.872421    18A     -0.773672
      19A     -0.751852    20A     -0.700076    21A     -0.688717
      22A     -0.659034    23A     -0.642889    24A     -0.611190
      25A     -0.608933    26A     -0.599380    27A     -0.580933
      28A     -0.550557    29A     -0.506177    30A     -0.480732
      31A     -0.444658    32A     -0.432851    33A     -0.355593

  @DF-RHF Final Energy:  -451.66076822211596

   => Energetics <=

    Nuclear Repulsion Energy =            441.8712749347330941
    One-Electron Energy =               -1491.6726534715044181
    Two-Electron Energy =                 598.1406103146554187
    Total Energy =                       -451.6607682221159621
  Basis Set: (AUG-CC-PVTZ AUX)
    Blend: AUG-CC-PVTZ-RI
    Molecular point group: c1

    Geometry (in Angstrom), charge = 0, multiplicity = 1:

       Center              X                  Y                   Z               Mass
    ------------   -----------------  -----------------  -----------------  -----------------
         O           -1.484103155928    -1.768836387778     0.000000119094    15.994914619570
         O            2.858578844072    -0.268390387778     0.000000119094    15.994914619570
         N           -1.127511155928     0.501787612222     0.000000119094    14.003074004430
         N            0.675969844072    -0.965817387778    -0.000000880906    14.003074004430
         C           -0.700710155928    -0.824253387778     0.000000119094    12.000000000000
         C           -0.246128555928     1.533011112222     0.000000119094    12.000000000000
         C           -2.573598155928     0.713020612222     0.000000119094    12.000000000000
         C            1.109284844072     1.372812612222     0.000000119094    12.000000000000
         C            1.667482844072     0.031706612222     0.000000119094    12.000000000000
         H           -0.682859155928     2.536583612222    -0.000000880906     1.007825032230
         H           -3.018005155928     0.257364612222    -0.886273880906     1.007825032230
         H           -2.763068155928     1.786362612222     0.000000119094     1.007825032230
         H           -3.018004155928     0.257363612222     0.886274119094     1.007825032230
         H            1.009575844072    -1.926721387778     0.000000119094     1.007825032230
         H            1.787048844072     2.216465612222     0.000000119094     1.007825032230

  Basis Set: AUG-CC-PVTZ
    Blend: AUG-CC-PVTZ
  Basis Set: (AUG-CC-PVTZ AUX)
    Blend: AUG-CC-PVTZ-JKFIT
	 Reference Energy          =    -451.6607682221159621 [Eh]
	 Singles Energy            =      -0.0000000000000000 [Eh]
	 Same-Spin Energy          =      -0.4582668069628805 [Eh]
	 Opposite-Spin Energy      =      -1.3847248411782238 [Eh]
	 Correlation Energy        =      -1.8429916481411044 [Eh]
	 Total Energy              =    -453.5037598702570563 [Eh]

	 ================> DF-SCS-MP2 Energies <==================
	-----------------------------------------------------------
	 SCS Same-Spin Scale       =       0.3333333333333333 [-]
	 SCS Opposite-Spin Scale   =       1.2000000000000000 [-]
	 SCS Same-Spin Energy      =      -0.1527556023209601 [Eh]
	 SCS Opposite-Spin Energy  =      -1.6616698094138684 [Eh]
	 SCS Correlation Energy    =      -1.8144254117348286 [Eh]
	 SCS Total Energy          =    -453.4751936338507790 [Eh]
	-----------------------------------------------------------

  Dipole Moment: [D]
     X:    -3.3389      Y:     3.5051      Z:     0.0000     Total:     4.8409

*** Psi4 exiting successfully. Buy a developer a beer!
