                               Psi4 1.3.2 release

  ==> Input File <==

--------------------------------------------------------------------------
#psi4
#
memory 32 gb

molecule  {
0 1
  O       -1.3945310     1.8555980     0.0000210
  O        2.9212420     0.2120855    -0.0000380
  N       -1.0895640    -0.4406340     0.0001970
  N        0.7349370     0.9985730     0.0002800
  C       -0.6489740     0.8800530    -0.0003070
  C       -0.2041810    -1.5011250     0.0000420
  C       -2.5282030    -0.6963170    -0.0000730
  C        1.2099330    -1.3714819     0.0000971
  C        1.7104040    -0.0052910    -0.0002190
  H       -0.6762750    -2.4793460     0.0001770
  H       -2.8113470    -1.2573270     0.8936330
  H       -2.8107340    -1.2584070    -0.8933430
  H       -3.0286960     0.2691590    -0.0008180
  H        1.0742980     1.9581480     0.0003170
  H        1.8167570    -2.1872720    -0.0000870
units angstrom
no_reorient  #important for SAPT in psi4, default
symmetry c1  #important for SAPT in psi4, default
}

set PROPERTIES_ORIGIN ["COM"]
properties('MP2/aug-cc-pvtz', properties = ['dipole'])
--------------------------------------------------------------------------

    Molecular point group: c1
  Charge       = 0
  Multiplicity = 1
  Basis Set: AUG-CC-PVTZ
    Blend: AUG-CC-PVTZ
  Basis Set: (AUG-CC-PVTZ AUX)
    Blend: AUG-CC-PVTZ-JKFIT

    Orbital Energies [Eh]
    ---------------------

    Doubly Occupied:

       1A    -20.548729     2A    -20.533657     3A    -15.649637
       4A    -15.630835     5A    -11.421910     6A    -11.377128
       7A    -11.345331     8A    -11.292195     9A    -11.255651
      10A     -1.430361    11A     -1.385462    12A     -1.313253
      13A     -1.248739    14A     -1.077954    15A     -0.991989
      16A     -0.931814    17A     -0.873370    18A     -0.773502
      19A     -0.752802    20A     -0.695419    21A     -0.686355
      22A     -0.662601    23A     -0.643473    24A     -0.625549
      25A     -0.616014    26A     -0.593553    27A     -0.578527
      28A     -0.553963    29A     -0.495785    30A     -0.480235
      31A     -0.442015    32A     -0.435364    33A     -0.350685

  @DF-RHF Final Energy:  -451.64855783475900

   => Energetics <=

    Nuclear Repulsion Energy =            439.8745509320714291
    One-Electron Energy =               -1487.6585052842910954
    Two-Electron Energy =                 596.1353965174605491
    Total Energy =                       -451.6485578347590035
  Basis Set: (AUG-CC-PVTZ AUX)
    Blend: AUG-CC-PVTZ-RI
    Molecular point group: c1

    Geometry (in Angstrom), charge = 0, multiplicity = 1:

       Center              X                  Y                   Z               Mass
    ------------   -----------------  -----------------  -----------------  -----------------
         O           -1.453519895575     1.827341587401     0.000014916311    15.994914619570
         O            2.862253104425     0.183829087401    -0.000044083689    15.994914619570
         N           -1.148552895575    -0.468890412599     0.000190916311    14.003074004430
         N            0.675948104425     0.970316587401     0.000273916311    14.003074004430
         C           -0.707962895575     0.851796587401    -0.000313083689    12.000000000000
         C           -0.263169895575    -1.529381412599     0.000035916311    12.000000000000
         C           -2.587191895575    -0.724573412599    -0.000079083689    12.000000000000
         C            1.150944104425    -1.399738312599     0.000091016311    12.000000000000
         C            1.651415104425    -0.033547412599    -0.000225083689    12.000000000000
         H           -0.735263895575    -2.507602412599     0.000170916311     1.007825032230
         H           -2.870335895575    -1.285583412599     0.893626916311     1.007825032230
         H           -2.869722895575    -1.286663412599    -0.893349083689     1.007825032230
         H           -3.087684895575     0.240902587401    -0.000824083689     1.007825032230
         H            1.015309104425     1.929891587401     0.000310916311     1.007825032230
         H            1.757768104425    -2.215528412599    -0.000093083689     1.007825032230

  Basis Set: AUG-CC-PVTZ
    Blend: AUG-CC-PVTZ
  Basis Set: (AUG-CC-PVTZ AUX)
    Blend: AUG-CC-PVTZ-JKFIT
	 Reference Energy          =    -451.6485578347590035 [Eh]
	 Singles Energy            =      -0.0000000000000000 [Eh]
	 Same-Spin Energy          =      -0.4585431382790493 [Eh]
	 Opposite-Spin Energy      =      -1.3862442061735687 [Eh]
	 Correlation Energy        =      -1.8447873444526179 [Eh]
	 Total Energy              =    -453.4933451792116443 [Eh]

	 ================> DF-SCS-MP2 Energies <==================
	-----------------------------------------------------------
	 SCS Same-Spin Scale       =       0.3333333333333333 [-]
	 SCS Opposite-Spin Scale   =       1.2000000000000000 [-]
	 SCS Same-Spin Energy      =      -0.1528477127596831 [Eh]
	 SCS Opposite-Spin Energy  =      -1.6634930474082823 [Eh]
	 SCS Correlation Energy    =      -1.8163407601679653 [Eh]
	 SCS Total Energy          =    -453.4648985949269786 [Eh]
	-----------------------------------------------------------

  Dipole Moment: [D]
     X:    -3.3650      Y:    -3.3560      Z:    -0.0009     Total:     4.7525

*** Psi4 exiting successfully. Buy a developer a beer!
