                               Psi4 1.3.2 release

  ==> Input File <==

--------------------------------------------------------------------------
#psi4
#
memory 32 gb

molecule  {
0 1
  O       -1.3945310     1.8555980     0.0000210
  O        2.9082060     0.2751580    -0.0000600
  N       -1.1260352    -0.4721794     0.0002059
  N        0.7349370     0.9985730     0.0002800
  C       -0.6489740     0.8800530    -0.0003070
  C       -0.2041810    -1.5011250     0.0000420
  C       -2.5282030    -0.6963170    -0.0000730
  C        1.1391180    -1.3434170     0.0000740
  C        1.7104040    -0.0052910    -0.0002190
  H       -0.7101268    -2.4622743     0.0001837
  H       -2.8113470    -1.2573270     0.8936330
  H       -2.8107340    -1.2584070    -0.8933430
  H       -3.0286960     0.2691590    -0.0008180
  H        1.0742980     1.9581480     0.0003170
  H        1.8167570    -2.1872720    -0.0000870
units angstrom
no_reorient  #important for SAPT in psi4, default
symmetry c1  #important for SAPT in psi4, default
}

set PROPERTIES_ORIGIN ["COM"]
properties('MP2/aug-cc-pvtz', properties = ['dipole'])
--------------------------------------------------------------------------

    Molecular point group: c1
  Charge       = 0
  Multiplicity = 1
  Basis Set: AUG-CC-PVTZ
    Blend: AUG-CC-PVTZ
  Basis Set: (AUG-CC-PVTZ AUX)
    Blend: AUG-CC-PVTZ-JKFIT

    Orbital Energies [Eh]
    ---------------------

    Doubly Occupied:

       1A    -20.550535     2A    -20.539786     3A    -15.643791
       4A    -15.629905     5A    -11.423580     6A    -11.380814
       7A    -11.337272     8A    -11.285745     9A    -11.255691
      10A     -1.428185    11A     -1.389290    12A     -1.312645
      13A     -1.249867    14A     -1.091766    15A     -0.987996
      16A     -0.926857    17A     -0.873605    18A     -0.770020
      19A     -0.753867    20A     -0.698475    21A     -0.685343
      22A     -0.663165    23A     -0.646202    24A     -0.617111
      25A     -0.611561    26A     -0.607651    27A     -0.566890
      28A     -0.553958    29A     -0.497539    30A     -0.481052
      31A     -0.447613    32A     -0.434871    33A     -0.358729

  @DF-RHF Final Energy:  -451.65618869771578

   => Energetics <=

    Nuclear Repulsion Energy =            440.6337048450702127
    One-Electron Energy =               -1489.1770339622351003
    Two-Electron Energy =                 596.8871404194489969
    Total Energy =                       -451.6561886977158338
  Basis Set: (AUG-CC-PVTZ AUX)
    Blend: AUG-CC-PVTZ-RI
    Molecular point group: c1

    Geometry (in Angstrom), charge = 0, multiplicity = 1:

       Center              X                  Y                   Z               Mass
    ------------   -----------------  -----------------  -----------------  -----------------
         O           -1.440801091406     1.820033832917     0.000018865032    15.994914619570
         O            2.861935908594     0.239593832917    -0.000062134968    15.994914619570
         N           -1.172305291406    -0.507743567083     0.000203765032    14.003074004430
         N            0.688666908594     0.963008832917     0.000277865032    14.003074004430
         C           -0.695244091406     0.844488832917    -0.000309134968    12.000000000000
         C           -0.250451091406    -1.536689167083     0.000039865032    12.000000000000
         C           -2.574473091406    -0.731881167083    -0.000075134968    12.000000000000
         C            1.092847908594    -1.378981167083     0.000071865032    12.000000000000
         C            1.664133908594    -0.040855167083    -0.000221134968    12.000000000000
         H           -0.756396891406    -2.497838467083     0.000181565032     1.007825032230
         H           -2.857617091406    -1.292891167083     0.893630865032     1.007825032230
         H           -2.857004091406    -1.293971167083    -0.893345134968     1.007825032230
         H           -3.074966091406     0.233594832917    -0.000820134968     1.007825032230
         H            1.028027908594     1.922583832917     0.000314865032     1.007825032230
         H            1.770486908594    -2.222836167083    -0.000089134968     1.007825032230

  Basis Set: AUG-CC-PVTZ
    Blend: AUG-CC-PVTZ
  Basis Set: (AUG-CC-PVTZ AUX)
    Blend: AUG-CC-PVTZ-JKFIT
	 Reference Energy          =    -451.6561886977157769 [Eh]
	 Singles Energy            =      -0.0000000000000000 [Eh]
	 Same-Spin Energy          =      -0.4584765036170912 [Eh]
	 Opposite-Spin Energy      =      -1.3855374747138600 [Eh]
	 Correlation Energy        =      -1.8440139783309513 [Eh]
	 Total Energy              =    -453.5002026760467402 [Eh]

	 ================> DF-SCS-MP2 Energies <==================
	-----------------------------------------------------------
	 SCS Same-Spin Scale       =       0.3333333333333333 [-]
	 SCS Opposite-Spin Scale   =       1.2000000000000000 [-]
	 SCS Same-Spin Energy      =      -0.1528255012056970 [Eh]
	 SCS Opposite-Spin Energy  =      -1.6626449696566319 [Eh]
	 SCS Correlation Energy    =      -1.8154704708623290 [Eh]
	 SCS Total Energy          =    -453.4716591685781282 [Eh]
	-----------------------------------------------------------

  Dipole Moment: [D]
     X:    -3.1886      Y:    -3.3166      Z:    -0.0009     Total:     4.6008

*** Psi4 exiting successfully. Buy a developer a beer!
