                               Psi4 1.4a3.dev225

  ==> Input File <==

--------------------------------------------------------------------------
#psi4
#
memory 32 gb

molecule  {
0 1
  O       -1.4350980    -1.8086910     0.0000000
  O        2.9075840    -0.3082450     0.0000000
  N       -1.0785060     0.4619330     0.0000000
  N        0.7249750    -1.0056720    -0.0000010
  C       -0.6517050    -0.8641080     0.0000000
  C       -0.1516431     1.5463687     0.0000000
  C       -2.5245930     0.6731660     0.0000000
  C        1.1582900     1.3329580     0.0000000
  C        1.7164880    -0.0081480     0.0000000
  H       -0.6338540     2.4967290    -0.0000010
  H       -2.9690000     0.2175100    -0.8862740
  H       -2.7140630     1.7465080     0.0000000
  H       -2.9689990     0.2175090     0.8862740
  H        1.0585810    -1.9665760     0.0000000
  H        1.8360540     2.1766110     0.0000000
units angstrom
no_reorient  #important for SAPT in psi4, default
symmetry c1  #important for SAPT in psi4, default
}

set PROPERTIES_ORIGIN ["COM"]
properties('MP2/aug-cc-pvtz', properties = ['dipole'])
--------------------------------------------------------------------------

    Molecular point group: c1
  Charge       = 0
  Multiplicity = 1
  Basis Set: AUG-CC-PVTZ
    Blend: AUG-CC-PVTZ
  Basis Set: (AUG-CC-PVTZ AUX)
    Blend: AUG-CC-PVTZ-JKFIT

    Orbital Energies [Eh]
    ---------------------

    Doubly Occupied:

       1A    -20.543336     2A    -20.542760     3A    -15.638945
       4A    -15.626318     5A    -11.413064     6A    -11.384111
       7A    -11.336240     8A    -11.288861     9A    -11.256236
      10A     -1.425357    11A     -1.391636    12A     -1.299967
      13A     -1.242959    14A     -1.098976    15A     -0.983668
      16A     -0.927656    17A     -0.871043    18A     -0.770900
      19A     -0.750587    20A     -0.705383    21A     -0.680221
      22A     -0.656852    23A     -0.644034    24A     -0.610707
      25A     -0.609529    26A     -0.604147    27A     -0.571631
      28A     -0.550795    29A     -0.496927    30A     -0.478870
      31A     -0.449081    32A     -0.433109    33A     -0.365517

  @DF-RHF Final Energy:  -451.65874183371074

   => Energetics <=

    Nuclear Repulsion Energy =            440.9256267602258390
    One-Electron Energy =               -1489.8698900147321638
    Two-Electron Energy =                 597.2855214207954759
    Total Energy =                       -451.6587418337107920
  Basis Set: (AUG-CC-PVTZ AUX)
    Blend: AUG-CC-PVTZ-RI
    Molecular point group: c1

    Geometry (in Angstrom), charge = 0, multiplicity = 1:

       Center              X                  Y                   Z               Mass
    ------------   -----------------  -----------------  -----------------  -----------------
         O           -1.488433137872    -1.773902490358     0.000000119094    15.994914619570
         O            2.854248862128    -0.273456490358     0.000000119094    15.994914619570
         N           -1.131841137872     0.496721509642     0.000000119094    14.003074004430
         N            0.671639862128    -0.970883490358    -0.000000880906    14.003074004430
         C           -0.705040137872    -0.829319490358     0.000000119094    12.000000000000
         C           -0.204978237872     1.581157209642     0.000000119094    12.000000000000
         C           -2.577928137872     0.707954509642     0.000000119094    12.000000000000
         C            1.104954862128     1.367746509642     0.000000119094    12.000000000000
         C            1.663152862128     0.026640509642     0.000000119094    12.000000000000
         H           -0.687189137872     2.531517509642    -0.000000880906     1.007825032230
         H           -3.022335137872     0.252298509642    -0.886273880906     1.007825032230
         H           -2.767398137872     1.781296509642     0.000000119094     1.007825032230
         H           -3.022334137872     0.252297509642     0.886274119094     1.007825032230
         H            1.005245862128    -1.931787490358     0.000000119094     1.007825032230
         H            1.782718862128     2.211399509642     0.000000119094     1.007825032230

  Basis Set: AUG-CC-PVTZ
    Blend: AUG-CC-PVTZ
  Basis Set: (AUG-CC-PVTZ AUX)
    Blend: AUG-CC-PVTZ-JKFIT
	 Reference Energy          =    -451.6587418337107351 [Eh]
	 Singles Energy            =      -0.0000000000000000 [Eh]
	 Same-Spin Energy          =      -0.4574922354298472 [Eh]
	 Opposite-Spin Energy      =      -1.3845641358317939 [Eh]
	 Correlation Energy        =      -1.8420563712616411 [Eh]
	 Total Energy              =    -453.5007982049723978 [Eh]

	 ================> DF-SCS-MP2 Energies <==================
	-----------------------------------------------------------
	 SCS Same-Spin Scale       =       0.3333333333333333 [-]
	 SCS Opposite-Spin Scale   =       1.2000000000000000 [-]
	 SCS Same-Spin Energy      =      -0.1524974118099491 [Eh]
	 SCS Opposite-Spin Energy  =      -1.6614769629981527 [Eh]
	 SCS Correlation Energy    =      -1.8139743748081019 [Eh]
	 SCS Total Energy          =    -453.4727162085188183 [Eh]
	-----------------------------------------------------------

  Dipole Moment: [D]
     X:    -2.9317      Y:     3.6612      Z:     0.0000     Total:     4.6903

*** Psi4 exiting successfully. Buy a developer a beer!
