                               Psi4 1.3.2 release

  ==> Input File <==

--------------------------------------------------------------------------
#psi4
#
memory 32 gb

molecule  {
0 1
  O       -1.3945310     1.8555980     0.0000210
  O        2.9082060     0.2751580    -0.0000600
  N       -1.0895640    -0.4406340     0.0001970
  N        0.7349370     0.9985730     0.0002800
  C       -0.6489740     0.8800530    -0.0003070
  C       -0.1978588    -1.5479094     0.0000330
  C       -2.5282030    -0.6963170    -0.0000730
  C        1.1391180    -1.3434170     0.0000740
  C        1.7104040    -0.0052910    -0.0002190
  H       -0.6762750    -2.4793460     0.0001770
  H       -2.8113470    -1.2573270     0.8936330
  H       -2.8107340    -1.2584070    -0.8933430
  H       -3.0286960     0.2691590    -0.0008180
  H        1.0742980     1.9581480     0.0003170
  H        1.7868941    -2.2104072    -0.0000915
units angstrom
no_reorient  #important for SAPT in psi4, default
symmetry c1  #important for SAPT in psi4, default
}

set PROPERTIES_ORIGIN ["COM"]
properties('MP2/aug-cc-pvtz', properties = ['dipole'])
--------------------------------------------------------------------------

    Molecular point group: c1
  Charge       = 0
  Multiplicity = 1
  Basis Set: AUG-CC-PVTZ
    Blend: AUG-CC-PVTZ
  Basis Set: (AUG-CC-PVTZ AUX)
    Blend: AUG-CC-PVTZ-JKFIT

    Orbital Energies [Eh]
    ---------------------

    Doubly Occupied:

       1A    -20.543479     2A    -20.542112     3A    -15.640524
       4A    -15.626676     5A    -11.416942     6A    -11.383825
       7A    -11.337097     8A    -11.286724     9A    -11.260474
      10A     -1.425641    11A     -1.390093    12A     -1.302435
      13A     -1.243563    14A     -1.092830    15A     -0.985280
      16A     -0.930857    17A     -0.870903    18A     -0.770311
      19A     -0.750293    20A     -0.709279    21A     -0.680453
      22A     -0.656823    23A     -0.644279    24A     -0.613846
      25A     -0.613426    26A     -0.602423    27A     -0.565223
      28A     -0.554473    29A     -0.492995    30A     -0.480308
      31A     -0.448525    32A     -0.433301    33A     -0.363215

  @DF-RHF Final Energy:  -451.65667700725044

   => Energetics <=

    Nuclear Repulsion Energy =            440.2575620429096830
    One-Electron Energy =               -1488.5112296897643773
    Two-Electron Energy =                 596.5969906396042006
    Total Energy =                       -451.6566770072504369
  Basis Set: (AUG-CC-PVTZ AUX)
    Blend: AUG-CC-PVTZ-RI
    Molecular point group: c1

    Geometry (in Angstrom), charge = 0, multiplicity = 1:

       Center              X                  Y                   Z               Mass
    ------------   -----------------  -----------------  -----------------  -----------------
         O           -1.445486760312     1.821304842349     0.000020800206    15.994914619570
         O            2.857250239688     0.240864842349    -0.000060199794    15.994914619570
         N           -1.140519760312    -0.474927157651     0.000196800206    14.003074004430
         N            0.683981239688     0.964279842349     0.000279800206    14.003074004430
         C           -0.699929760312     0.845759842349    -0.000307199794    12.000000000000
         C           -0.248814560312    -1.582202557651     0.000032800206    12.000000000000
         C           -2.579158760312    -0.730610157651    -0.000073199794    12.000000000000
         C            1.088162239688    -1.377710157651     0.000073800206    12.000000000000
         C            1.659448239688    -0.039584157651    -0.000219199794    12.000000000000
         H           -0.727230760312    -2.513639157651     0.000176800206     1.007825032230
         H           -2.862302760312    -1.291620157651     0.893632800206     1.007825032230
         H           -2.861689760312    -1.292700157651    -0.893343199794     1.007825032230
         H           -3.079651760312     0.234865842349    -0.000818199794     1.007825032230
         H            1.023342239688     1.923854842349     0.000316800206     1.007825032230
         H            1.735938339688    -2.244700357651    -0.000091699794     1.007825032230

  Basis Set: AUG-CC-PVTZ
    Blend: AUG-CC-PVTZ
  Basis Set: (AUG-CC-PVTZ AUX)
    Blend: AUG-CC-PVTZ-JKFIT
	 Reference Energy          =    -451.6566770072504369 [Eh]
	 Singles Energy            =      -0.0000000000000000 [Eh]
	 Same-Spin Energy          =      -0.4578730139392978 [Eh]
	 Opposite-Spin Energy      =      -1.3853467506749975 [Eh]
	 Correlation Energy        =      -1.8432197646142954 [Eh]
	 Total Energy              =    -453.4998967718647123 [Eh]

	 ================> DF-SCS-MP2 Energies <==================
	-----------------------------------------------------------
	 SCS Same-Spin Scale       =       0.3333333333333333 [-]
	 SCS Opposite-Spin Scale   =       1.2000000000000000 [-]
	 SCS Same-Spin Energy      =      -0.1526243379797659 [Eh]
	 SCS Opposite-Spin Energy  =      -1.6624161008099969 [Eh]
	 SCS Correlation Energy    =      -1.8150404387897630 [Eh]
	 SCS Total Energy          =    -453.4717174460402020 [Eh]
	-----------------------------------------------------------

  Dipole Moment: [D]
     X:    -3.0522      Y:    -3.6394      Z:    -0.0009     Total:     4.7498

*** Psi4 exiting successfully. Buy a developer a beer!
