                               Psi4 1.3.2 release

  ==> Input File <==

--------------------------------------------------------------------------
#psi4
#
memory 32 gb

molecule  {
0 1
  O       -1.3945310     1.8555980     0.0000210
  O        2.9082060     0.2751580    -0.0000600
  N       -1.0895640    -0.4406340     0.0001970
  N        0.7349370     0.9985730     0.0002800
  C       -0.6489740     0.8800530    -0.0003070
  C       -0.2041810    -1.5011250     0.0000420
  C       -2.5282030    -0.6963170    -0.0000730
  C        1.1391180    -1.3434170     0.0000740
  C        1.7104040    -0.0052910    -0.0002190
  H       -0.6762750    -2.4793460     0.0001770
  H       -2.8113470    -1.2573270     0.8936330
  H       -2.8162671    -1.2511513    -0.8961077
  H       -3.0328479     0.2669537    -0.0090619
  H        1.0742980     1.9581480     0.0003170
  H        1.8167570    -2.1872720    -0.0000870
units angstrom
no_reorient  #important for SAPT in psi4, default
symmetry c1  #important for SAPT in psi4, default
}

set PROPERTIES_ORIGIN ["COM"]
properties('MP2/aug-cc-pvtz', properties = ['dipole'])
--------------------------------------------------------------------------

    Molecular point group: c1
  Charge       = 0
  Multiplicity = 1
  Basis Set: AUG-CC-PVTZ
    Blend: AUG-CC-PVTZ
  Basis Set: (AUG-CC-PVTZ AUX)
    Blend: AUG-CC-PVTZ-JKFIT

    Orbital Energies [Eh]
    ---------------------

    Doubly Occupied:

       1A    -20.545455     2A    -20.538814     3A    -15.644603
       4A    -15.626571     5A    -11.418528     6A    -11.379847
       7A    -11.337161     8A    -11.289972     9A    -11.256158
      10A     -1.428327    11A     -1.388122    12A     -1.312325
      13A     -1.245626    14A     -1.091161    15A     -0.989645
      16A     -0.930675    17A     -0.872419    18A     -0.771904
      19A     -0.752406    20A     -0.699926    21A     -0.685307
      22A     -0.657885    23A     -0.644306    24A     -0.615157
      25A     -0.609635    26A     -0.602339    27A     -0.571371
      28A     -0.554233    29A     -0.499584    30A     -0.479957
      31A     -0.446127    32A     -0.433042    33A     -0.360692

  @DF-RHF Final Energy:  -451.66054023274461

   => Energetics <=

    Nuclear Repulsion Energy =            441.1576102355729176
    One-Electron Energy =               -1490.2777397889135500
    Two-Electron Energy =                 597.4595893205959101
    Total Energy =                       -451.6605402327446654
  Basis Set: (AUG-CC-PVTZ AUX)
    Blend: AUG-CC-PVTZ-RI
    Molecular point group: c1

    Geometry (in Angstrom), charge = 0, multiplicity = 1:

       Center              X                  Y                   Z               Mass
    ------------   -----------------  -----------------  -----------------  -----------------
         O           -1.445046191306     1.816625333826     0.000107930898    15.994914619570
         O            2.857690808694     0.236185333826     0.000026930898    15.994914619570
         N           -1.140079191306    -0.479606666174     0.000283930898    14.003074004430
         N            0.684421808694     0.959600333826     0.000366930898    14.003074004430
         C           -0.699489191306     0.841080333826    -0.000220069102    12.000000000000
         C           -0.254696191306    -1.540097666174     0.000128930898    12.000000000000
         C           -2.578718191306    -0.735289666174     0.000013930898    12.000000000000
         C            1.088602808694    -1.382389666174     0.000160930898    12.000000000000
         C            1.659888808694    -0.044263666174    -0.000132069102    12.000000000000
         H           -0.726790191306    -2.518318666174     0.000263930898     1.007825032230
         H           -2.861862191306    -1.296299666174     0.893719930898     1.007825032230
         H           -2.866782291306    -1.290123966174    -0.896020769102     1.007825032230
         H           -3.083363091306     0.227981033826    -0.008974969102     1.007825032230
         H            1.023782808694     1.919175333826     0.000403930898     1.007825032230
         H            1.766241808694    -2.226244666174    -0.000000069102     1.007825032230

  Basis Set: AUG-CC-PVTZ
    Blend: AUG-CC-PVTZ
  Basis Set: (AUG-CC-PVTZ AUX)
    Blend: AUG-CC-PVTZ-JKFIT
	 Reference Energy          =    -451.6605402327446086 [Eh]
	 Singles Energy            =      -0.0000000000000000 [Eh]
	 Same-Spin Energy          =      -0.4580435954818297 [Eh]
	 Opposite-Spin Energy      =      -1.3848067044950452 [Eh]
	 Correlation Energy        =      -1.8428502999768748 [Eh]
	 Total Energy              =    -453.5033905327214825 [Eh]

	 ================> DF-SCS-MP2 Energies <==================
	-----------------------------------------------------------
	 SCS Same-Spin Scale       =       0.3333333333333333 [-]
	 SCS Opposite-Spin Scale   =       1.2000000000000000 [-]
	 SCS Same-Spin Energy      =      -0.1526811984939432 [Eh]
	 SCS Opposite-Spin Energy  =      -1.6617680453940542 [Eh]
	 SCS Correlation Energy    =      -1.8144492438879976 [Eh]
	 SCS Total Energy          =    -453.4749894766326292 [Eh]
	-----------------------------------------------------------

  Dipole Moment: [D]
     X:    -3.2393      Y:    -3.5376      Z:    -0.0063     Total:     4.7966

*** Psi4 exiting successfully. Buy a developer a beer!
