                               Psi4 1.3.2 release

  ==> Input File <==

--------------------------------------------------------------------------
#psi4
#
memory 32 gb

molecule  {
0 1
  O       -1.3945310     1.8555980     0.0000210
  O        2.9082060     0.2751580    -0.0000600
  N       -1.0895640    -0.4406340     0.0001970
  N        0.7349370     0.9985730     0.0002800
  C       -0.6489740     0.8800530    -0.0003070
  C       -0.2105939    -1.4306060     0.0000555
  C       -2.5282030    -0.6963170    -0.0000730
  C        1.1391180    -1.3434170     0.0000740
  C        1.7104040    -0.0052910    -0.0002190
  H       -0.6762750    -2.4793460     0.0001770
  H       -2.8113470    -1.2573270     0.8936330
  H       -2.8107340    -1.2584070    -0.8933430
  H       -3.0286960     0.2691590    -0.0008180
  H        1.0742980     1.9581480     0.0003170
  H        1.8599923    -2.1506506    -0.0000799
units angstrom
no_reorient  #important for SAPT in psi4, default
symmetry c1  #important for SAPT in psi4, default
}

set PROPERTIES_ORIGIN ["COM"]
properties('MP2/aug-cc-pvtz', properties = ['dipole'])
--------------------------------------------------------------------------

    Molecular point group: c1
  Charge       = 0
  Multiplicity = 1
  Basis Set: AUG-CC-PVTZ
    Blend: AUG-CC-PVTZ
  Basis Set: (AUG-CC-PVTZ AUX)
    Blend: AUG-CC-PVTZ-JKFIT

    Orbital Energies [Eh]
    ---------------------

    Doubly Occupied:

       1A    -20.548639     2A    -20.534020     3A    -15.650154
       4A    -15.626566     5A    -11.420918     6A    -11.374033
       7A    -11.337961     8A    -11.295016     9A    -11.250423
      10A     -1.433606    11A     -1.385184    12A     -1.328973
      13A     -1.248101    14A     -1.089514    15A     -0.996874
      16A     -0.934042    17A     -0.873078    18A     -0.774175
      19A     -0.756027    20A     -0.693269    21A     -0.689899
      22A     -0.660064    23A     -0.641907    24A     -0.616767
      25A     -0.613701    26A     -0.594013    27A     -0.575600
      28A     -0.553852    29A     -0.509776    30A     -0.479284
      31A     -0.441870    32A     -0.432804    33A     -0.356907

  @DF-RHF Final Energy:  -451.65458907565335

   => Energetics <=

    Nuclear Repulsion Energy =            442.6126308364003989
    One-Electron Energy =               -1493.1004075838486642
    Two-Electron Energy =                 598.8331876717948035
    Total Energy =                       -451.6545890756533481
  Basis Set: (AUG-CC-PVTZ AUX)
    Blend: AUG-CC-PVTZ-RI
    Molecular point group: c1

    Geometry (in Angstrom), charge = 0, multiplicity = 1:

       Center              X                  Y                   Z               Mass
    ------------   -----------------  -----------------  -----------------  -----------------
         O           -1.444858791684     1.809659087786     0.000018565327    15.994914619570
         O            2.857878208316     0.229219087786    -0.000062434673    15.994914619570
         N           -1.139891791684    -0.486572912214     0.000194565327    14.003074004430
         N            0.684609208316     0.952634087786     0.000277565327    14.003074004430
         C           -0.699301791684     0.834114087786    -0.000309434673    12.000000000000
         C           -0.260921691684    -1.476544912214     0.000053065327    12.000000000000
         C           -2.578530791684    -0.742255912214    -0.000075434673    12.000000000000
         C            1.088790208316    -1.389355912214     0.000071565327    12.000000000000
         C            1.660076208316    -0.051229912214    -0.000221434673    12.000000000000
         H           -0.726602791684    -2.525284912214     0.000174565327     1.007825032230
         H           -2.861674791684    -1.303265912214     0.893630565327     1.007825032230
         H           -2.861061791684    -1.304345912214    -0.893345434673     1.007825032230
         H           -3.079023791684     0.223220087786    -0.000820434673     1.007825032230
         H            1.023970208316     1.912209087786     0.000314565327     1.007825032230
         H            1.809664508316    -2.196589512214    -0.000082334673     1.007825032230

  Basis Set: AUG-CC-PVTZ
    Blend: AUG-CC-PVTZ
  Basis Set: (AUG-CC-PVTZ AUX)
    Blend: AUG-CC-PVTZ-JKFIT
	 Reference Energy          =    -451.6545890756533481 [Eh]
	 Singles Energy            =      -0.0000000000000000 [Eh]
	 Same-Spin Energy          =      -0.4585912290412190 [Eh]
	 Opposite-Spin Energy      =      -1.3847410563368951 [Eh]
	 Correlation Energy        =      -1.8433322853781142 [Eh]
	 Total Energy              =    -453.4979213610314446 [Eh]

	 ================> DF-SCS-MP2 Energies <==================
	-----------------------------------------------------------
	 SCS Same-Spin Scale       =       0.3333333333333333 [-]
	 SCS Opposite-Spin Scale   =       1.2000000000000000 [-]
	 SCS Same-Spin Energy      =      -0.1528637430137396 [Eh]
	 SCS Opposite-Spin Energy  =      -1.6616892676042740 [Eh]
	 SCS Correlation Energy    =      -1.8145530106180137 [Eh]
	 SCS Total Energy          =    -453.4691420862713471 [Eh]
	-----------------------------------------------------------

  Dipole Moment: [D]
     X:    -3.5061      Y:    -3.3798      Z:    -0.0009     Total:     4.8699

*** Psi4 exiting successfully. Buy a developer a beer!
