                               Psi4 1.3.2 release

  ==> Input File <==

--------------------------------------------------------------------------
#psi4
#
memory 32 gb

molecule  {
0 1
  O       -1.3945310     1.8555980     0.0000210
  O        2.9172639     0.2331845    -0.0000453
  N       -1.0895640    -0.4406340     0.0001970
  N        0.7349370     0.9985730     0.0002800
  C       -0.6489740     0.8800530    -0.0003070
  C       -0.2041810    -1.5011250     0.0000420
  C       -2.5282030    -0.6963170    -0.0000730
  C        1.1861659    -1.3625394     0.0000895
  C        1.7104040    -0.0052910    -0.0002190
  H       -0.6762750    -2.4793460     0.0001770
  H       -2.8113470    -1.2573270     0.8936330
  H       -2.8107340    -1.2584070    -0.8933430
  H       -3.0286960     0.2691590    -0.0008180
  H        1.0742980     1.9581480     0.0003170
  H        1.8167570    -2.1872720    -0.0000870
units angstrom
no_reorient  #important for SAPT in psi4, default
symmetry c1  #important for SAPT in psi4, default
}

set PROPERTIES_ORIGIN ["COM"]
properties('MP2/aug-cc-pvtz', properties = ['dipole'])
--------------------------------------------------------------------------

    Molecular point group: c1
  Charge       = 0
  Multiplicity = 1
  Basis Set: AUG-CC-PVTZ
    Blend: AUG-CC-PVTZ
  Basis Set: (AUG-CC-PVTZ AUX)
    Blend: AUG-CC-PVTZ-JKFIT

    Orbital Energies [Eh]
    ---------------------

    Doubly Occupied:

       1A    -20.547639     2A    -20.535368     3A    -15.647939
       4A    -15.629402     5A    -11.420782     6A    -11.377911
       7A    -11.342722     8A    -11.291479     9A    -11.255770
      10A     -1.429644    11A     -1.386278    12A     -1.312873
      13A     -1.247680    14A     -1.082261    15A     -0.991223
      16A     -0.931339    17A     -0.872904    18A     -0.772293
      19A     -0.753199    20A     -0.696725    21A     -0.685945
      22A     -0.660684    23A     -0.643879    24A     -0.620558
      25A     -0.615618    26A     -0.596604    27A     -0.576759
      28A     -0.554009    29A     -0.496844    30A     -0.480108
      31A     -0.443712    32A     -0.434574    33A     -0.354093

  @DF-RHF Final Energy:  -451.65488667596844

   => Energetics <=

    Nuclear Repulsion Energy =            440.2878261544923362
    One-Electron Energy =               -1488.5077948573880349
    Two-Electron Energy =                 596.5650820269271435
    Total Energy =                       -451.6548866759684415
  Basis Set: (AUG-CC-PVTZ AUX)
    Blend: AUG-CC-PVTZ-RI
    Molecular point group: c1

    Geometry (in Angstrom), charge = 0, multiplicity = 1:

       Center              X                  Y                   Z               Mass
    ------------   -----------------  -----------------  -----------------  -----------------
         O           -1.450752310143     1.823812736457     0.000016566248    15.994914619570
         O            2.861042589857     0.201399236457    -0.000049733752    15.994914619570
         N           -1.145785310143    -0.472419263543     0.000192566248    14.003074004430
         N            0.678715689857     0.966787736457     0.000275566248    14.003074004430
         C           -0.705195310143     0.848267736457    -0.000311433752    12.000000000000
         C           -0.260402310143    -1.532910263543     0.000037566248    12.000000000000
         C           -2.584424310143    -0.728102263543    -0.000077433752    12.000000000000
         C            1.129944589857    -1.394324663543     0.000085066248    12.000000000000
         C            1.654182689857    -0.037076263543    -0.000223433752    12.000000000000
         H           -0.732496310143    -2.511131263543     0.000172566248     1.007825032230
         H           -2.867568310143    -1.289112263543     0.893628566248     1.007825032230
         H           -2.866955310143    -1.290192263543    -0.893347433752     1.007825032230
         H           -3.084917310143     0.237373736457    -0.000822433752     1.007825032230
         H            1.018076689857     1.926362736457     0.000312566248     1.007825032230
         H            1.760535689857    -2.219057263543    -0.000091433752     1.007825032230

  Basis Set: AUG-CC-PVTZ
    Blend: AUG-CC-PVTZ
  Basis Set: (AUG-CC-PVTZ AUX)
    Blend: AUG-CC-PVTZ-JKFIT
	 Reference Energy          =    -451.6548866759684415 [Eh]
	 Singles Energy            =      -0.0000000000000000 [Eh]
	 Same-Spin Energy          =      -0.4583246910634996 [Eh]
	 Opposite-Spin Energy      =      -1.3856422564757755 [Eh]
	 Correlation Energy        =      -1.8439669475392750 [Eh]
	 Total Energy              =    -453.4988536235077277 [Eh]

	 ================> DF-SCS-MP2 Energies <==================
	-----------------------------------------------------------
	 SCS Same-Spin Scale       =       0.3333333333333333 [-]
	 SCS Opposite-Spin Scale   =       1.2000000000000000 [-]
	 SCS Same-Spin Energy      =      -0.1527748970211665 [Eh]
	 SCS Opposite-Spin Energy  =      -1.6627707077709306 [Eh]
	 SCS Correlation Energy    =      -1.8155456047920970 [Eh]
	 SCS Total Energy          =    -453.4704322807605195 [Eh]
	-----------------------------------------------------------

  Dipole Moment: [D]
     X:    -3.3269      Y:    -3.4203      Z:    -0.0009     Total:     4.7715

*** Psi4 exiting successfully. Buy a developer a beer!
