                               Psi4 1.3.2 release

  ==> Input File <==

--------------------------------------------------------------------------
#psi4
#
memory 32 gb

molecule  {
0 1
  O       -1.3945310     1.8555980     0.0000210
  O        2.9082060     0.2751580    -0.0000600
  N       -1.0895640    -0.4406340     0.0001970
  N        0.7349370     0.9985730     0.0002800
  C       -0.6489740     0.8800530    -0.0003070
  C       -0.2041810    -1.5011250     0.0000420
  C       -2.5282030    -0.6963170    -0.0000730
  C        1.1391180    -1.3434170     0.0000740
  C        1.7800930    -0.0770088    -0.0002546
  H       -0.6762750    -2.4793460     0.0001770
  H       -2.8113470    -1.2573270     0.8936330
  H       -2.8107340    -1.2584070    -0.8933430
  H       -3.0286960     0.2691590    -0.0008180
  H        1.0742980     1.9581480     0.0003170
  H        1.8167570    -2.1872720    -0.0000870
units angstrom
no_reorient  #important for SAPT in psi4, default
symmetry c1  #important for SAPT in psi4, default
}

set PROPERTIES_ORIGIN ["COM"]
properties('MP2/aug-cc-pvtz', properties = ['dipole'])
--------------------------------------------------------------------------

    Molecular point group: c1
  Charge       = 0
  Multiplicity = 1
  Basis Set: AUG-CC-PVTZ
    Blend: AUG-CC-PVTZ
  Basis Set: (AUG-CC-PVTZ AUX)
    Blend: AUG-CC-PVTZ-JKFIT

    Orbital Energies [Eh]
    ---------------------

    Doubly Occupied:

       1A    -20.553351     2A    -20.535461     3A    -15.642064
       4A    -15.607955     5A    -11.407569     6A    -11.382309
       7A    -11.343883     8A    -11.287754     9A    -11.254556
      10A     -1.430924    11A     -1.410491    12A     -1.307918
      13A     -1.219542    14A     -1.095971    15A     -0.985236
      16A     -0.934559    17A     -0.850352    18A     -0.765616
      19A     -0.747809    20A     -0.701795    21A     -0.679398
      22A     -0.658672    23A     -0.644808    24A     -0.615110
      25A     -0.610669    26A     -0.605532    27A     -0.568926
      28A     -0.564562    29A     -0.496620    30A     -0.481874
      31A     -0.443490    32A     -0.425982    33A     -0.363385

  @DF-RHF Final Energy:  -451.65260471248496

   => Energetics <=

    Nuclear Repulsion Energy =            440.5492974833634321
    One-Electron Energy =               -1489.1555177767372697
    Two-Electron Energy =                 596.9536155808888225
    Total Energy =                       -451.6526047124849583
  Basis Set: (AUG-CC-PVTZ AUX)
    Blend: AUG-CC-PVTZ-RI
    Molecular point group: c1

    Geometry (in Angstrom), charge = 0, multiplicity = 1:

       Center              X                  Y                   Z               Mass
    ------------   -----------------  -----------------  -----------------  -----------------
         O           -1.451758418660     1.823493656683     0.000023296695    15.994914619570
         O            2.850978581340     0.243053656683    -0.000057703305    15.994914619570
         N           -1.146791418660    -0.472738343317     0.000199296695    14.003074004430
         N            0.677709581340     0.966468656683     0.000282296695    14.003074004430
         C           -0.706201418660     0.847948656683    -0.000304703305    12.000000000000
         C           -0.261408418660    -1.533229343317     0.000044296695    12.000000000000
         C           -2.585430418660    -0.728421343317    -0.000070703305    12.000000000000
         C            1.081890581340    -1.375521343317     0.000076296695    12.000000000000
         C            1.722865581340    -0.109113143317    -0.000252303305    12.000000000000
         H           -0.733502418660    -2.511450343317     0.000179296695     1.007825032230
         H           -2.868574418660    -1.289431343317     0.893635296695     1.007825032230
         H           -2.867961418660    -1.290511343317    -0.893340703305     1.007825032230
         H           -3.085923418660     0.237054656683    -0.000815703305     1.007825032230
         H            1.017070581340     1.926043656683     0.000319296695     1.007825032230
         H            1.759529581340    -2.219376343317    -0.000084703305     1.007825032230

  Basis Set: AUG-CC-PVTZ
    Blend: AUG-CC-PVTZ
  Basis Set: (AUG-CC-PVTZ AUX)
    Blend: AUG-CC-PVTZ-JKFIT
	 Reference Energy          =    -451.6526047124849583 [Eh]
	 Singles Energy            =      -0.0000000000000000 [Eh]
	 Same-Spin Energy          =      -0.4578913331210738 [Eh]
	 Opposite-Spin Energy      =      -1.3843247956727209 [Eh]
	 Correlation Energy        =      -1.8422161287937948 [Eh]
	 Total Energy              =    -453.4948208412787380 [Eh]

	 ================> DF-SCS-MP2 Energies <==================
	-----------------------------------------------------------
	 SCS Same-Spin Scale       =       0.3333333333333333 [-]
	 SCS Opposite-Spin Scale   =       1.2000000000000000 [-]
	 SCS Same-Spin Energy      =      -0.1526304443736912 [Eh]
	 SCS Opposite-Spin Energy  =      -1.6611897548072652 [Eh]
	 SCS Correlation Energy    =      -1.8138201991809564 [Eh]
	 SCS Total Energy          =    -453.4664249116659107 [Eh]
	-----------------------------------------------------------

  Dipole Moment: [D]
     X:    -2.6376      Y:    -3.9160      Z:    -0.0010     Total:     4.7214

*** Psi4 exiting successfully. Buy a developer a beer!
