                               Psi4 1.3.2 release

  ==> Input File <==

--------------------------------------------------------------------------
#psi4
#
memory 32 gb

molecule  {
0 1
  O       -1.3945310     1.8555980     0.0000210
  O        2.8976888     0.3167898    -0.0000389
  N       -1.0895640    -0.4406340     0.0001970
  N        0.7705656     1.0320048     0.0002975
  C       -0.6489740     0.8800530    -0.0003070
  C       -0.2041810    -1.5011250     0.0000420
  C       -2.5282030    -0.6963170    -0.0000730
  C        1.1391180    -1.3434170     0.0000740
  C        1.7104040    -0.0052910    -0.0002190
  H       -0.6762750    -2.4793460     0.0001770
  H       -2.8113470    -1.2573270     0.8936330
  H       -2.8107340    -1.2584070    -0.8933430
  H       -3.0286960     0.2691590    -0.0008180
  H        1.0742980     1.9581480     0.0003170
  H        1.8167570    -2.1872720    -0.0000870
units angstrom
no_reorient  #important for SAPT in psi4, default
symmetry c1  #important for SAPT in psi4, default
}

set PROPERTIES_ORIGIN ["COM"]
properties('MP2/aug-cc-pvtz', properties = ['dipole'])
--------------------------------------------------------------------------

    Molecular point group: c1
  Charge       = 0
  Multiplicity = 1
  Basis Set: AUG-CC-PVTZ
    Blend: AUG-CC-PVTZ
  Basis Set: (AUG-CC-PVTZ AUX)
    Blend: AUG-CC-PVTZ-JKFIT

    Orbital Energies [Eh]
    ---------------------

    Doubly Occupied:

       1A    -20.547844     2A    -20.534198     3A    -15.647032
       4A    -15.620308     5A    -11.420872     6A    -11.377343
       7A    -11.339483     8A    -11.291672     9A    -11.259027
      10A     -1.426332    11A     -1.387226    12A     -1.312248
      13A     -1.239078    14A     -1.092734    15A     -0.989087
      16A     -0.934437    17A     -0.862275    18A     -0.774193
      19A     -0.756738    20A     -0.704577    21A     -0.683873
      22A     -0.657448    23A     -0.643964    24A     -0.613069
      25A     -0.612494    26A     -0.601978    27A     -0.574910
      28A     -0.553794    29A     -0.500496    30A     -0.480840
      31A     -0.442292    32A     -0.428832    33A     -0.362289

  @DF-RHF Final Energy:  -451.65735646937156

   => Energetics <=

    Nuclear Repulsion Energy =            440.4304040557158260
    One-Electron Energy =               -1488.8295570640079859
    Two-Electron Energy =                 596.7417965389205392
    Total Energy =                       -451.6573564693716207
  Basis Set: (AUG-CC-PVTZ AUX)
    Blend: AUG-CC-PVTZ-RI
    Molecular point group: c1

    Geometry (in Angstrom), charge = 0, multiplicity = 1:

       Center              X                  Y                   Z               Mass
    ------------   -----------------  -----------------  -----------------  -----------------
         O           -1.447747247198     1.807668423991     0.000015285564    15.994914619570
         O            2.844472552802     0.268860223991    -0.000044614436    15.994914619570
         N           -1.142780247198    -0.488563576009     0.000191285564    14.003074004430
         N            0.717349352802     0.984075223991     0.000291785564    14.003074004430
         C           -0.702190247198     0.832123423991    -0.000312714436    12.000000000000
         C           -0.257397247198    -1.549054576009     0.000036285564    12.000000000000
         C           -2.581419247198    -0.744246576009    -0.000078714436    12.000000000000
         C            1.085901752802    -1.391346576009     0.000068285564    12.000000000000
         C            1.657187752802    -0.053220576009    -0.000224714436    12.000000000000
         H           -0.729491247198    -2.527275576009     0.000171285564     1.007825032230
         H           -2.864563247198    -1.305256576009     0.893627285564     1.007825032230
         H           -2.863950247198    -1.306336576009    -0.893348714436     1.007825032230
         H           -3.081912247198     0.221229423991    -0.000823714436     1.007825032230
         H            1.021081752802     1.910218423991     0.000311285564     1.007825032230
         H            1.763540752802    -2.235201576009    -0.000092714436     1.007825032230

  Basis Set: AUG-CC-PVTZ
    Blend: AUG-CC-PVTZ
  Basis Set: (AUG-CC-PVTZ AUX)
    Blend: AUG-CC-PVTZ-JKFIT
	 Reference Energy          =    -451.6573564693715639 [Eh]
	 Singles Energy            =      -0.0000000000000000 [Eh]
	 Same-Spin Energy          =      -0.4574636639415042 [Eh]
	 Opposite-Spin Energy      =      -1.3843418323996564 [Eh]
	 Correlation Energy        =      -1.8418054963411605 [Eh]
	 Total Energy              =    -453.4991619657127444 [Eh]

	 ================> DF-SCS-MP2 Energies <==================
	-----------------------------------------------------------
	 SCS Same-Spin Scale       =       0.3333333333333333 [-]
	 SCS Opposite-Spin Scale   =       1.2000000000000000 [-]
	 SCS Same-Spin Energy      =      -0.1524878879805014 [Eh]
	 SCS Opposite-Spin Energy  =      -1.6612101988795875 [Eh]
	 SCS Correlation Energy    =      -1.8136980868600889 [Eh]
	 SCS Total Energy          =    -453.4710545562316497 [Eh]
	-----------------------------------------------------------

  Dipole Moment: [D]
     X:    -3.3926      Y:    -3.6733      Z:    -0.0009     Total:     5.0003

*** Psi4 exiting successfully. Buy a developer a beer!
