                               Psi4 1.3.2 release

  ==> Input File <==

--------------------------------------------------------------------------
#psi4
#
memory 32 gb

molecule  {
0 1
  O       -1.3945310     1.8555980     0.0000210
  O        2.9082060     0.2751580    -0.0000600
  N       -1.1125461    -0.4327435     0.0001819
  N        0.7326578     1.0227075     0.0002659
  C       -0.6489740     0.8800530    -0.0003070
  C       -0.2041810    -1.5011250     0.0000420
  C       -2.5282030    -0.6963170    -0.0000730
  C        1.1391180    -1.3434170     0.0000740
  C        1.7104040    -0.0052910    -0.0002190
  H       -0.6762750    -2.4793460     0.0001770
  H       -2.8113470    -1.2573270     0.8936330
  H       -2.8107340    -1.2584070    -0.8933430
  H       -3.0286960     0.2691590    -0.0008180
  H        1.0742980     1.9581480     0.0003170
  H        1.8167570    -2.1872720    -0.0000870
units angstrom
no_reorient  #important for SAPT in psi4, default
symmetry c1  #important for SAPT in psi4, default
}

set PROPERTIES_ORIGIN ["COM"]
properties('MP2/aug-cc-pvtz', properties = ['dipole'])
--------------------------------------------------------------------------

    Molecular point group: c1
  Charge       = 0
  Multiplicity = 1
  Basis Set: AUG-CC-PVTZ
    Blend: AUG-CC-PVTZ
  Basis Set: (AUG-CC-PVTZ AUX)
    Blend: AUG-CC-PVTZ-JKFIT

    Orbital Energies [Eh]
    ---------------------

    Doubly Occupied:

       1A    -20.542446     2A    -20.541636     3A    -15.643979
       4A    -15.625010     5A    -11.416356     6A    -11.383115
       7A    -11.339638     8A    -11.287441     9A    -11.259825
      10A     -1.426509    11A     -1.389390    12A     -1.308191
      13A     -1.245011    14A     -1.093310    15A     -0.989409
      16A     -0.929667    17A     -0.866408    18A     -0.774850
      19A     -0.754956    20A     -0.699805    21A     -0.684497
      22A     -0.658984    23A     -0.644976    24A     -0.613823
      25A     -0.612269    26A     -0.607751    27A     -0.568753
      28A     -0.553662    29A     -0.495238    30A     -0.478634
      31A     -0.446671    32A     -0.432756    33A     -0.363055

  @DF-RHF Final Energy:  -451.65964766751569

   => Energetics <=

    Nuclear Repulsion Energy =            440.6121512473102371
    One-Electron Energy =               -1489.1875564722606669
    Two-Electron Energy =                 596.9157575574347447
    Total Energy =                       -451.6596476675156282
  Basis Set: (AUG-CC-PVTZ AUX)
    Blend: AUG-CC-PVTZ-RI
    Molecular point group: c1

    Geometry (in Angstrom), charge = 0, multiplicity = 1:

       Center              X                  Y                   Z               Mass
    ------------   -----------------  -----------------  -----------------  -----------------
         O           -1.442317160214     1.813107813768     0.000023151425    15.994914619570
         O            2.860419839786     0.232667813768    -0.000057848575    15.994914619570
         N           -1.160332260214    -0.475233686232     0.000184051425    14.003074004430
         N            0.684871639786     0.980217313768     0.000268051425    14.003074004430
         C           -0.696760160214     0.837562813768    -0.000304848575    12.000000000000
         C           -0.251967160214    -1.543615186232     0.000044151425    12.000000000000
         C           -2.575989160214    -0.738807186232    -0.000070848575    12.000000000000
         C            1.091331839786    -1.385907186232     0.000076151425    12.000000000000
         C            1.662617839786    -0.047781186232    -0.000216848575    12.000000000000
         H           -0.724061160214    -2.521836186232     0.000179151425     1.007825032230
         H           -2.859133160214    -1.299817186232     0.893635151425     1.007825032230
         H           -2.858520160214    -1.300897186232    -0.893340848575     1.007825032230
         H           -3.076482160214     0.226668813768    -0.000815848575     1.007825032230
         H            1.026511839786     1.915657813768     0.000319151425     1.007825032230
         H            1.768970839786    -2.229762186232    -0.000084848575     1.007825032230

  Basis Set: AUG-CC-PVTZ
    Blend: AUG-CC-PVTZ
  Basis Set: (AUG-CC-PVTZ AUX)
    Blend: AUG-CC-PVTZ-JKFIT
	 Reference Energy          =    -451.6596476675156850 [Eh]
	 Singles Energy            =      -0.0000000000000000 [Eh]
	 Same-Spin Energy          =      -0.4575859733763844 [Eh]
	 Opposite-Spin Energy      =      -1.3844536076276168 [Eh]
	 Correlation Energy        =      -1.8420395810040011 [Eh]
	 Total Energy              =    -453.5016872485196586 [Eh]

	 ================> DF-SCS-MP2 Energies <==================
	-----------------------------------------------------------
	 SCS Same-Spin Scale       =       0.3333333333333333 [-]
	 SCS Opposite-Spin Scale   =       1.2000000000000000 [-]
	 SCS Same-Spin Energy      =      -0.1525286577921281 [Eh]
	 SCS Opposite-Spin Energy  =      -1.6613443291531402 [Eh]
	 SCS Correlation Energy    =      -1.8138729869452683 [Eh]
	 SCS Total Energy          =    -453.4735206544609696 [Eh]
	-----------------------------------------------------------

  Dipole Moment: [D]
     X:    -3.0326      Y:    -3.6303      Z:    -0.0008     Total:     4.7303

*** Psi4 exiting successfully. Buy a developer a beer!
