                               Psi4 1.3.2 release

  ==> Input File <==

--------------------------------------------------------------------------
#psi4
#
memory 32 gb

molecule  {
0 1
  O       -1.3945310     1.8555980     0.0000210
  O        2.9082060     0.2751580    -0.0000600
  N       -1.0432043    -0.4552058     0.0002266
  N        0.7382302     0.9502030     0.0003076
  C       -0.6489740     0.8800530    -0.0003070
  C       -0.2041810    -1.5011250     0.0000420
  C       -2.5282030    -0.6963170    -0.0000730
  C        1.1391180    -1.3434170     0.0000740
  C        1.7104040    -0.0052910    -0.0002190
  H       -0.6762750    -2.4793460     0.0001770
  H       -2.8113470    -1.2573270     0.8936330
  H       -2.8107340    -1.2584070    -0.8933430
  H       -3.0286960     0.2691590    -0.0008180
  H        1.0742980     1.9581480     0.0003170
  H        1.8167570    -2.1872720    -0.0000870
units angstrom
no_reorient  #important for SAPT in psi4, default
symmetry c1  #important for SAPT in psi4, default
}

set PROPERTIES_ORIGIN ["COM"]
properties('MP2/aug-cc-pvtz', properties = ['dipole'])
--------------------------------------------------------------------------

    Molecular point group: c1
  Charge       = 0
  Multiplicity = 1
  Basis Set: AUG-CC-PVTZ
    Blend: AUG-CC-PVTZ
  Basis Set: (AUG-CC-PVTZ AUX)
    Blend: AUG-CC-PVTZ-JKFIT

    Orbital Energies [Eh]
    ---------------------

    Doubly Occupied:

       1A    -20.553355     2A    -20.531531     3A    -15.645580
       4A    -15.629622     5A    -11.423622     6A    -11.373222
       7A    -11.331975     8A    -11.295150     9A    -11.248852
      10A     -1.432723    11A     -1.386058    12A     -1.321763
      13A     -1.247631    14A     -1.087565    15A     -0.990938
      16A     -0.933144    17A     -0.883699    18A     -0.769464
      19A     -0.744777    20A     -0.699205    21A     -0.687648
      22A     -0.659996    23A     -0.640357    24A     -0.617223
      25A     -0.606184    26A     -0.590635    27A     -0.574231
      28A     -0.555870    29A     -0.508261    30A     -0.483188
      31A     -0.443660    32A     -0.433372    33A     -0.355534

  @DF-RHF Final Energy:  -451.65150238534335

   => Energetics <=

    Nuclear Repulsion Energy =            442.3773569324492883
    One-Electron Energy =               -1492.6856433088075846
    Two-Electron Energy =                 598.6567839910150042
    Total Energy =                       -451.6515023853434059
  Basis Set: (AUG-CC-PVTZ AUX)
    Blend: AUG-CC-PVTZ-RI
    Molecular point group: c1

    Geometry (in Angstrom), charge = 0, multiplicity = 1:

       Center              X                  Y                   Z               Mass
    ------------   -----------------  -----------------  -----------------  -----------------
         O           -1.450639952360     1.823658402804     0.000013552588    15.994914619570
         O            2.852097047640     0.243218402804    -0.000067447412    15.994914619570
         N           -1.099313252360    -0.487145397196     0.000219152588    14.003074004430
         N            0.682121247640     0.918263402804     0.000300152588    14.003074004430
         C           -0.705082952360     0.848113402804    -0.000314447412    12.000000000000
         C           -0.260289952360    -1.533064597196     0.000034552588    12.000000000000
         C           -2.584311952360    -0.728256597196    -0.000080447412    12.000000000000
         C            1.083009047640    -1.375356597196     0.000066552588    12.000000000000
         C            1.654295047640    -0.037230597196    -0.000226447412    12.000000000000
         H           -0.732383952360    -2.511285597196     0.000169552588     1.007825032230
         H           -2.867455952360    -1.289266597196     0.893625552588     1.007825032230
         H           -2.866842952360    -1.290346597196    -0.893350447412     1.007825032230
         H           -3.084804952360     0.237219402804    -0.000825447412     1.007825032230
         H            1.018189047640     1.926208402804     0.000309552588     1.007825032230
         H            1.760648047640    -2.219211597196    -0.000094447412     1.007825032230

  Basis Set: AUG-CC-PVTZ
    Blend: AUG-CC-PVTZ
  Basis Set: (AUG-CC-PVTZ AUX)
    Blend: AUG-CC-PVTZ-JKFIT
	 Reference Energy          =    -451.6515023853433490 [Eh]
	 Singles Energy            =      -0.0000000000000000 [Eh]
	 Same-Spin Energy          =      -0.4593570456251047 [Eh]
	 Opposite-Spin Energy      =      -1.3863387845674804 [Eh]
	 Correlation Energy        =      -1.8456958301925850 [Eh]
	 Total Energy              =    -453.4971982155359456 [Eh]

	 ================> DF-SCS-MP2 Energies <==================
	-----------------------------------------------------------
	 SCS Same-Spin Scale       =       0.3333333333333333 [-]
	 SCS Opposite-Spin Scale   =       1.2000000000000000 [-]
	 SCS Same-Spin Energy      =      -0.1531190152083682 [Eh]
	 SCS Opposite-Spin Energy  =      -1.6636065414809764 [Eh]
	 SCS Correlation Energy    =      -1.8167255566893448 [Eh]
	 SCS Total Energy          =    -453.4682279420326836 [Eh]
	-----------------------------------------------------------

  Dipole Moment: [D]
     X:    -3.6403      Y:    -3.3717      Z:    -0.0009     Total:     4.9619

*** Psi4 exiting successfully. Buy a developer a beer!
