                               Psi4 1.3.2 release

  ==> Input File <==

--------------------------------------------------------------------------
#psi4
#
memory 32 gb

molecule  {
0 1
  O       -1.3945310     1.8555980     0.0000210
  O        2.9082060     0.2751580    -0.0000600
  N       -1.0895640    -0.4406340     0.0001970
  N        0.7888120     1.0482492     0.0002524
  C       -0.6489740     0.8800530    -0.0003070
  C       -0.2041810    -1.5011250     0.0000420
  C       -2.5282030    -0.6963170    -0.0000730
  C        1.2099330    -1.3714819     0.0000378
  C        1.7104040    -0.0052910    -0.0002190
  H       -0.6762750    -2.4793460     0.0001770
  H       -2.8113470    -1.2573270     0.8936330
  H       -2.8107340    -1.2584070    -0.8933430
  H       -3.0286960     0.2691590    -0.0008180
  H        1.0742980     1.9581480     0.0003170
  H        1.8167570    -2.1872720    -0.0000870
units angstrom
no_reorient  #important for SAPT in psi4, default
symmetry c1  #important for SAPT in psi4, default
}

set PROPERTIES_ORIGIN ["COM"]
properties('MP2/aug-cc-pvtz', properties = ['dipole'])
--------------------------------------------------------------------------

    Molecular point group: c1
  Charge       = 0
  Multiplicity = 1
  Basis Set: AUG-CC-PVTZ
    Blend: AUG-CC-PVTZ
  Basis Set: (AUG-CC-PVTZ AUX)
    Blend: AUG-CC-PVTZ-JKFIT

    Orbital Energies [Eh]
    ---------------------

    Doubly Occupied:

       1A    -20.552483     2A    -20.526972     3A    -15.653617
       4A    -15.621510     5A    -11.425566     6A    -11.373413
       7A    -11.349140     8A    -11.294821     9A    -11.259955
      10A     -1.427747    11A     -1.383728    12A     -1.313561
      13A     -1.239206    14A     -1.080694    15A     -0.991550
      16A     -0.937409    17A     -0.858417    18A     -0.780323
      19A     -0.755932    20A     -0.702041    21A     -0.684708
      22A     -0.664069    23A     -0.642675    24A     -0.629785
      25A     -0.612143    26A     -0.592708    27A     -0.582157
      28A     -0.553580    29A     -0.497499    30A     -0.481179
      31A     -0.437640    32A     -0.429170    33A     -0.353314

  @DF-RHF Final Energy:  -451.64291746232982

   => Energetics <=

    Nuclear Repulsion Energy =            438.7148044529738513
    One-Electron Energy =               -1485.3380228384573911
    Two-Electron Energy =                 594.9803009231537771
    Total Energy =                       -451.6429174623298195
  Basis Set: (AUG-CC-PVTZ AUX)
    Blend: AUG-CC-PVTZ-RI
    Molecular point group: c1

    Geometry (in Angstrom), charge = 0, multiplicity = 1:

       Center              X                  Y                   Z               Mass
    ------------   -----------------  -----------------  -----------------  -----------------
         O           -1.457851006539     1.813818744099     0.000026420114    15.994914619570
         O            2.844885993461     0.233378744099    -0.000054579886    15.994914619570
         N           -1.152884006539    -0.482413255901     0.000202420114    14.003074004430
         N            0.725491993461     1.006469944099     0.000257820114    14.003074004430
         C           -0.712294006539     0.838273744099    -0.000301579886    12.000000000000
         C           -0.267501006539    -1.542904255901     0.000047420114    12.000000000000
         C           -2.591523006539    -0.738096255901    -0.000067579886    12.000000000000
         C            1.146612993461    -1.413261155901     0.000043220114    12.000000000000
         C            1.647083993461    -0.047070255901    -0.000213579886    12.000000000000
         H           -0.739595006539    -2.521125255901     0.000182420114     1.007825032230
         H           -2.874667006539    -1.299106255901     0.893638420114     1.007825032230
         H           -2.874054006539    -1.300186255901    -0.893337579886     1.007825032230
         H           -3.092016006539     0.227379744099    -0.000812579886     1.007825032230
         H            1.010977993461     1.916368744099     0.000322420114     1.007825032230
         H            1.753436993461    -2.229051255901    -0.000081579886     1.007825032230

  Basis Set: AUG-CC-PVTZ
    Blend: AUG-CC-PVTZ
  Basis Set: (AUG-CC-PVTZ AUX)
    Blend: AUG-CC-PVTZ-JKFIT
	 Reference Energy          =    -451.6429174623298195 [Eh]
	 Singles Energy            =      -0.0000000000000000 [Eh]
	 Same-Spin Energy          =      -0.4576649676711493 [Eh]
	 Opposite-Spin Energy      =      -1.3855822891496450 [Eh]
	 Correlation Energy        =      -1.8432472568207943 [Eh]
	 Total Energy              =    -453.4861647191506222 [Eh]

	 ================> DF-SCS-MP2 Energies <==================
	-----------------------------------------------------------
	 SCS Same-Spin Scale       =       0.3333333333333333 [-]
	 SCS Opposite-Spin Scale   =       1.2000000000000000 [-]
	 SCS Same-Spin Energy      =      -0.1525549892237164 [Eh]
	 SCS Opposite-Spin Energy  =      -1.6626987469795740 [Eh]
	 SCS Correlation Energy    =      -1.8152537362032903 [Eh]
	 SCS Total Energy          =    -453.4581711985331367 [Eh]
	-----------------------------------------------------------

  Dipole Moment: [D]
     X:    -3.6177      Y:    -3.5565      Z:    -0.0008     Total:     5.0732

*** Psi4 exiting successfully. Buy a developer a beer!
