                               Psi4 1.3.2 release

  ==> Input File <==

--------------------------------------------------------------------------
#psi4
#
memory 32 gb

molecule  {
0 1
  O       -1.3945310     1.8555980     0.0000210
  O        2.9082060     0.2751580    -0.0000600
  N       -1.0895640    -0.4406340     0.0001970
  N        0.7349370     0.9985730     0.0002800
  C       -0.6489740     0.8800530    -0.0003070
  C       -0.2041810    -1.5011250     0.0000420
  C       -2.5282030    -0.6963170    -0.0000730
  C        1.2384359    -1.3317567     0.0000764
  C        1.7104040    -0.0052910    -0.0002190
  H       -0.6762750    -2.4793460     0.0001770
  H       -2.8113470    -1.2573270     0.8936330
  H       -2.8107340    -1.2584070    -0.8933430
  H       -3.0286960     0.2691590    -0.0008180
  H        1.0742980     1.9581480     0.0003170
  H        1.8167570    -2.1872720    -0.0000870
units angstrom
no_reorient  #important for SAPT in psi4, default
symmetry c1  #important for SAPT in psi4, default
}

set PROPERTIES_ORIGIN ["COM"]
properties('MP2/aug-cc-pvtz', properties = ['dipole'])
--------------------------------------------------------------------------

    Molecular point group: c1
  Charge       = 0
  Multiplicity = 1
  Basis Set: AUG-CC-PVTZ
    Blend: AUG-CC-PVTZ
  Basis Set: (AUG-CC-PVTZ AUX)
    Blend: AUG-CC-PVTZ-JKFIT

    Orbital Energies [Eh]
    ---------------------

    Doubly Occupied:

       1A    -20.548265     2A    -20.526966     3A    -15.653750
       4A    -15.626888     5A    -11.421095     6A    -11.370375
       7A    -11.355780     8A    -11.294195     9A    -11.257018
      10A     -1.430391    11A     -1.383302    12A     -1.314957
      13A     -1.245396    14A     -1.078654    15A     -0.994332
      16A     -0.939712    17A     -0.869640    18A     -0.772953
      19A     -0.754341    20A     -0.698037    21A     -0.687524
      22A     -0.659618    23A     -0.642097    24A     -0.627025
      25A     -0.616686    26A     -0.592044    27A     -0.577610
      28A     -0.554122    29A     -0.495631    30A     -0.481053
      31A     -0.440665    32A     -0.431884    33A     -0.348692

  @DF-RHF Final Energy:  -451.64415762250877

   => Energetics <=

    Nuclear Repulsion Energy =            440.3544984998087557
    One-Electron Energy =               -1488.6159151268429923
    Two-Electron Energy =                 596.6172590045252946
    Total Energy =                       -451.6441576225088284
  Basis Set: (AUG-CC-PVTZ AUX)
    Blend: AUG-CC-PVTZ-RI
    Molecular point group: c1

    Geometry (in Angstrom), charge = 0, multiplicity = 1:

       Center              X                  Y                   Z               Mass
    ------------   -----------------  -----------------  -----------------  -----------------
         O           -1.454579257617     1.815555589706     0.000019678880    15.994914619570
         O            2.848157742383     0.235115589706    -0.000061321120    15.994914619570
         N           -1.149612257617    -0.480676410294     0.000195678880    14.003074004430
         N            0.674888742383     0.958530589706     0.000278678880    14.003074004430
         C           -0.709022257617     0.840010589706    -0.000308321120    12.000000000000
         C           -0.264229257617    -1.541167410294     0.000040678880    12.000000000000
         C           -2.588251257617    -0.736359410294    -0.000074321120    12.000000000000
         C            1.178387642383    -1.371799110294     0.000075078880    12.000000000000
         C            1.650355742383    -0.045333410294    -0.000220321120    12.000000000000
         H           -0.736323257617    -2.519388410294     0.000175678880     1.007825032230
         H           -2.871395257617    -1.297369410294     0.893631678880     1.007825032230
         H           -2.870782257617    -1.298449410294    -0.893344321120     1.007825032230
         H           -3.088744257617     0.229116589706    -0.000819321120     1.007825032230
         H            1.014249742383     1.918105589706     0.000315678880     1.007825032230
         H            1.756708742383    -2.227314410294    -0.000088321120     1.007825032230

  Basis Set: AUG-CC-PVTZ
    Blend: AUG-CC-PVTZ
  Basis Set: (AUG-CC-PVTZ AUX)
    Blend: AUG-CC-PVTZ-JKFIT
	 Reference Energy          =    -451.6441576225087715 [Eh]
	 Singles Energy            =      -0.0000000000000000 [Eh]
	 Same-Spin Energy          =      -0.4594348168898133 [Eh]
	 Opposite-Spin Energy      =      -1.3871225055654945 [Eh]
	 Correlation Energy        =      -1.8465573224553078 [Eh]
	 Total Energy              =    -453.4907149449640542 [Eh]

	 ================> DF-SCS-MP2 Energies <==================
	-----------------------------------------------------------
	 SCS Same-Spin Scale       =       0.3333333333333333 [-]
	 SCS Opposite-Spin Scale   =       1.2000000000000000 [-]
	 SCS Same-Spin Energy      =      -0.1531449389632711 [Eh]
	 SCS Opposite-Spin Energy  =      -1.6645470066785935 [Eh]
	 SCS Correlation Energy    =      -1.8176919456418645 [Eh]
	 SCS Total Energy          =    -453.4618495681506261 [Eh]
	-----------------------------------------------------------

  Dipole Moment: [D]
     X:    -3.5245      Y:    -3.5893      Z:    -0.0008     Total:     5.0304

*** Psi4 exiting successfully. Buy a developer a beer!
