                               Psi4 1.3.2 release

  ==> Input File <==

--------------------------------------------------------------------------
#psi4
#
memory 32 gb

molecule  {
0 1
  O       -1.3945310     1.8555980     0.0000210
  O        2.9082060     0.2751580    -0.0000600
  N       -1.0860473    -0.4654610    -0.0442157
  N        0.7349370     0.9985730     0.0002800
  C       -0.6489740     0.8800530    -0.0003070
  C       -0.2041810    -1.5011250     0.0000420
  C       -2.5282030    -0.6963170    -0.0000730
  C        1.1391180    -1.3434170     0.0000740
  C        1.7104040    -0.0052910    -0.0002190
  H       -0.6762750    -2.4793460     0.0001770
  H       -2.8113470    -1.2573270     0.8936330
  H       -2.7741896    -1.2581618    -0.9042418
  H       -3.0286960     0.2691590    -0.0008180
  H        1.0742980     1.9581480     0.0003170
  H        1.8167570    -2.1872720    -0.0000870
units angstrom
no_reorient  #important for SAPT in psi4, default
symmetry c1  #important for SAPT in psi4, default
}

set PROPERTIES_ORIGIN ["COM"]
properties('MP2/aug-cc-pvtz', properties = ['dipole'])
--------------------------------------------------------------------------

    Molecular point group: c1
  Charge       = 0
  Multiplicity = 1
  Basis Set: AUG-CC-PVTZ
    Blend: AUG-CC-PVTZ
  Basis Set: (AUG-CC-PVTZ AUX)
    Blend: AUG-CC-PVTZ-JKFIT

    Orbital Energies [Eh]
    ---------------------

    Doubly Occupied:

       1A    -20.550048     2A    -20.537346     3A    -15.644742
       4A    -15.627374     5A    -11.422148     6A    -11.378645
       7A    -11.335177     8A    -11.290644     9A    -11.252745
      10A     -1.428791    11A     -1.387362    12A     -1.315511
      13A     -1.246677    14A     -1.089737    15A     -0.987904
      16A     -0.930506    17A     -0.873505    18A     -0.770601
      19A     -0.751292    20A     -0.700976    21A     -0.685862
      22A     -0.659848    23A     -0.643390    24A     -0.616697
      25A     -0.608296    26A     -0.600982    27A     -0.573159
      28A     -0.553886    29A     -0.503072    30A     -0.481348
      31A     -0.445565    32A     -0.433503    33A     -0.357409

  @DF-RHF Final Energy:  -451.65834437361701

   => Energetics <=

    Nuclear Repulsion Energy =            441.0852054352722007
    One-Electron Energy =               -1490.1176014181535265
    Two-Electron Energy =                 597.3740516092642565
    Total Energy =                       -451.6583443736170693
  Basis Set: (AUG-CC-PVTZ AUX)
    Blend: AUG-CC-PVTZ-RI
    Molecular point group: c1

    Geometry (in Angstrom), charge = 0, multiplicity = 1:

       Center              X                  Y                   Z               Mass
    ------------   -----------------  -----------------  -----------------  -----------------
         O           -1.445806533507     1.819421977210     0.005041199890    15.994914619570
         O            2.856930466493     0.238981977210     0.004960199890    15.994914619570
         N           -1.137322833507    -0.501637022790    -0.039195500110    14.003074004430
         N            0.683661466493     0.962396977210     0.005300199890    14.003074004430
         C           -0.700249533507     0.843876977210     0.004713199890    12.000000000000
         C           -0.255456533507    -1.537301022790     0.005062199890    12.000000000000
         C           -2.579478533507    -0.732493022790     0.004947199890    12.000000000000
         C            1.087842466493    -1.379593022790     0.005094199890    12.000000000000
         C            1.659128466493    -0.041467022790     0.004801199890    12.000000000000
         H           -0.727550533507    -2.515522022790     0.005197199890     1.007825032230
         H           -2.862622533507    -1.293503022790     0.898653199890     1.007825032230
         H           -2.825465133507    -1.294337822790    -0.899221600110     1.007825032230
         H           -3.079971533507     0.232982977210     0.004202199890     1.007825032230
         H            1.023022466493     1.921971977210     0.005337199890     1.007825032230
         H            1.765481466493    -2.223448022790     0.004933199890     1.007825032230

  Basis Set: AUG-CC-PVTZ
    Blend: AUG-CC-PVTZ
  Basis Set: (AUG-CC-PVTZ AUX)
    Blend: AUG-CC-PVTZ-JKFIT
	 Reference Energy          =    -451.6583443736170125 [Eh]
	 Singles Energy            =      -0.0000000000000000 [Eh]
	 Same-Spin Energy          =      -0.4584170497261458 [Eh]
	 Opposite-Spin Energy      =      -1.3852611747742429 [Eh]
	 Correlation Energy        =      -1.8436782245003887 [Eh]
	 Total Energy              =    -453.5020225981173780 [Eh]

	 ================> DF-SCS-MP2 Energies <==================
	-----------------------------------------------------------
	 SCS Same-Spin Scale       =       0.3333333333333333 [-]
	 SCS Opposite-Spin Scale   =       1.2000000000000000 [-]
	 SCS Same-Spin Energy      =      -0.1528056832420486 [Eh]
	 SCS Opposite-Spin Energy  =      -1.6623134097290915 [Eh]
	 SCS Correlation Energy    =      -1.8151190929711400 [Eh]
	 SCS Total Energy          =    -453.4734634665881572 [Eh]
	-----------------------------------------------------------

  Dipole Moment: [D]
     X:    -3.3425      Y:    -3.3950      Z:     0.0328     Total:     4.7644

*** Psi4 exiting successfully. Buy a developer a beer!
