                               Psi4 1.4a3.dev225

  ==> Input File <==

--------------------------------------------------------------------------
#psi4
#
memory 32 gb

molecule  {
0 1
  O       -1.4350980    -1.8086910     0.0000000
  O        2.9075840    -0.3082450     0.0000000
  N       -1.0785060     0.4619330     0.0000000
  N        0.7249750    -1.0056720    -0.0000010
  C       -0.6517050    -0.8641080     0.0000000
  C       -0.1841290     1.5083600     0.0000000
  C       -2.5245930     0.6731660     0.0000000
  C        1.1582900     1.3329580     0.0000000
  C        1.7164880    -0.0081480     0.0000000
  H       -0.6255708     2.4785249    -0.0000010
  H       -2.9690000     0.2175100    -0.8862740
  H       -2.7140630     1.7465080     0.0000000
  H       -2.9689990     0.2175090     0.8862740
  H        1.0585810    -1.9665760     0.0000000
  H        1.8360540     2.1766110     0.0000000
units angstrom
no_reorient  #important for SAPT in psi4, default
symmetry c1  #important for SAPT in psi4, default
}

set PROPERTIES_ORIGIN ["COM"]
properties('MP2/aug-cc-pvtz', properties = ['dipole'])
--------------------------------------------------------------------------

    Molecular point group: c1
  Charge       = 0
  Multiplicity = 1
  Basis Set: AUG-CC-PVTZ
    Blend: AUG-CC-PVTZ
  Basis Set: (AUG-CC-PVTZ AUX)
    Blend: AUG-CC-PVTZ-JKFIT

    Orbital Energies [Eh]
    ---------------------

    Doubly Occupied:

       1A    -20.545858     2A    -20.538505     3A    -15.644796
       4A    -15.626633     5A    -11.416149     6A    -11.379682
       7A    -11.336136     8A    -11.292742     9A    -11.253494
      10A     -1.429043    11A     -1.388800    12A     -1.312183
      13A     -1.246260    14A     -1.091665    15A     -0.989074
      16A     -0.932999    17A     -0.872281    18A     -0.772969
      19A     -0.751781    20A     -0.704519    21A     -0.686044
      22A     -0.658285    23A     -0.643816    24A     -0.610658
      25A     -0.608470    26A     -0.603251    27A     -0.578473
      28A     -0.550613    29A     -0.503183    30A     -0.480255
      31A     -0.446089    32A     -0.432899    33A     -0.358542

  @DF-RHF Final Energy:  -451.66154603093031

   => Energetics <=

    Nuclear Repulsion Energy =            441.7005805735046238
    One-Electron Energy =               -1491.3519639149881186
    Two-Electron Energy =                 597.9898373105532983
    Total Energy =                       -451.6615460309302534
  Basis Set: (AUG-CC-PVTZ AUX)
    Blend: AUG-CC-PVTZ-RI
    Molecular point group: c1

    Geometry (in Angstrom), charge = 0, multiplicity = 1:

       Center              X                  Y                   Z               Mass
    ------------   -----------------  -----------------  -----------------  -----------------
         O           -1.485406527879    -1.770138289087     0.000000119094    15.994914619570
         O            2.857275472121    -0.269692289087     0.000000119094    15.994914619570
         N           -1.128814527879     0.500485710913     0.000000119094    14.003074004430
         N            0.674666472121    -0.967119289087    -0.000000880906    14.003074004430
         C           -0.702013527879    -0.825555289087     0.000000119094    12.000000000000
         C           -0.234437527879     1.546912710913     0.000000119094    12.000000000000
         C           -2.574901527879     0.711718710913     0.000000119094    12.000000000000
         C            1.107981472121     1.371510710913     0.000000119094    12.000000000000
         C            1.666179472121     0.030404710913     0.000000119094    12.000000000000
         H           -0.675879327879     2.517077610913    -0.000000880906     1.007825032230
         H           -3.019308527879     0.256062710913    -0.886273880906     1.007825032230
         H           -2.764371527879     1.785060710913     0.000000119094     1.007825032230
         H           -3.019307527879     0.256061710913     0.886274119094     1.007825032230
         H            1.008272472121    -1.928023289087     0.000000119094     1.007825032230
         H            1.785745472121     2.215163710913     0.000000119094     1.007825032230

  Basis Set: AUG-CC-PVTZ
    Blend: AUG-CC-PVTZ
  Basis Set: (AUG-CC-PVTZ AUX)
    Blend: AUG-CC-PVTZ-JKFIT
	 Reference Energy          =    -451.6615460309303103 [Eh]
	 Singles Energy            =      -0.0000000000000000 [Eh]
	 Same-Spin Energy          =      -0.4579597369964291 [Eh]
	 Opposite-Spin Energy      =      -1.3844860572886009 [Eh]
	 Correlation Energy        =      -1.8424457942850299 [Eh]
	 Total Energy              =    -453.5039918252153370 [Eh]

	 ================> DF-SCS-MP2 Energies <==================
	-----------------------------------------------------------
	 SCS Same-Spin Scale       =       0.3333333333333333 [-]
	 SCS Opposite-Spin Scale   =       1.2000000000000000 [-]
	 SCS Same-Spin Energy      =      -0.1526532456654763 [Eh]
	 SCS Opposite-Spin Energy  =      -1.6613832687463210 [Eh]
	 SCS Correlation Energy    =      -1.8140365144117974 [Eh]
	 SCS Total Energy          =    -453.4755825453420925 [Eh]
	-----------------------------------------------------------

  Dipole Moment: [D]
     X:    -3.2192      Y:     3.5515      Z:     0.0000     Total:     4.7934

*** Psi4 exiting successfully. Buy a developer a beer!
