                               Psi4 1.3.2 release

  ==> Input File <==

--------------------------------------------------------------------------
#psi4
#
memory 32 gb

molecule  {
0 1
  O       -1.3945310     1.8555980     0.0000210
  O        2.9082060     0.2751580    -0.0000600
  N       -1.0895640    -0.4406340     0.0001970
  N        0.7349370     0.9985730     0.0002800
  C       -0.6489740     0.8800530    -0.0003070
  C       -0.2041810    -1.5011250     0.0000420
  C       -2.5282030    -0.6963170    -0.0000730
  C        1.1391180    -1.3434170     0.0000740
  C        1.7104040    -0.0052910    -0.0002190
  H       -0.6762750    -2.4793460     0.0001770
  H       -2.8113470    -1.2573270     0.8936330
  H       -2.7883905    -1.2869964    -0.8816060
  H       -3.0117106     0.2772433     0.0321517
  H        1.0742980     1.9581480     0.0003170
  H        1.8167570    -2.1872720    -0.0000870
units angstrom
no_reorient  #important for SAPT in psi4, default
symmetry c1  #important for SAPT in psi4, default
}

set PROPERTIES_ORIGIN ["COM"]
properties('MP2/aug-cc-pvtz', properties = ['dipole'])
--------------------------------------------------------------------------

    Molecular point group: c1
  Charge       = 0
  Multiplicity = 1
  Basis Set: AUG-CC-PVTZ
    Blend: AUG-CC-PVTZ
  Basis Set: (AUG-CC-PVTZ AUX)
    Blend: AUG-CC-PVTZ-JKFIT

    Orbital Energies [Eh]
    ---------------------

    Doubly Occupied:

       1A    -20.545656     2A    -20.538813     3A    -15.644011
       4A    -15.626599     5A    -11.418575     6A    -11.379855
       7A    -11.337046     8A    -11.290114     9A    -11.256166
      10A     -1.428520    11A     -1.388171    12A     -1.312398
      13A     -1.245727    14A     -1.091240    15A     -0.989791
      16A     -0.930776    17A     -0.872138    18A     -0.772328
      19A     -0.751685    20A     -0.699801    21A     -0.684981
      22A     -0.657685    23A     -0.643884    24A     -0.615520
      25A     -0.611218    26A     -0.601897    27A     -0.573378
      28A     -0.554041    29A     -0.498750    30A     -0.480038
      31A     -0.446167    32A     -0.433154    33A     -0.360468

  @DF-RHF Final Energy:  -451.65999526460257

   => Energetics <=

    Nuclear Repulsion Energy =            441.2533197406525574
    One-Electron Energy =               -1490.4654472301922397
    Two-Electron Energy =                 597.5521322249370542
    Total Energy =                       -451.6599952646025713
  Basis Set: (AUG-CC-PVTZ AUX)
    Blend: AUG-CC-PVTZ-RI
    Molecular point group: c1

    Geometry (in Angstrom), charge = 0, multiplicity = 1:

       Center              X                  Y                   Z               Mass
    ------------   -----------------  -----------------  -----------------  -----------------
         O           -1.445438100922     1.816829672721    -0.000337562357    15.994914619570
         O            2.857298899078     0.236389672721    -0.000418562357    15.994914619570
         N           -1.140471100922    -0.479402327279    -0.000161562357    14.003074004430
         N            0.684029899078     0.959804672721    -0.000078562357    14.003074004430
         C           -0.699881100922     0.841284672721    -0.000665562357    12.000000000000
         C           -0.255088100922    -1.539893327279    -0.000316562357    12.000000000000
         C           -2.579110100922    -0.735085327279    -0.000431562357    12.000000000000
         C            1.088210899078    -1.382185327279    -0.000284562357    12.000000000000
         C            1.659496899078    -0.044059327279    -0.000577562357    12.000000000000
         H           -0.727182100922    -2.518114327279    -0.000181562357     1.007825032230
         H           -2.862254100922    -1.296095327279     0.893274437643     1.007825032230
         H           -2.839297600922    -1.325764727279    -0.881964562357     1.007825032230
         H           -3.062617700922     0.238474972721     0.031793137643     1.007825032230
         H            1.023390899078     1.919379672721    -0.000041562357     1.007825032230
         H            1.765849899078    -2.226040327279    -0.000445562357     1.007825032230

  Basis Set: AUG-CC-PVTZ
    Blend: AUG-CC-PVTZ
  Basis Set: (AUG-CC-PVTZ AUX)
    Blend: AUG-CC-PVTZ-JKFIT
	 Reference Energy          =    -451.6599952646025713 [Eh]
	 Singles Energy            =      -0.0000000000000000 [Eh]
	 Same-Spin Energy          =      -0.4581135357754347 [Eh]
	 Opposite-Spin Energy      =      -1.3848933778794321 [Eh]
	 Correlation Energy        =      -1.8430069136548668 [Eh]
	 Total Energy              =    -453.5030021782574181 [Eh]

	 ================> DF-SCS-MP2 Energies <==================
	-----------------------------------------------------------
	 SCS Same-Spin Scale       =       0.3333333333333333 [-]
	 SCS Opposite-Spin Scale   =       1.2000000000000000 [-]
	 SCS Same-Spin Energy      =      -0.1527045119251449 [Eh]
	 SCS Opposite-Spin Energy  =      -1.6618720534553184 [Eh]
	 SCS Correlation Energy    =      -1.8145765653804633 [Eh]
	 SCS Total Energy          =    -453.4745718299830628 [Eh]
	-----------------------------------------------------------

  Dipole Moment: [D]
     X:    -3.2202      Y:    -3.5506      Z:     0.0211     Total:     4.7934

*** Psi4 exiting successfully. Buy a developer a beer!
