                               Psi4 1.3.2 release

  ==> Input File <==

--------------------------------------------------------------------------
#psi4
#
memory 32 gb

molecule  {
0 1
  O       -1.3945310     1.8555980     0.0000210
  O        2.9082060     0.2751580    -0.0000600
  N       -1.0895640    -0.4406340     0.0001970
  N        0.7349370     0.9985730     0.0002800
  C       -0.5275300     0.7211462    -0.0003604
  C       -0.2041810    -1.5011250     0.0000420
  C       -2.5282030    -0.6963170    -0.0000730
  C        1.1391180    -1.3434170     0.0000740
  C        1.7104040    -0.0052910    -0.0002190
  H       -0.6762750    -2.4793460     0.0001770
  H       -2.8113470    -1.2573270     0.8936330
  H       -2.8107340    -1.2584070    -0.8933430
  H       -3.0286960     0.2691590    -0.0008180
  H        1.0742980     1.9581480     0.0003170
  H        1.8167570    -2.1872720    -0.0000870
units angstrom
no_reorient  #important for SAPT in psi4, default
symmetry c1  #important for SAPT in psi4, default
}

set PROPERTIES_ORIGIN ["COM"]
properties('MP2/aug-cc-pvtz', properties = ['dipole'])
--------------------------------------------------------------------------

    Molecular point group: c1
  Charge       = 0
  Multiplicity = 1
  Basis Set: AUG-CC-PVTZ
    Blend: AUG-CC-PVTZ
  Basis Set: (AUG-CC-PVTZ AUX)
    Blend: AUG-CC-PVTZ-JKFIT

    Orbital Energies [Eh]
    ---------------------

    Doubly Occupied:

       1A    -20.552290     2A    -20.494733     3A    -15.663852
       4A    -15.647340     5A    -11.405633     6A    -11.390633
       7A    -11.347298     8A    -11.298654     9A    -11.273259
      10A     -1.431296    11A     -1.388111    12A     -1.294083
      13A     -1.224494    14A     -1.101356    15A     -1.017669
      16A     -0.949453    17A     -0.891553    18A     -0.807294
      19A     -0.769424    20A     -0.712155    21A     -0.703687
      22A     -0.672376    23A     -0.633086    24A     -0.626832
      25A     -0.616753    26A     -0.594851    27A     -0.547416
      28A     -0.534772    29A     -0.498731    30A     -0.461463
      31A     -0.414786    32A     -0.413104    33A     -0.368345

  @DF-RHF Final Energy:  -451.59934482719348

   => Energetics <=

    Nuclear Repulsion Energy =            442.7472239027605383
    One-Electron Energy =               -1493.1995735029834123
    Two-Electron Energy =                 598.8530047730295109
    Total Energy =                       -451.5993448271934767
  Basis Set: (AUG-CC-PVTZ AUX)
    Blend: AUG-CC-PVTZ-RI
    Molecular point group: c1

    Geometry (in Angstrom), charge = 0, multiplicity = 1:

       Center              X                  Y                   Z               Mass
    ------------   -----------------  -----------------  -----------------  -----------------
         O           -1.456685787554     1.831794542907     0.000024991356    15.994914619570
         O            2.846051212446     0.251354542907    -0.000056008644    15.994914619570
         N           -1.151718787554    -0.464437457093     0.000200991356    14.003074004430
         N            0.672782212446     0.974769542907     0.000283991356    14.003074004430
         C           -0.589684787554     0.697342742907    -0.000356408644    12.000000000000
         C           -0.266335787554    -1.524928457093     0.000045991356    12.000000000000
         C           -2.590357787554    -0.720120457093    -0.000069008644    12.000000000000
         C            1.076963212446    -1.367220457093     0.000077991356    12.000000000000
         C            1.648249212446    -0.029094457093    -0.000215008644    12.000000000000
         H           -0.738429787554    -2.503149457093     0.000180991356     1.007825032230
         H           -2.873501787554    -1.281130457093     0.893636991356     1.007825032230
         H           -2.872888787554    -1.282210457093    -0.893339008644     1.007825032230
         H           -3.090850787554     0.245355542907    -0.000814008644     1.007825032230
         H            1.012143212446     1.934344542907     0.000320991356     1.007825032230
         H            1.754602212446    -2.211075457093    -0.000083008644     1.007825032230

  Basis Set: AUG-CC-PVTZ
    Blend: AUG-CC-PVTZ
  Basis Set: (AUG-CC-PVTZ AUX)
    Blend: AUG-CC-PVTZ-JKFIT
	 Reference Energy          =    -451.5993448271934767 [Eh]
	 Singles Energy            =      -0.0000000000000000 [Eh]
	 Same-Spin Energy          =      -0.4603121939449029 [Eh]
	 Opposite-Spin Energy      =      -1.3894900812872981 [Eh]
	 Correlation Energy        =      -1.8498022752322010 [Eh]
	 Total Energy              =    -453.4491471024256839 [Eh]

	 ================> DF-SCS-MP2 Energies <==================
	-----------------------------------------------------------
	 SCS Same-Spin Scale       =       0.3333333333333333 [-]
	 SCS Opposite-Spin Scale   =       1.2000000000000000 [-]
	 SCS Same-Spin Energy      =      -0.1534373979816343 [Eh]
	 SCS Opposite-Spin Energy  =      -1.6673880975447577 [Eh]
	 SCS Correlation Energy    =      -1.8208254955263921 [Eh]
	 SCS Total Energy          =    -453.4201703227198550 [Eh]
	-----------------------------------------------------------

  Dipole Moment: [D]
     X:    -2.1023      Y:    -5.0615      Z:    -0.0005     Total:     5.4807

*** Psi4 exiting successfully. Buy a developer a beer!
