                               Psi4 1.3.2 release

  ==> Input File <==

--------------------------------------------------------------------------
#psi4
#
memory 32 gb

molecule  {
0 1
  O       -1.3945310     1.8555980     0.0000210
  O        2.9082060     0.2751580    -0.0000600
  N       -1.0895640    -0.4406340     0.0001970
  N        0.7349370     0.9985730     0.0002800
  C       -0.6408745     0.8077871    -0.0002952
  C       -0.2041810    -1.5011250     0.0000420
  C       -2.5282030    -0.6963170    -0.0000730
  C        1.1391180    -1.3434170     0.0000740
  C        1.7104040    -0.0052910    -0.0002190
  H       -0.6762750    -2.4793460     0.0001770
  H       -2.8113470    -1.2573270     0.8936330
  H       -2.8107340    -1.2584070    -0.8933430
  H       -3.0286960     0.2691590    -0.0008180
  H        1.1240532     1.9390722     0.0003408
  H        1.8167570    -2.1872720    -0.0000870
units angstrom
no_reorient  #important for SAPT in psi4, default
symmetry c1  #important for SAPT in psi4, default
}

set PROPERTIES_ORIGIN ["COM"]
properties('MP2/aug-cc-pvtz', properties = ['dipole'])
--------------------------------------------------------------------------

    Molecular point group: c1
  Charge       = 0
  Multiplicity = 1
  Basis Set: AUG-CC-PVTZ
    Blend: AUG-CC-PVTZ
  Basis Set: (AUG-CC-PVTZ AUX)
    Blend: AUG-CC-PVTZ-JKFIT

    Orbital Energies [Eh]
    ---------------------

    Doubly Occupied:

       1A    -20.541470     2A    -20.527460     3A    -15.654656
       4A    -15.629237     5A    -11.416000     6A    -11.380544
       7A    -11.341733     8A    -11.295323     9A    -11.264361
      10A     -1.417894    11A     -1.384009    12A     -1.304370
      13A     -1.246056    14A     -1.097359    15A     -1.004615
      16A     -0.941429    17A     -0.869650    18A     -0.785620
      19A     -0.755195    20A     -0.702987    21A     -0.693391
      22A     -0.658059    23A     -0.632713    24A     -0.615333
      25A     -0.609930    26A     -0.603843    27A     -0.574524
      28A     -0.548837    29A     -0.496803    30A     -0.467757
      31A     -0.441354    32A     -0.426330    33A     -0.367603

  @DF-RHF Final Energy:  -451.64893795978787

   => Energetics <=

    Nuclear Repulsion Energy =            441.6474867173034227
    One-Electron Energy =               -1491.1999553929833837
    Two-Electron Energy =                 597.9035307158919750
    Total Energy =                       -451.6489379597878724
  Basis Set: (AUG-CC-PVTZ AUX)
    Blend: AUG-CC-PVTZ-RI
    Molecular point group: c1

    Geometry (in Angstrom), charge = 0, multiplicity = 1:

       Center              X                  Y                   Z               Mass
    ------------   -----------------  -----------------  -----------------  -----------------
         O           -1.446292586678     1.823698366850     0.000018593645    15.994914619570
         O            2.856444413322     0.243258366850    -0.000062406355    15.994914619570
         N           -1.141325586678    -0.472533633150     0.000194593645    14.003074004430
         N            0.683175413322     0.966673366850     0.000277593645    14.003074004430
         C           -0.692636086678     0.775887466850    -0.000297606355    12.000000000000
         C           -0.255942586678    -1.533024633150     0.000039593645    12.000000000000
         C           -2.579964586678    -0.728216633150    -0.000075406355    12.000000000000
         C            1.087356413322    -1.375316633150     0.000071593645    12.000000000000
         C            1.658642413322    -0.037190633150    -0.000221406355    12.000000000000
         H           -0.728036586678    -2.511245633150     0.000174593645     1.007825032230
         H           -2.863108586678    -1.289226633150     0.893630593645     1.007825032230
         H           -2.862495586678    -1.290306633150    -0.893345406355     1.007825032230
         H           -3.080457586678     0.237259366850    -0.000820406355     1.007825032230
         H            1.072291613322     1.907172566850     0.000338393645     1.007825032230
         H            1.764995413322    -2.219171633150    -0.000089406355     1.007825032230

  Basis Set: AUG-CC-PVTZ
    Blend: AUG-CC-PVTZ
  Basis Set: (AUG-CC-PVTZ AUX)
    Blend: AUG-CC-PVTZ-JKFIT
	 Reference Energy          =    -451.6489379597878724 [Eh]
	 Singles Energy            =      -0.0000000000000000 [Eh]
	 Same-Spin Energy          =      -0.4588620411365011 [Eh]
	 Opposite-Spin Energy      =      -1.3865474409767911 [Eh]
	 Correlation Energy        =      -1.8454094821132923 [Eh]
	 Total Energy              =    -453.4943474419011409 [Eh]

	 ================> DF-SCS-MP2 Energies <==================
	-----------------------------------------------------------
	 SCS Same-Spin Scale       =       0.3333333333333333 [-]
	 SCS Opposite-Spin Scale   =       1.2000000000000000 [-]
	 SCS Same-Spin Energy      =      -0.1529540137121670 [Eh]
	 SCS Opposite-Spin Energy  =      -1.6638569291721492 [Eh]
	 SCS Correlation Energy    =      -1.8168109428843162 [Eh]
	 SCS Total Energy          =    -453.4657489026722033 [Eh]
	-----------------------------------------------------------

  Dipole Moment: [D]
     X:    -2.9957      Y:    -4.2106      Z:    -0.0007     Total:     5.1675

*** Psi4 exiting successfully. Buy a developer a beer!
