                               Psi4 1.3.2 release

  ==> Input File <==

--------------------------------------------------------------------------
#psi4
#
memory 32 gb

molecule  {
0 1
  O       -1.3945310     1.8555980     0.0000210
  O        2.9082060     0.2751580    -0.0000600
  N       -1.0895640    -0.4406340     0.0001970
  N        0.7349370     0.9985730     0.0002800
  C       -0.6489740     0.8800530    -0.0003070
  C       -0.2041810    -1.5011250     0.0000420
  C       -2.5282030    -0.6963170    -0.0000730
  C        1.1391180    -1.3434170     0.0000740
  C        1.7104040    -0.0052910    -0.0002190
  H       -0.6762750    -2.4793460     0.0001770
  H       -2.8113470    -1.2573270     0.8936330
  H       -2.8624528    -1.3613006    -1.0568608
  H       -3.0286960     0.2691590    -0.0008180
  H        1.0742980     1.9581480     0.0003170
  H        1.8167570    -2.1872720    -0.0000870
units angstrom
no_reorient  #important for SAPT in psi4, default
symmetry c1  #important for SAPT in psi4, default
}

set PROPERTIES_ORIGIN ["COM"]
properties('MP2/aug-cc-pvtz', properties = ['dipole'])
--------------------------------------------------------------------------

    Molecular point group: c1
  Charge       = 0
  Multiplicity = 1
  Basis Set: AUG-CC-PVTZ
    Blend: AUG-CC-PVTZ
  Basis Set: (AUG-CC-PVTZ AUX)
    Blend: AUG-CC-PVTZ-JKFIT

    Orbital Energies [Eh]
    ---------------------

    Doubly Occupied:

       1A    -20.546969     2A    -20.539957     3A    -15.647236
       4A    -15.627749     5A    -11.420212     6A    -11.380876
       7A    -11.337638     8A    -11.312040     9A    -11.257328
      10A     -1.429817    11A     -1.389236    12A     -1.313627
      13A     -1.246662    14A     -1.091491    15A     -0.979869
      16A     -0.931845    17A     -0.871094    18A     -0.771676
      19A     -0.751808    20A     -0.700453    21A     -0.680740
      22A     -0.658071    23A     -0.645457    24A     -0.614038
      25A     -0.603958    26A     -0.595300    27A     -0.568102
      28A     -0.549414    29A     -0.491559    30A     -0.481346
      31A     -0.447253    32A     -0.434080    33A     -0.361164

  @DF-RHF Final Energy:  -451.64039882669795

   => Energetics <=

    Nuclear Repulsion Energy =            440.3412108426728651
    One-Electron Energy =               -1488.6070956080118322
    Two-Electron Energy =                 596.6254859386410772
    Total Energy =                       -451.6403988266979468
  Basis Set: (AUG-CC-PVTZ AUX)
    Blend: AUG-CC-PVTZ-RI
    Molecular point group: c1

    Geometry (in Angstrom), charge = 0, multiplicity = 1:

       Center              X                  Y                   Z               Mass
    ------------   -----------------  -----------------  -----------------  -----------------
         O           -1.444710093781     1.817488441875     0.001327377260    15.994914619570
         O            2.858026906219     0.237048441875     0.001246377260    15.994914619570
         N           -1.139743093781    -0.478743558125     0.001503377260    14.003074004430
         N            0.684757906219     0.960463441875     0.001586377260    14.003074004430
         C           -0.699153093781     0.841943441875     0.000999377260    12.000000000000
         C           -0.254360093781    -1.539234558125     0.001348377260    12.000000000000
         C           -2.578382093781    -0.734426558125     0.001233377260    12.000000000000
         C            1.088938906219    -1.381526558125     0.001380377260    12.000000000000
         C            1.660224906219    -0.043400558125     0.001087377260    12.000000000000
         H           -0.726454093781    -2.517455558125     0.001483377260     1.007825032230
         H           -2.861526093781    -1.295436558125     0.894939377260     1.007825032230
         H           -2.912631893781    -1.399410158125    -1.055554422740     1.007825032230
         H           -3.078875093781     0.231049441875     0.000488377260     1.007825032230
         H            1.024118906219     1.920038441875     0.001623377260     1.007825032230
         H            1.766577906219    -2.225381558125     0.001219377260     1.007825032230

  Basis Set: AUG-CC-PVTZ
    Blend: AUG-CC-PVTZ
  Basis Set: (AUG-CC-PVTZ AUX)
    Blend: AUG-CC-PVTZ-JKFIT
	 Reference Energy          =    -451.6403988266979468 [Eh]
	 Singles Energy            =      -0.0000000000000000 [Eh]
	 Same-Spin Energy          =      -0.4580833211620351 [Eh]
	 Opposite-Spin Energy      =      -1.3863965419073951 [Eh]
	 Correlation Energy        =      -1.8444798630694303 [Eh]
	 Total Energy              =    -453.4848786897673563 [Eh]

	 ================> DF-SCS-MP2 Energies <==================
	-----------------------------------------------------------
	 SCS Same-Spin Scale       =       0.3333333333333333 [-]
	 SCS Opposite-Spin Scale   =       1.2000000000000000 [-]
	 SCS Same-Spin Energy      =      -0.1526944403873450 [Eh]
	 SCS Opposite-Spin Energy  =      -1.6636758502888742 [Eh]
	 SCS Correlation Energy    =      -1.8163702906762191 [Eh]
	 SCS Total Energy          =    -453.4567691173741650 [Eh]
	-----------------------------------------------------------

  Dipole Moment: [D]
     X:    -3.1039      Y:    -3.4678      Z:     0.0800     Total:     4.6547

*** Psi4 exiting successfully. Buy a developer a beer!
