                               Psi4 1.3.2 release

  ==> Input File <==

--------------------------------------------------------------------------
#psi4
#
memory 32 gb

molecule  {
0 1
  O       -1.3945310     1.8555980     0.0000210
  O        2.9082060     0.2751580    -0.0000600
  N       -1.0895640    -0.4406340     0.0001970
  N        0.7349370     0.9985730     0.0002800
  C       -0.6489740     0.8800530    -0.0003070
  C       -0.2041810    -1.5011250     0.0000420
  C       -2.5282030    -0.6963170    -0.0000730
  C        1.1391180    -1.3434170     0.0000740
  C        1.8077708     0.0175061    -0.0002061
  H       -0.6762750    -2.4793460     0.0001770
  H       -2.8113470    -1.2573270     0.8936330
  H       -2.8107340    -1.2584070    -0.8933430
  H       -3.0286960     0.2691590    -0.0008180
  H        1.0742980     1.9581480     0.0003170
  H        1.8167570    -2.1872720    -0.0000870
units angstrom
no_reorient  #important for SAPT in psi4, default
symmetry c1  #important for SAPT in psi4, default
}

set PROPERTIES_ORIGIN ["COM"]
properties('MP2/aug-cc-pvtz', properties = ['dipole'])
--------------------------------------------------------------------------

    Molecular point group: c1
  Charge       = 0
  Multiplicity = 1
  Basis Set: AUG-CC-PVTZ
    Blend: AUG-CC-PVTZ
  Basis Set: (AUG-CC-PVTZ AUX)
    Blend: AUG-CC-PVTZ-JKFIT

    Orbital Energies [Eh]
    ---------------------

    Doubly Occupied:

       1A    -20.561399     2A    -20.537524     3A    -15.634893
       4A    -15.612369     5A    -11.411127     6A    -11.380402
       7A    -11.328800     8A    -11.283866     9A    -11.253057
      10A     -1.470230    11A     -1.414550    12A     -1.303809
      13A     -1.232106    14A     -1.077033    15A     -0.981441
      16A     -0.916683    17A     -0.860160    18A     -0.763574
      19A     -0.741697    20A     -0.703081    21A     -0.677912
      22A     -0.671931    23A     -0.643559    24A     -0.622859
      25A     -0.614368    26A     -0.605043    27A     -0.573338
      28A     -0.567006    29A     -0.492707    30A     -0.477463
      31A     -0.445737    32A     -0.435553    33A     -0.355432

  @DF-RHF Final Energy:  -451.64969710169049

   => Energetics <=

    Nuclear Repulsion Energy =            440.7683712443918012
    One-Electron Energy =               -1489.5347245977472994
    Two-Electron Energy =                 597.1166562516650629
    Total Energy =                       -451.6496971016904354
  Basis Set: (AUG-CC-PVTZ AUX)
    Blend: AUG-CC-PVTZ-RI
    Molecular point group: c1

    Geometry (in Angstrom), charge = 0, multiplicity = 1:

       Center              X                  Y                   Z               Mass
    ------------   -----------------  -----------------  -----------------  -----------------
         O           -1.454393501856     1.814495303320     0.000018679221    15.994914619570
         O            2.848343498144     0.234055303320    -0.000062320779    15.994914619570
         N           -1.149426501856    -0.481736696680     0.000194679221    14.003074004430
         N            0.675074498144     0.957470303320     0.000277679221    14.003074004430
         C           -0.708836501856     0.838950303320    -0.000309320779    12.000000000000
         C           -0.264043501856    -1.542227696680     0.000039679221    12.000000000000
         C           -2.588065501856    -0.737419696680    -0.000075320779    12.000000000000
         C            1.079255498144    -1.384519696680     0.000071679221    12.000000000000
         C            1.747908298144    -0.023596596680    -0.000208420779    12.000000000000
         H           -0.736137501856    -2.520448696680     0.000174679221     1.007825032230
         H           -2.871209501856    -1.298429696680     0.893630679221     1.007825032230
         H           -2.870596501856    -1.299509696680    -0.893345320779     1.007825032230
         H           -3.088558501856     0.228056303320    -0.000820320779     1.007825032230
         H            1.014435498144     1.917045303320     0.000314679221     1.007825032230
         H            1.756894498144    -2.228374696680    -0.000089320779     1.007825032230

  Basis Set: AUG-CC-PVTZ
    Blend: AUG-CC-PVTZ
  Basis Set: (AUG-CC-PVTZ AUX)
    Blend: AUG-CC-PVTZ-JKFIT
	 Reference Energy          =    -451.6496971016904922 [Eh]
	 Singles Energy            =      -0.0000000000000000 [Eh]
	 Same-Spin Energy          =      -0.4557312093385902 [Eh]
	 Opposite-Spin Energy      =      -1.3808594090945954 [Eh]
	 Correlation Energy        =      -1.8365906184331857 [Eh]
	 Total Energy              =    -453.4862877201236984 [Eh]

	 ================> DF-SCS-MP2 Energies <==================
	-----------------------------------------------------------
	 SCS Same-Spin Scale       =       0.3333333333333333 [-]
	 SCS Opposite-Spin Scale   =       1.2000000000000000 [-]
	 SCS Same-Spin Energy      =      -0.1519104031128634 [Eh]
	 SCS Opposite-Spin Energy  =      -1.6570312909135143 [Eh]
	 SCS Correlation Energy    =      -1.8089416940263776 [Eh]
	 SCS Total Energy          =    -453.4586387957168654 [Eh]
	-----------------------------------------------------------

  Dipole Moment: [D]
     X:    -2.2029      Y:    -3.4235      Z:    -0.0010     Total:     4.0710

*** Psi4 exiting successfully. Buy a developer a beer!
