                               Psi4 1.3.2 release

  ==> Input File <==

--------------------------------------------------------------------------
#psi4
#
memory 32 gb

molecule  {
0 1
  O       -1.4445653     1.8152416    -0.0000226
  O        2.9082060     0.2751580    -0.0000600
  N       -1.0895640    -0.4406340     0.0001970
  N        0.7392433     0.9259823     0.0002366
  C       -0.6489740     0.8800530    -0.0003070
  C       -0.2041810    -1.5011250     0.0000420
  C       -2.5282030    -0.6963170    -0.0000730
  C        1.1391180    -1.3434170     0.0000740
  C        1.7104040    -0.0052910    -0.0002190
  H       -0.6762750    -2.4793460     0.0001770
  H       -2.8113470    -1.2573270     0.8936330
  H       -2.8107340    -1.2584070    -0.8933430
  H       -3.0286960     0.2691590    -0.0008180
  H        1.0742980     1.9581480     0.0003170
  H        1.8167570    -2.1872720    -0.0000870
units angstrom
no_reorient  #important for SAPT in psi4, default
symmetry c1  #important for SAPT in psi4, default
}

set PROPERTIES_ORIGIN ["COM"]
properties('MP2/aug-cc-pvtz', properties = ['dipole'])
--------------------------------------------------------------------------

    Molecular point group: c1
  Charge       = 0
  Multiplicity = 1
  Basis Set: AUG-CC-PVTZ
    Blend: AUG-CC-PVTZ
  Basis Set: (AUG-CC-PVTZ AUX)
    Blend: AUG-CC-PVTZ-JKFIT

    Orbital Energies [Eh]
    ---------------------

    Doubly Occupied:

       1A    -20.552334     2A    -20.534451     3A    -15.640847
       4A    -15.636763     5A    -11.424007     6A    -11.375615
       7A    -11.333426     8A    -11.287024     9A    -11.252653
      10A     -1.433438    11A     -1.390223    12A     -1.313897
      13A     -1.253300    14A     -1.088928    15A     -0.993327
      16A     -0.925511    17A     -0.888043    18A     -0.767931
      19A     -0.745558    20A     -0.693503    21A     -0.687621
      22A     -0.659156    23A     -0.645710    24A     -0.619129
      25A     -0.608404    26A     -0.595502    27A     -0.565722
      28A     -0.557193    29A     -0.497539    30A     -0.481616
      31A     -0.447355    32A     -0.437272    33A     -0.358437

  @DF-RHF Final Energy:  -451.64827273388221

   => Energetics <=

    Nuclear Repulsion Energy =            442.5879943388920879
    One-Electron Energy =               -1493.0896650239351402
    Two-Electron Energy =                 598.8533979511609004
    Total Energy =                       -451.6482727338822087
  Basis Set: (AUG-CC-PVTZ AUX)
    Blend: AUG-CC-PVTZ-RI
    Molecular point group: c1

    Geometry (in Angstrom), charge = 0, multiplicity = 1:

       Center              X                  Y                   Z               Mass
    ------------   -----------------  -----------------  -----------------  -----------------
         O           -1.489286971999     1.789495221646    -0.000013338125    15.994914619570
         O            2.863484328001     0.249411621646    -0.000050738125    15.994914619570
         N           -1.134285671999    -0.466380378354     0.000206261875    14.003074004430
         N            0.694521628001     0.900235921646     0.000245861875    14.003074004430
         C           -0.693695671999     0.854306621646    -0.000297738125    12.000000000000
         C           -0.248902671999    -1.526871378354     0.000051261875    12.000000000000
         C           -2.572924671999    -0.722063378354    -0.000063738125    12.000000000000
         C            1.094396328001    -1.369163378354     0.000083261875    12.000000000000
         C            1.665682328001    -0.031037378354    -0.000209738125    12.000000000000
         H           -0.720996671999    -2.505092378354     0.000186261875     1.007825032230
         H           -2.856068671999    -1.283073378354     0.893642261875     1.007825032230
         H           -2.855455671999    -1.284153378354    -0.893333738125     1.007825032230
         H           -3.073417671999     0.243412621646    -0.000808738125     1.007825032230
         H            1.029576328001     1.932401621646     0.000326261875     1.007825032230
         H            1.772035328001    -2.213018378354    -0.000077738125     1.007825032230

  Basis Set: AUG-CC-PVTZ
    Blend: AUG-CC-PVTZ
  Basis Set: (AUG-CC-PVTZ AUX)
    Blend: AUG-CC-PVTZ-JKFIT
	 Reference Energy          =    -451.6482727338822087 [Eh]
	 Singles Energy            =      -0.0000000000000000 [Eh]
	 Same-Spin Energy          =      -0.4596081504369669 [Eh]
	 Opposite-Spin Energy      =      -1.3868772714657642 [Eh]
	 Correlation Energy        =      -1.8464854219027311 [Eh]
	 Total Energy              =    -453.4947581557849503 [Eh]

	 ================> DF-SCS-MP2 Energies <==================
	-----------------------------------------------------------
	 SCS Same-Spin Scale       =       0.3333333333333333 [-]
	 SCS Opposite-Spin Scale   =       1.2000000000000000 [-]
	 SCS Same-Spin Energy      =      -0.1532027168123223 [Eh]
	 SCS Opposite-Spin Energy  =      -1.6642527257589170 [Eh]
	 SCS Correlation Energy    =      -1.8174554425712393 [Eh]
	 SCS Total Energy          =    -453.4657281764534673 [Eh]
	-----------------------------------------------------------

  Dipole Moment: [D]
     X:    -3.3178      Y:    -3.2439      Z:    -0.0007     Total:     4.6401

*** Psi4 exiting successfully. Buy a developer a beer!
