                               Psi4 1.3.2 release

  ==> Input File <==

--------------------------------------------------------------------------
#psi4
#
memory 32 gb

molecule  {
0 1
  O       -1.3945310     1.8555980     0.0000210
  O        2.9082060     0.2751580    -0.0000600
  N       -1.0895640    -0.4406340     0.0001970
  N        0.7349370     0.9985730     0.0002800
  C       -0.6499556     0.8921343    -0.0002972
  C       -0.2041810    -1.5011250     0.0000420
  C       -2.5282030    -0.6963170    -0.0000730
  C        1.1391180    -1.3434170     0.0000740
  C        1.7191271     0.0032597    -0.0002087
  H       -0.6762750    -2.4793460     0.0001770
  H       -2.8113470    -1.2573270     0.8936330
  H       -2.8107340    -1.2584070    -0.8933430
  H       -3.0286960     0.2691590    -0.0008180
  H        1.0742980     1.9581480     0.0003170
  H        1.8167570    -2.1872720    -0.0000870
units angstrom
no_reorient  #important for SAPT in psi4, default
symmetry c1  #important for SAPT in psi4, default
}

set PROPERTIES_ORIGIN ["COM"]
properties('MP2/aug-cc-pvtz', properties = ['dipole'])
--------------------------------------------------------------------------

    Molecular point group: c1
  Charge       = 0
  Multiplicity = 1
  Basis Set: AUG-CC-PVTZ
    Blend: AUG-CC-PVTZ
  Basis Set: (AUG-CC-PVTZ AUX)
    Blend: AUG-CC-PVTZ-JKFIT

    Orbital Energies [Eh]
    ---------------------

    Doubly Occupied:

       1A    -20.548105     2A    -20.540572     3A    -15.641546
       4A    -15.625587     5A    -11.418774     6A    -11.379747
       7A    -11.334641     8A    -11.288445     9A    -11.254546
      10A     -1.432587    11A     -1.395430    12A     -1.311405
      13A     -1.245862    14A     -1.087686    15A     -0.986774
      16A     -0.926519    17A     -0.872933    18A     -0.769473
      19A     -0.749914    20A     -0.699099    21A     -0.683576
      22A     -0.660330    23A     -0.646390    24A     -0.615377
      25A     -0.608814    26A     -0.603235    27A     -0.570211
      28A     -0.557853    29A     -0.498682    30A     -0.481782
      31A     -0.447231    32A     -0.435311    33A     -0.358594

  @DF-RHF Final Energy:  -451.66153060084315

   => Energetics <=

    Nuclear Repulsion Energy =            441.0782921010025461
    One-Electron Energy =               -1490.1255909973006055
    Two-Electron Energy =                 597.3857682954549091
    Total Energy =                       -451.6615306008432071
  Basis Set: (AUG-CC-PVTZ AUX)
    Blend: AUG-CC-PVTZ-RI
    Molecular point group: c1

    Geometry (in Angstrom), charge = 0, multiplicity = 1:

       Center              X                  Y                   Z               Mass
    ------------   -----------------  -----------------  -----------------  -----------------
         O           -1.445860666084     1.814701433093     0.000017993740    15.994914619570
         O            2.856876333916     0.234261433093    -0.000063006260    15.994914619570
         N           -1.140893666084    -0.481530566907     0.000193993740    14.003074004430
         N            0.683607333916     0.957676433093     0.000276993740    14.003074004430
         C           -0.701285266084     0.851237733093    -0.000300206260    12.000000000000
         C           -0.255510666084    -1.542021566907     0.000038993740    12.000000000000
         C           -2.579532666084    -0.737213566907    -0.000076006260    12.000000000000
         C            1.087788333916    -1.384313566907     0.000070993740    12.000000000000
         C            1.667797433916    -0.037636866907    -0.000211706260    12.000000000000
         H           -0.727604666084    -2.520242566907     0.000173993740     1.007825032230
         H           -2.862676666084    -1.298223566907     0.893629993740     1.007825032230
         H           -2.862063666084    -1.299303566907    -0.893346006260     1.007825032230
         H           -3.080025666084     0.228262433093    -0.000821006260     1.007825032230
         H            1.022968333916     1.917251433093     0.000313993740     1.007825032230
         H            1.765427333916    -2.228168566907    -0.000090006260     1.007825032230

  Basis Set: AUG-CC-PVTZ
    Blend: AUG-CC-PVTZ
  Basis Set: (AUG-CC-PVTZ AUX)
    Blend: AUG-CC-PVTZ-JKFIT
	 Reference Energy          =    -451.6615306008431503 [Eh]
	 Singles Energy            =      -0.0000000000000000 [Eh]
	 Same-Spin Energy          =      -0.4576190367531751 [Eh]
	 Opposite-Spin Energy      =      -1.3840617544161118 [Eh]
	 Correlation Energy        =      -1.8416807911692867 [Eh]
	 Total Energy              =    -453.5032113920124175 [Eh]

	 ================> DF-SCS-MP2 Energies <==================
	-----------------------------------------------------------
	 SCS Same-Spin Scale       =       0.3333333333333333 [-]
	 SCS Opposite-Spin Scale   =       1.2000000000000000 [-]
	 SCS Same-Spin Energy      =      -0.1525396789177250 [Eh]
	 SCS Opposite-Spin Energy  =      -1.6608741052993341 [Eh]
	 SCS Correlation Energy    =      -1.8134137842170590 [Eh]
	 SCS Total Energy          =    -453.4749443850602120 [Eh]
	-----------------------------------------------------------

  Dipole Moment: [D]
     X:    -3.1779      Y:    -3.3856      Z:    -0.0009     Total:     4.6434

*** Psi4 exiting successfully. Buy a developer a beer!
