                               Psi4 1.4a3.dev225

  ==> Input File <==

--------------------------------------------------------------------------
#psi4
#
memory 32 gb

molecule  {
0 1
  O       -1.4350980    -1.8086910     0.0000000
  O        2.9075840    -0.3082450     0.0000000
  N       -1.0785060     0.4619330     0.0000000
  N        0.7249750    -1.0056720    -0.0000010
  C       -0.6517050    -0.8641080     0.0000000
  C       -0.1841290     1.5083600     0.0000000
  C       -2.5245930     0.6731660     0.0000000
  C        1.1582900     1.3329580     0.0000000
  C        1.7164880    -0.0081480     0.0000000
  H       -0.6545619     2.5422392    -0.0000010
  H       -2.9690000     0.2175100    -0.8862740
  H       -2.7140630     1.7465080     0.0000000
  H       -2.9689990     0.2175090     0.8862740
  H        1.0585810    -1.9665760     0.0000000
  H        1.8360540     2.1766110     0.0000000
units angstrom
no_reorient  #important for SAPT in psi4, default
symmetry c1  #important for SAPT in psi4, default
}

set PROPERTIES_ORIGIN ["COM"]
properties('MP2/aug-cc-pvtz', properties = ['dipole'])
--------------------------------------------------------------------------

    Molecular point group: c1
  Charge       = 0
  Multiplicity = 1
  Basis Set: AUG-CC-PVTZ
    Blend: AUG-CC-PVTZ
  Basis Set: (AUG-CC-PVTZ AUX)
    Blend: AUG-CC-PVTZ-JKFIT

    Orbital Energies [Eh]
    ---------------------

    Doubly Occupied:

       1A    -20.546118     2A    -20.538646     3A    -15.645346
       4A    -15.626786     5A    -11.416566     6A    -11.379975
       7A    -11.343496     8A    -11.292595     9A    -11.253682
      10A     -1.429284    11A     -1.388959    12A     -1.312106
      13A     -1.246317    14A     -1.090271    15A     -0.989110
      16A     -0.927816    17A     -0.872169    18A     -0.772634
      19A     -0.751134    20A     -0.693178    21A     -0.686221
      22A     -0.658081    23A     -0.642829    24A     -0.610712
      25A     -0.607388    26A     -0.600099    27A     -0.578463
      28A     -0.550783    29A     -0.503337    30A     -0.479861
      31A     -0.446133    32A     -0.433071    33A     -0.358705

  @DF-RHF Final Energy:  -451.65881599598953

   => Energetics <=

    Nuclear Repulsion Energy =            441.3325657101278807
    One-Electron Energy =               -1490.6390236524703141
    Two-Electron Energy =                 597.6476419463529055
    Total Energy =                       -451.6588159959894710
  Basis Set: (AUG-CC-PVTZ AUX)
    Blend: AUG-CC-PVTZ-RI
    Molecular point group: c1

    Geometry (in Angstrom), charge = 0, multiplicity = 1:

       Center              X                  Y                   Z               Mass
    ------------   -----------------  -----------------  -----------------  -----------------
         O           -1.485174718313    -1.770647741444     0.000000119094    15.994914619570
         O            2.857507281687    -0.270201741444     0.000000119094    15.994914619570
         N           -1.128582718313     0.499976258556     0.000000119094    14.003074004430
         N            0.674898281687    -0.967628741444    -0.000000880906    14.003074004430
         C           -0.701781718313    -0.826064741444     0.000000119094    12.000000000000
         C           -0.234205718313     1.546403258556     0.000000119094    12.000000000000
         C           -2.574669718313     0.711209258556     0.000000119094    12.000000000000
         C            1.108213281687     1.371001258556     0.000000119094    12.000000000000
         C            1.666411281687     0.029895258556     0.000000119094    12.000000000000
         H           -0.704638618313     2.580282458556    -0.000000880906     1.007825032230
         H           -3.019076718313     0.255553258556    -0.886273880906     1.007825032230
         H           -2.764139718313     1.784551258556     0.000000119094     1.007825032230
         H           -3.019075718313     0.255552258556     0.886274119094     1.007825032230
         H            1.008504281687    -1.928532741444     0.000000119094     1.007825032230
         H            1.785977281687     2.214654258556     0.000000119094     1.007825032230

  Basis Set: AUG-CC-PVTZ
    Blend: AUG-CC-PVTZ
  Basis Set: (AUG-CC-PVTZ AUX)
    Blend: AUG-CC-PVTZ-JKFIT
	 Reference Energy          =    -451.6588159959895279 [Eh]
	 Singles Energy            =      -0.0000000000000000 [Eh]
	 Same-Spin Energy          =      -0.4581935010182072 [Eh]
	 Opposite-Spin Energy      =      -1.3850980297346427 [Eh]
	 Correlation Energy        =      -1.8432915307528499 [Eh]
	 Total Energy              =    -453.5021075267423498 [Eh]

	 ================> DF-SCS-MP2 Energies <==================
	-----------------------------------------------------------
	 SCS Same-Spin Scale       =       0.3333333333333333 [-]
	 SCS Opposite-Spin Scale   =       1.2000000000000000 [-]
	 SCS Same-Spin Energy      =      -0.1527311670060691 [Eh]
	 SCS Opposite-Spin Energy  =      -1.6621176356815712 [Eh]
	 SCS Correlation Energy    =      -1.8148488026876404 [Eh]
	 SCS Total Energy          =    -453.4736647986771914 [Eh]
	-----------------------------------------------------------

  Dipole Moment: [D]
     X:    -3.2186      Y:     3.5438      Z:     0.0000     Total:     4.7873

*** Psi4 exiting successfully. Buy a developer a beer!
