                               Psi4 1.3.2 release

  ==> Input File <==

--------------------------------------------------------------------------
#psi4
#
memory 32 gb

molecule  {
0 1
  O       -1.3945310     1.8555980     0.0000210
  O        2.9082060     0.2751580    -0.0000600
  N       -1.0948334    -0.4161185     0.0446094
  N        0.7349370     0.9985730     0.0002800
  C       -0.6489740     0.8800530    -0.0003070
  C       -0.2041810    -1.5011250     0.0000420
  C       -2.5282030    -0.6963170    -0.0000730
  C        1.1391180    -1.3434170     0.0000740
  C        1.7104040    -0.0052910    -0.0002190
  H       -0.6762750    -2.4793460     0.0001770
  H       -2.8113470    -1.2573270     0.8936330
  H       -2.8469342    -1.2579673    -0.8813559
  H       -3.0286960     0.2691590    -0.0008180
  H        1.0742980     1.9581480     0.0003170
  H        1.8167570    -2.1872720    -0.0000870
units angstrom
no_reorient  #important for SAPT in psi4, default
symmetry c1  #important for SAPT in psi4, default
}

set PROPERTIES_ORIGIN ["COM"]
properties('MP2/aug-cc-pvtz', properties = ['dipole'])
--------------------------------------------------------------------------

    Molecular point group: c1
  Charge       = 0
  Multiplicity = 1
  Basis Set: AUG-CC-PVTZ
    Blend: AUG-CC-PVTZ
  Basis Set: (AUG-CC-PVTZ AUX)
    Blend: AUG-CC-PVTZ-JKFIT

    Orbital Energies [Eh]
    ---------------------

    Doubly Occupied:

       1A    -20.541206     2A    -20.540523     3A    -15.644263
       4A    -15.625914     5A    -11.414967     6A    -11.381186
       7A    -11.339015     8A    -11.289213     9A    -11.259702
      10A     -1.428120    11A     -1.389105    12A     -1.308908
      13A     -1.244759    14A     -1.092625    15A     -0.991477
      16A     -0.929991    17A     -0.871026    18A     -0.772958
      19A     -0.753421    20A     -0.698789    21A     -0.684476
      22A     -0.656493    23A     -0.645507    24A     -0.614035
      25A     -0.611533    26A     -0.602915    27A     -0.568924
      28A     -0.554466    29A     -0.495453    30A     -0.478535
      31A     -0.446719    32A     -0.432732    33A     -0.364234

  @DF-RHF Final Energy:  -451.65939408137058

   => Energetics <=

    Nuclear Repulsion Energy =            441.1981358806751814
    One-Electron Energy =               -1490.3686733893687233
    Two-Electron Energy =                 597.5111434273229634
    Total Energy =                       -451.6593940813705785
  Basis Set: (AUG-CC-PVTZ AUX)
    Blend: AUG-CC-PVTZ-RI
    Molecular point group: c1

    Geometry (in Angstrom), charge = 0, multiplicity = 1:

       Center              X                  Y                   Z               Mass
    ------------   -----------------  -----------------  -----------------  -----------------
         O           -1.444248760760     1.813938585836    -0.005010053737    15.994914619570
         O            2.858488239240     0.233498585836    -0.005091053737    15.994914619570
         N           -1.144551160760    -0.457777914164     0.039578346263    14.003074004430
         N            0.685219239240     0.956913585836    -0.004751053737    14.003074004430
         C           -0.698691760760     0.838393585836    -0.005338053737    12.000000000000
         C           -0.253898760760    -1.542784414164    -0.004989053737    12.000000000000
         C           -2.577920760760    -0.737976414164    -0.005104053737    12.000000000000
         C            1.089400239240    -1.385076414164    -0.004957053737    12.000000000000
         C            1.660686239240    -0.046950414164    -0.005250053737    12.000000000000
         H           -0.725992760760    -2.521005414164    -0.004854053737     1.007825032230
         H           -2.861064760760    -1.298986414164     0.888601946263     1.007825032230
         H           -2.896651960760    -1.299626714164    -0.886386953737     1.007825032230
         H           -3.078413760760     0.227499585836    -0.005849053737     1.007825032230
         H            1.024580239240     1.916488585836    -0.004714053737     1.007825032230
         H            1.767039239240    -2.228931414164    -0.005118053737     1.007825032230

  Basis Set: AUG-CC-PVTZ
    Blend: AUG-CC-PVTZ
  Basis Set: (AUG-CC-PVTZ AUX)
    Blend: AUG-CC-PVTZ-JKFIT
	 Reference Energy          =    -451.6593940813705785 [Eh]
	 Singles Energy            =      -0.0000000000000000 [Eh]
	 Same-Spin Energy          =      -0.4577601783287588 [Eh]
	 Opposite-Spin Energy      =      -1.3846038954331847 [Eh]
	 Correlation Energy        =      -1.8423640737619436 [Eh]
	 Total Energy              =    -453.5017581551325065 [Eh]

	 ================> DF-SCS-MP2 Energies <==================
	-----------------------------------------------------------
	 SCS Same-Spin Scale       =       0.3333333333333333 [-]
	 SCS Opposite-Spin Scale   =       1.2000000000000000 [-]
	 SCS Same-Spin Energy      =      -0.1525867261095862 [Eh]
	 SCS Opposite-Spin Energy  =      -1.6615246745198216 [Eh]
	 SCS Correlation Energy    =      -1.8141114006294079 [Eh]
	 SCS Total Energy          =    -453.4735054820000073 [Eh]
	-----------------------------------------------------------

  Dipole Moment: [D]
     X:    -3.1136      Y:    -3.6730      Z:    -0.0351     Total:     4.8152

*** Psi4 exiting successfully. Buy a developer a beer!
