                               Psi4 1.3.2 release

  ==> Input File <==

--------------------------------------------------------------------------
#psi4
#
memory 32 gb

molecule  {
0 1
  O       -1.4281228     1.8289842     0.0000473
  O        2.9082060     0.2751580    -0.0000600
  N       -1.1353869    -0.4244531     0.0002243
  N        0.7349370     0.9985730     0.0002800
  C       -0.6489740     0.8800530    -0.0003070
  C       -0.2041810    -1.5011250     0.0000420
  C       -2.5282030    -0.6963170    -0.0000730
  C        1.1391180    -1.3434170     0.0000740
  C        1.7104040    -0.0052910    -0.0002190
  H       -0.6762750    -2.4793460     0.0001770
  H       -2.8113470    -1.2573270     0.8936330
  H       -2.8107340    -1.2584070    -0.8933430
  H       -3.0286960     0.2691590    -0.0008180
  H        1.0742980     1.9581480     0.0003170
  H        1.8167570    -2.1872720    -0.0000870
units angstrom
no_reorient  #important for SAPT in psi4, default
symmetry c1  #important for SAPT in psi4, default
}

set PROPERTIES_ORIGIN ["COM"]
properties('MP2/aug-cc-pvtz', properties = ['dipole'])
--------------------------------------------------------------------------

    Molecular point group: c1
  Charge       = 0
  Multiplicity = 1
  Basis Set: AUG-CC-PVTZ
    Blend: AUG-CC-PVTZ
  Basis Set: (AUG-CC-PVTZ AUX)
    Blend: AUG-CC-PVTZ-JKFIT

    Orbital Energies [Eh]
    ---------------------

    Doubly Occupied:

       1A    -20.543136     2A    -20.542328     3A    -15.640870
       4A    -15.630548     5A    -11.417423     6A    -11.383663
       7A    -11.339564     8A    -11.282896     9A    -11.260949
      10A     -1.427799    11A     -1.391568    12A     -1.304672
      13A     -1.249908    14A     -1.093647    15A     -0.990426
      16A     -0.925606    17A     -0.871134    18A     -0.772289
      19A     -0.754913    20A     -0.695954    21A     -0.684948
      22A     -0.660463    23A     -0.647020    24A     -0.615736
      25A     -0.614479    26A     -0.608199    27A     -0.562134
      28A     -0.554627    29A     -0.489740    30A     -0.477853
      31A     -0.449371    32A     -0.435734    33A     -0.363721

  @DF-RHF Final Energy:  -451.65658978561316

   => Energetics <=

    Nuclear Repulsion Energy =            440.9607067724924718
    One-Electron Energy =               -1489.8679610016604329
    Two-Electron Energy =                 597.2506644435546832
    Total Energy =                       -451.6565897856131642
  Basis Set: (AUG-CC-PVTZ AUX)
    Blend: AUG-CC-PVTZ-RI
    Molecular point group: c1

    Geometry (in Angstrom), charge = 0, multiplicity = 1:

       Center              X                  Y                   Z               Mass
    ------------   -----------------  -----------------  -----------------  -----------------
         O           -1.469361797306     1.791631561559     0.000039836924    15.994914619570
         O            2.866967002694     0.237805361559    -0.000067463076    15.994914619570
         N           -1.176625897306    -0.461805738441     0.000216836924    14.003074004430
         N            0.693698002694     0.961220361559     0.000272536924    14.003074004430
         C           -0.690212997306     0.842700361559    -0.000314463076    12.000000000000
         C           -0.245419997306    -1.538477638441     0.000034536924    12.000000000000
         C           -2.569441997306    -0.733669638441    -0.000080463076    12.000000000000
         C            1.097879002694    -1.380769638441     0.000066536924    12.000000000000
         C            1.669165002694    -0.042643638441    -0.000226463076    12.000000000000
         H           -0.717513997306    -2.516698638441     0.000169536924     1.007825032230
         H           -2.852585997306    -1.294679638441     0.893625536924     1.007825032230
         H           -2.851972997306    -1.295759638441    -0.893350463076     1.007825032230
         H           -3.069934997306     0.231806361559    -0.000825463076     1.007825032230
         H            1.033059002694     1.920795361559     0.000309536924     1.007825032230
         H            1.775518002694    -2.224624638441    -0.000094463076     1.007825032230

  Basis Set: AUG-CC-PVTZ
    Blend: AUG-CC-PVTZ
  Basis Set: (AUG-CC-PVTZ AUX)
    Blend: AUG-CC-PVTZ-JKFIT
	 Reference Energy          =    -451.6565897856131642 [Eh]
	 Singles Energy            =      -0.0000000000000000 [Eh]
	 Same-Spin Energy          =      -0.4579880569774364 [Eh]
	 Opposite-Spin Energy      =      -1.3850377642375586 [Eh]
	 Correlation Energy        =      -1.8430258212149950 [Eh]
	 Total Energy              =    -453.4996156068281721 [Eh]

	 ================> DF-SCS-MP2 Energies <==================
	-----------------------------------------------------------
	 SCS Same-Spin Scale       =       0.3333333333333333 [-]
	 SCS Opposite-Spin Scale   =       1.2000000000000000 [-]
	 SCS Same-Spin Energy      =      -0.1526626856591455 [Eh]
	 SCS Opposite-Spin Energy  =      -1.6620453170850704 [Eh]
	 SCS Correlation Energy    =      -1.8147080027442160 [Eh]
	 SCS Total Energy          =    -453.4712977883573899 [Eh]
	-----------------------------------------------------------

  Dipole Moment: [D]
     X:    -2.8788      Y:    -3.5101      Z:    -0.0009     Total:     4.5397

*** Psi4 exiting successfully. Buy a developer a beer!
