                               Psi4 1.3.2 release

  ==> Input File <==

--------------------------------------------------------------------------
#psi4
#
memory 32 gb

molecule  {
0 1
  O       -1.3945310     1.8555980     0.0000210
  O        2.9082060     0.2751580    -0.0000600
  N       -1.0895640    -0.4406340     0.0001970
  N        0.7349370     0.9985730     0.0002800
  C       -0.6489740     0.8800530    -0.0003070
  C       -0.2041810    -1.5011250     0.0000420
  C       -2.5282030    -0.6963170    -0.0000730
  C        1.1391180    -1.3434170     0.0000740
  C        1.7104040    -0.0052910    -0.0002190
  H       -0.6762750    -2.4793460     0.0001770
  H       -2.8113470    -1.2573270     0.8936330
  H       -2.8107340    -1.2584070    -0.8933430
  H       -3.0286960     0.2691590    -0.0008180
  H        1.0409559     1.8638702     0.0003134
  H        1.8167570    -2.1872720    -0.0000870
units angstrom
no_reorient  #important for SAPT in psi4, default
symmetry c1  #important for SAPT in psi4, default
}

set PROPERTIES_ORIGIN ["COM"]
properties('MP2/aug-cc-pvtz', properties = ['dipole'])
--------------------------------------------------------------------------

    Molecular point group: c1
  Charge       = 0
  Multiplicity = 1
  Basis Set: AUG-CC-PVTZ
    Blend: AUG-CC-PVTZ
  Basis Set: (AUG-CC-PVTZ AUX)
    Blend: AUG-CC-PVTZ-JKFIT

    Orbital Energies [Eh]
    ---------------------

    Doubly Occupied:

       1A    -20.546744     2A    -20.539986     3A    -15.644982
       4A    -15.618268     5A    -11.419529     6A    -11.380707
       7A    -11.337791     8A    -11.290447     9A    -11.256522
      10A     -1.431106    11A     -1.389750    12A     -1.313291
      13A     -1.257876    14A     -1.093008    15A     -0.991413
      16A     -0.938174    17A     -0.873816    18A     -0.786412
      19A     -0.759209    20A     -0.704350    21A     -0.686128
      22A     -0.660660    23A     -0.645499    24A     -0.616199
      25A     -0.611666    26A     -0.605064    27A     -0.573534
      28A     -0.555156    29A     -0.500279    30A     -0.480666
      31A     -0.447194    32A     -0.435448    33A     -0.361207

  @DF-RHF Final Energy:  -451.65442355739862

   => Energetics <=

    Nuclear Repulsion Energy =            441.8555550536617034
    One-Electron Energy =               -1491.5157960615413231
    Two-Electron Energy =                 598.0058174504811177
    Total Energy =                       -451.6544235573985588
  Basis Set: (AUG-CC-PVTZ AUX)
    Blend: AUG-CC-PVTZ-RI
    Molecular point group: c1

    Geometry (in Angstrom), charge = 0, multiplicity = 1:

       Center              X                  Y                   Z               Mass
    ------------   -----------------  -----------------  -----------------  -----------------
         O           -1.444857031802     1.817419550910     0.000019936159    15.994914619570
         O            2.857879968198     0.236979550910    -0.000061063841    15.994914619570
         N           -1.139890031802    -0.478812449090     0.000195936159    14.003074004430
         N            0.684610968198     0.960394550910     0.000278936159    14.003074004430
         C           -0.699300031802     0.841874550910    -0.000308063841    12.000000000000
         C           -0.254507031802    -1.539303449090     0.000040936159    12.000000000000
         C           -2.578529031802    -0.734495449090    -0.000074063841    12.000000000000
         C            1.088791968198    -1.381595449090     0.000072936159    12.000000000000
         C            1.660077968198    -0.043469449090    -0.000220063841    12.000000000000
         H           -0.726601031802    -2.517524449090     0.000175936159     1.007825032230
         H           -2.861673031802    -1.295505449090     0.893631936159     1.007825032230
         H           -2.861060031802    -1.296585449090    -0.893344063841     1.007825032230
         H           -3.079022031802     0.230980550910    -0.000819063841     1.007825032230
         H            0.990629868198     1.825691750910     0.000312336159     1.007825032230
         H            1.766430968198    -2.225450449090    -0.000088063841     1.007825032230

  Basis Set: AUG-CC-PVTZ
    Blend: AUG-CC-PVTZ
  Basis Set: (AUG-CC-PVTZ AUX)
    Blend: AUG-CC-PVTZ-JKFIT
	 Reference Energy          =    -451.6544235573986157 [Eh]
	 Singles Energy            =      -0.0000000000000000 [Eh]
	 Same-Spin Energy          =      -0.4572508765704155 [Eh]
	 Opposite-Spin Energy      =      -1.3833186664610777 [Eh]
	 Correlation Energy        =      -1.8405695430314932 [Eh]
	 Total Energy              =    -453.4949931004301220 [Eh]

	 ================> DF-SCS-MP2 Energies <==================
	-----------------------------------------------------------
	 SCS Same-Spin Scale       =       0.3333333333333333 [-]
	 SCS Opposite-Spin Scale   =       1.2000000000000000 [-]
	 SCS Same-Spin Energy      =      -0.1524169588568052 [Eh]
	 SCS Opposite-Spin Energy  =      -1.6599823997532932 [Eh]
	 SCS Correlation Energy    =      -1.8123993586100984 [Eh]
	 SCS Total Energy          =    -453.4668229160087094 [Eh]
	-----------------------------------------------------------

  Dipole Moment: [D]
     X:    -3.2803      Y:    -3.6573      Z:    -0.0009     Total:     4.9129

*** Psi4 exiting successfully. Buy a developer a beer!
