                               Psi4 1.3.2 release

  ==> Input File <==

--------------------------------------------------------------------------
#psi4
#
memory 32 gb

molecule  {
0 1
  O       -1.3945310     1.8555980     0.0000210
  O        2.9082060     0.2751580    -0.0000600
  N       -1.0895640    -0.4406340     0.0001970
  N        0.7349370     0.9985730     0.0002800
  C       -0.6605158     0.8838475    -0.0003119
  C       -0.2041810    -1.5011250     0.0000420
  C       -2.5303794    -0.6837529    -0.0000795
  C        1.1391180    -1.3434170     0.0000740
  C        1.7104040    -0.0052910    -0.0002190
  H       -0.6762750    -2.4793460     0.0001770
  H       -2.8113470    -1.2573270     0.8936330
  H       -2.8107340    -1.2584070    -0.8933430
  H       -3.0286960     0.2691590    -0.0008180
  H        1.0742980     1.9581480     0.0003170
  H        1.8167570    -2.1872720    -0.0000870
units angstrom
no_reorient  #important for SAPT in psi4, default
symmetry c1  #important for SAPT in psi4, default
}

set PROPERTIES_ORIGIN ["COM"]
properties('MP2/aug-cc-pvtz', properties = ['dipole'])
--------------------------------------------------------------------------

    Molecular point group: c1
  Charge       = 0
  Multiplicity = 1
  Basis Set: AUG-CC-PVTZ
    Blend: AUG-CC-PVTZ
  Basis Set: (AUG-CC-PVTZ AUX)
    Blend: AUG-CC-PVTZ-JKFIT

    Orbital Energies [Eh]
    ---------------------

    Doubly Occupied:

       1A    -20.548219     2A    -20.537623     3A    -15.644079
       4A    -15.624462     5A    -11.418574     6A    -11.378699
       7A    -11.337031     8A    -11.290169     9A    -11.255845
      10A     -1.432494    11A     -1.388108    12A     -1.313966
      13A     -1.242231    14A     -1.091064    15A     -0.988883
      16A     -0.930487    17A     -0.869862    18A     -0.770889
      19A     -0.751112    20A     -0.700155    21A     -0.684471
      22A     -0.658971    23A     -0.645520    24A     -0.612470
      25A     -0.610754    26A     -0.601858    27A     -0.574974
      28A     -0.555575    29A     -0.498955    30A     -0.482307
      31A     -0.445302    32A     -0.432559    33A     -0.360368

  @DF-RHF Final Energy:  -451.66058063726194

   => Energetics <=

    Nuclear Repulsion Energy =            441.1684785846856016
    One-Electron Energy =               -1490.3020465276733830
    Two-Electron Energy =                 597.4729873057259510
    Total Energy =                       -451.6605806372618872
  Basis Set: (AUG-CC-PVTZ AUX)
    Blend: AUG-CC-PVTZ-RI
    Molecular point group: c1

    Geometry (in Angstrom), charge = 0, multiplicity = 1:

       Center              X                  Y                   Z               Mass
    ------------   -----------------  -----------------  -----------------  -----------------
         O           -1.443817581199     1.815108284957     0.000020992718    15.994914619570
         O            2.858919418801     0.234668284957    -0.000060007282    15.994914619570
         N           -1.138850581199    -0.481123715043     0.000196992718    14.003074004430
         N            0.685650418801     0.958083284957     0.000279992718    14.003074004430
         C           -0.709802381199     0.843357784957    -0.000311907282    12.000000000000
         C           -0.253467581199    -1.541614715043     0.000041992718    12.000000000000
         C           -2.579665981199    -0.724242615043    -0.000079507282    12.000000000000
         C            1.089831418801    -1.383906715043     0.000073992718    12.000000000000
         C            1.661117418801    -0.045780715043    -0.000219007282    12.000000000000
         H           -0.725561581199    -2.519835715043     0.000176992718     1.007825032230
         H           -2.860633581199    -1.297816715043     0.893632992718     1.007825032230
         H           -2.860020581199    -1.298896715043    -0.893343007282     1.007825032230
         H           -3.077982581199     0.228669284957    -0.000818007282     1.007825032230
         H            1.025011418801     1.917658284957     0.000316992718     1.007825032230
         H            1.767470418801    -2.227761715043    -0.000087007282     1.007825032230

  Basis Set: AUG-CC-PVTZ
    Blend: AUG-CC-PVTZ
  Basis Set: (AUG-CC-PVTZ AUX)
    Blend: AUG-CC-PVTZ-JKFIT
	 Reference Energy          =    -451.6605806372619440 [Eh]
	 Singles Energy            =      -0.0000000000000000 [Eh]
	 Same-Spin Energy          =      -0.4578856515676933 [Eh]
	 Opposite-Spin Energy      =      -1.3845708512114490 [Eh]
	 Correlation Energy        =      -1.8424565027791422 [Eh]
	 Total Energy              =    -453.5030371400411013 [Eh]

	 ================> DF-SCS-MP2 Energies <==================
	-----------------------------------------------------------
	 SCS Same-Spin Scale       =       0.3333333333333333 [-]
	 SCS Opposite-Spin Scale   =       1.2000000000000000 [-]
	 SCS Same-Spin Energy      =      -0.1526285505225644 [Eh]
	 SCS Opposite-Spin Energy  =      -1.6614850214537387 [Eh]
	 SCS Correlation Energy    =      -1.8141135719763031 [Eh]
	 SCS Total Energy          =    -453.4746942092382369 [Eh]
	-----------------------------------------------------------

  Dipole Moment: [D]
     X:    -3.3246      Y:    -3.4863      Z:    -0.0009     Total:     4.8173

*** Psi4 exiting successfully. Buy a developer a beer!
