                               Psi4 1.4a3.dev225

  ==> Input File <==

--------------------------------------------------------------------------
#psi4
#
memory 32 gb

molecule  {
0 1
  O       -1.4350980    -1.8086910     0.0000000
  O        2.9075840    -0.3082450     0.0000000
  N       -1.0785060     0.4619330     0.0000000
  N        0.7249750    -1.0056720    -0.0000010
  C       -0.6517050    -0.8641080     0.0000000
  C       -0.1841290     1.5083600     0.0000000
  C       -2.5740680     0.6803929     0.0000000
  C        1.1582900     1.3329580     0.0000000
  C        1.7164880    -0.0081480     0.0000000
  H       -0.6338540     2.4967290    -0.0000010
  H       -2.9690000     0.2175100    -0.8862740
  H       -2.7140630     1.7465080     0.0000000
  H       -2.9689990     0.2175090     0.8862740
  H        1.0585810    -1.9665760     0.0000000
  H        1.8360540     2.1766110     0.0000000
units angstrom
no_reorient  #important for SAPT in psi4, default
symmetry c1  #important for SAPT in psi4, default
}

set PROPERTIES_ORIGIN ["COM"]
properties('MP2/aug-cc-pvtz', properties = ['dipole'])
--------------------------------------------------------------------------

    Molecular point group: c1
  Charge       = 0
  Multiplicity = 1
  Basis Set: AUG-CC-PVTZ
    Blend: AUG-CC-PVTZ
  Basis Set: (AUG-CC-PVTZ AUX)
    Blend: AUG-CC-PVTZ-JKFIT

    Orbital Energies [Eh]
    ---------------------

    Doubly Occupied:

       1A    -20.544221     2A    -20.537108     3A    -15.642939
       4A    -15.625316     5A    -11.414638     6A    -11.378373
       7A    -11.336912     8A    -11.294771     9A    -11.251760
      10A     -1.426429    11A     -1.387378    12A     -1.305896
      13A     -1.242393    14A     -1.087794    15A     -0.990945
      16A     -0.928518    17A     -0.871856    18A     -0.769985
      19A     -0.747686    20A     -0.699561    21A     -0.683823
      22A     -0.654600    23A     -0.639549    24A     -0.614922
      25A     -0.612533    26A     -0.595452    27A     -0.583581
      28A     -0.551632    29A     -0.505209    30A     -0.478426
      31A     -0.444712    32A     -0.431892    33A     -0.357332

  @DF-RHF Final Energy:  -451.65954591662876

   => Energetics <=

    Nuclear Repulsion Energy =            440.5919658045126539
    One-Electron Energy =               -1489.2267362012696594
    Two-Electron Energy =                 596.9752244801281904
    Total Energy =                       -451.6595459166287583
  Basis Set: (AUG-CC-PVTZ AUX)
    Blend: AUG-CC-PVTZ-RI
    Molecular point group: c1

    Geometry (in Angstrom), charge = 0, multiplicity = 1:

       Center              X                  Y                   Z               Mass
    ------------   -----------------  -----------------  -----------------  -----------------
         O           -1.480629996355    -1.770971888797     0.000000119094    15.994914619570
         O            2.862052003645    -0.270525888797     0.000000119094    15.994914619570
         N           -1.124037996355     0.499652111203     0.000000119094    14.003074004430
         N            0.679443003645    -0.967952888797    -0.000000880906    14.003074004430
         C           -0.697236996355    -0.826388888797     0.000000119094    12.000000000000
         C           -0.229660996355     1.546079111203     0.000000119094    12.000000000000
         C           -2.619599996355     0.718112011203     0.000000119094    12.000000000000
         C            1.112758003645     1.370677111203     0.000000119094    12.000000000000
         C            1.670956003645     0.029571111203     0.000000119094    12.000000000000
         H           -0.679385996355     2.534448111203    -0.000000880906     1.007825032230
         H           -3.014531996355     0.255229111203    -0.886273880906     1.007825032230
         H           -2.759594996355     1.784227111203     0.000000119094     1.007825032230
         H           -3.014530996355     0.255228111203     0.886274119094     1.007825032230
         H            1.013049003645    -1.928856888797     0.000000119094     1.007825032230
         H            1.790522003645     2.214330111203     0.000000119094     1.007825032230

  Basis Set: AUG-CC-PVTZ
    Blend: AUG-CC-PVTZ
  Basis Set: (AUG-CC-PVTZ AUX)
    Blend: AUG-CC-PVTZ-JKFIT
	 Reference Energy          =    -451.6595459166287583 [Eh]
	 Singles Energy            =      -0.0000000000000000 [Eh]
	 Same-Spin Energy          =      -0.4577534689978160 [Eh]
	 Opposite-Spin Energy      =      -1.3845761683467224 [Eh]
	 Correlation Energy        =      -1.8423296373445384 [Eh]
	 Total Energy              =    -453.5018755539733206 [Eh]

	 ================> DF-SCS-MP2 Energies <==================
	-----------------------------------------------------------
	 SCS Same-Spin Scale       =       0.3333333333333333 [-]
	 SCS Opposite-Spin Scale   =       1.2000000000000000 [-]
	 SCS Same-Spin Energy      =      -0.1525844896659387 [Eh]
	 SCS Opposite-Spin Energy  =      -1.6614914020160667 [Eh]
	 SCS Correlation Energy    =      -1.8140758916820054 [Eh]
	 SCS Total Energy          =    -453.4736218083107815 [Eh]
	-----------------------------------------------------------

  Dipole Moment: [D]
     X:    -3.3828      Y:     3.5829      Z:     0.0000     Total:     4.9275

*** Psi4 exiting successfully. Buy a developer a beer!
