                               Psi4 1.3.2 release

  ==> Input File <==

--------------------------------------------------------------------------
#psi4
#
memory 32 gb

molecule  {
0 1
  O       -1.3945310     1.8555980     0.0000210
  O        2.9082060     0.2751580    -0.0000600
  N       -1.0895640    -0.4406340     0.0001970
  N        0.7349370     0.9985730     0.0002800
  C       -0.6489740     0.8800530    -0.0003070
  C       -0.2041810    -1.5011250     0.0000420
  C       -2.5282030    -0.6963170    -0.0000730
  C        1.1391180    -1.3434170     0.0000740
  C        1.7277753     0.0118861    -0.0002222
  H       -0.6762750    -2.4793460     0.0001770
  H       -2.8113470    -1.2573270     0.8936330
  H       -2.8107340    -1.2584070    -0.8933430
  H       -3.0286960     0.2691590    -0.0008180
  H        1.0909932     1.9520792     0.0003102
  H        1.8167570    -2.1872720    -0.0000870
units angstrom
no_reorient  #important for SAPT in psi4, default
symmetry c1  #important for SAPT in psi4, default
}

set PROPERTIES_ORIGIN ["COM"]
properties('MP2/aug-cc-pvtz', properties = ['dipole'])
--------------------------------------------------------------------------

    Molecular point group: c1
  Charge       = 0
  Multiplicity = 1
  Basis Set: AUG-CC-PVTZ
    Blend: AUG-CC-PVTZ
  Basis Set: (AUG-CC-PVTZ AUX)
    Blend: AUG-CC-PVTZ-JKFIT

    Orbital Energies [Eh]
    ---------------------

    Doubly Occupied:

       1A    -20.544738     2A    -20.543141     3A    -15.642284
       4A    -15.625352     5A    -11.418409     6A    -11.379821
       7A    -11.333771     8A    -11.288684     9A    -11.255573
      10A     -1.428833    11A     -1.400937    12A     -1.311071
      13A     -1.246670    14A     -1.086366    15A     -0.988510
      16A     -0.926173    17A     -0.872589    18A     -0.771205
      19A     -0.748647    20A     -0.698573    21A     -0.683996
      22A     -0.659855    23A     -0.645983    24A     -0.615789
      25A     -0.608942    26A     -0.604698    27A     -0.570367
      28A     -0.558261    29A     -0.498022    30A     -0.479534
      31A     -0.447473    32A     -0.435539    33A     -0.359068

  @DF-RHF Final Energy:  -451.66144805111134

   => Energetics <=

    Nuclear Repulsion Energy =            441.1148485384379683
    One-Electron Energy =               -1490.1948434025025563
    Two-Electron Energy =                 597.4185468129534229
    Total Energy =                       -451.6614480511112788
  Basis Set: (AUG-CC-PVTZ AUX)
    Blend: AUG-CC-PVTZ-RI
    Molecular point group: c1

    Geometry (in Angstrom), charge = 0, multiplicity = 1:

       Center              X                  Y                   Z               Mass
    ------------   -----------------  -----------------  -----------------  -----------------
         O           -1.446910970478     1.815078884565     0.000020266404    15.994914619570
         O            2.855826029522     0.234638884565    -0.000060733596    15.994914619570
         N           -1.141943970478    -0.481153115435     0.000196266404    14.003074004430
         N            0.682557029522     0.958053884565     0.000279266404    14.003074004430
         C           -0.701353970478     0.839533884565    -0.000307733596    12.000000000000
         C           -0.256560970478    -1.541644115435     0.000041266404    12.000000000000
         C           -2.580582970478    -0.736836115435    -0.000073733596    12.000000000000
         C            1.086738029522    -1.383936115435     0.000073266404    12.000000000000
         C            1.675395329522    -0.028633015435    -0.000222933596    12.000000000000
         H           -0.728654970478    -2.519865115435     0.000176266404     1.007825032230
         H           -2.863726970478    -1.297846115435     0.893632266404     1.007825032230
         H           -2.863113970478    -1.298926115435    -0.893343733596     1.007825032230
         H           -3.081075970478     0.228639884565    -0.000818733596     1.007825032230
         H            1.038613229522     1.911560084565     0.000309466404     1.007825032230
         H            1.764377029522    -2.227791115435    -0.000087733596     1.007825032230

  Basis Set: AUG-CC-PVTZ
    Blend: AUG-CC-PVTZ
  Basis Set: (AUG-CC-PVTZ AUX)
    Blend: AUG-CC-PVTZ-JKFIT
	 Reference Energy          =    -451.6614480511113356 [Eh]
	 Singles Energy            =      -0.0000000000000000 [Eh]
	 Same-Spin Energy          =      -0.4574359546474462 [Eh]
	 Opposite-Spin Energy      =      -1.3838209051525465 [Eh]
	 Correlation Energy        =      -1.8412568597999928 [Eh]
	 Total Energy              =    -453.5027049109113477 [Eh]

	 ================> DF-SCS-MP2 Energies <==================
	-----------------------------------------------------------
	 SCS Same-Spin Scale       =       0.3333333333333333 [-]
	 SCS Opposite-Spin Scale   =       1.2000000000000000 [-]
	 SCS Same-Spin Energy      =      -0.1524786515491487 [Eh]
	 SCS Opposite-Spin Energy  =      -1.6605850861830558 [Eh]
	 SCS Correlation Energy    =      -1.8130637377322045 [Eh]
	 SCS Total Energy          =    -453.4745117888435288 [Eh]
	-----------------------------------------------------------

  Dipole Moment: [D]
     X:    -3.0422      Y:    -3.4587      Z:    -0.0009     Total:     4.6063

*** Psi4 exiting successfully. Buy a developer a beer!
