                               Psi4 1.3.2 release

  ==> Input File <==

--------------------------------------------------------------------------
#psi4
#
memory 32 gb

molecule  {
0 1
  O       -1.3945310     1.8555980     0.0000210
  O        2.9082060     0.2751580    -0.0000600
  N       -1.0895640    -0.4406340     0.0001970
  N        0.7349370     0.9985730     0.0002800
  C       -0.6489740     0.8800530    -0.0003070
  C       -0.2041810    -1.5011250     0.0000420
  C       -2.5282030    -0.6963170    -0.0000730
  C        1.1391180    -1.3434170     0.0000740
  C        1.7104040    -0.0052910    -0.0002190
  H       -0.6762750    -2.4793460     0.0001770
  H       -2.8113470    -1.2573270     0.8936330
  H       -2.7770982    -1.3010234    -0.8753339
  H       -3.0029956     0.2808412     0.0486243
  H        1.0742980     1.9581480     0.0003170
  H        1.8167570    -2.1872720    -0.0000870
units angstrom
no_reorient  #important for SAPT in psi4, default
symmetry c1  #important for SAPT in psi4, default
}

set PROPERTIES_ORIGIN ["COM"]
properties('MP2/aug-cc-pvtz', properties = ['dipole'])
--------------------------------------------------------------------------

    Molecular point group: c1
  Charge       = 0
  Multiplicity = 1
  Basis Set: AUG-CC-PVTZ
    Blend: AUG-CC-PVTZ
  Basis Set: (AUG-CC-PVTZ AUX)
    Blend: AUG-CC-PVTZ-JKFIT

    Orbital Energies [Eh]
    ---------------------

    Doubly Occupied:

       1A    -20.545738     2A    -20.538814     3A    -15.643778
       4A    -15.626611     5A    -11.418592     6A    -11.379860
       7A    -11.337000     8A    -11.290180     9A    -11.256172
      10A     -1.428600    11A     -1.388193    12A     -1.312432
      13A     -1.245771    14A     -1.091279    15A     -0.989894
      16A     -0.930824    17A     -0.872039    18A     -0.772513
      19A     -0.751429    20A     -0.699784    21A     -0.684904
      22A     -0.657629    23A     -0.643728    24A     -0.616744
      25A     -0.610943    26A     -0.601678    27A     -0.573877
      28A     -0.553897    29A     -0.498351    30A     -0.480050
      31A     -0.446182    32A     -0.433199    33A     -0.360374

  @DF-RHF Final Energy:  -451.65937993587869

   => Energetics <=

    Nuclear Repulsion Energy =            441.2929785841279227
    One-Electron Energy =               -1490.5426053583860266
    Two-Electron Energy =                 597.5902468383794712
    Total Energy =                       -451.6593799358786328
  Basis Set: (AUG-CC-PVTZ AUX)
    Blend: AUG-CC-PVTZ-RI
    Molecular point group: c1

    Geometry (in Angstrom), charge = 0, multiplicity = 1:

       Center              X                  Y                   Z               Mass
    ------------   -----------------  -----------------  -----------------  -----------------
         O           -1.445598077036     1.816913062629    -0.000519426413    15.994914619570
         O            2.857138922964     0.236473062629    -0.000600426413    15.994914619570
         N           -1.140631077036    -0.479318937371    -0.000343426413    14.003074004430
         N            0.683869922964     0.959888062629    -0.000260426413    14.003074004430
         C           -0.700041077036     0.841368062629    -0.000847426413    12.000000000000
         C           -0.255248077036    -1.539809937371    -0.000498426413    12.000000000000
         C           -2.579270077036    -0.735001937371    -0.000613426413    12.000000000000
         C            1.088050922964    -1.382101937371    -0.000466426413    12.000000000000
         C            1.659336922964    -0.043975937371    -0.000759426413    12.000000000000
         H           -0.727342077036    -2.518030937371    -0.000363426413     1.007825032230
         H           -2.862414077036    -1.296011937371     0.893092573587     1.007825032230
         H           -2.828165277036    -1.339708337371    -0.875874326413     1.007825032230
         H           -3.054062677036     0.242156262629     0.048083873587     1.007825032230
         H            1.023230922964     1.919463062629    -0.000223426413     1.007825032230
         H            1.765689922964    -2.225956937371    -0.000627426413     1.007825032230

  Basis Set: AUG-CC-PVTZ
    Blend: AUG-CC-PVTZ
  Basis Set: (AUG-CC-PVTZ AUX)
    Blend: AUG-CC-PVTZ-JKFIT
	 Reference Energy          =    -451.6593799358786896 [Eh]
	 Singles Energy            =      -0.0000000000000000 [Eh]
	 Same-Spin Energy          =      -0.4581588423075924 [Eh]
	 Opposite-Spin Energy      =      -1.3849505372652287 [Eh]
	 Correlation Energy        =      -1.8431093795728211 [Eh]
	 Total Energy              =    -453.5024893154514984 [Eh]

	 ================> DF-SCS-MP2 Energies <==================
	-----------------------------------------------------------
	 SCS Same-Spin Scale       =       0.3333333333333333 [-]
	 SCS Opposite-Spin Scale   =       1.2000000000000000 [-]
	 SCS Same-Spin Energy      =      -0.1527196141025308 [Eh]
	 SCS Opposite-Spin Energy  =      -1.6619406447182743 [Eh]
	 SCS Correlation Energy    =      -1.8146602588208052 [Eh]
	 SCS Total Energy          =    -453.4740401946995121 [Eh]
	-----------------------------------------------------------

  Dipole Moment: [D]
     X:    -3.2123      Y:    -3.5556      Z:     0.0323     Total:     4.7919

*** Psi4 exiting successfully. Buy a developer a beer!
