                               Psi4 1.4a3.dev225

  ==> Input File <==

--------------------------------------------------------------------------
#psi4
#
memory 32 gb

molecule  {
0 1
  O       -1.4350980    -1.8086910     0.0000000
  O        2.9075840    -0.3082450     0.0000000
  N       -1.0785060     0.4619330     0.0000000
  N        0.7249750    -1.0056720    -0.0000010
  C       -0.6517050    -0.8641080     0.0000000
  C       -0.1841290     1.5083600     0.0000000
  C       -2.5245930     0.6731660     0.0000000
  C        1.1582900     1.3329580     0.0000000
  C        1.7357013    -0.0543091     0.0000000
  H       -0.6338540     2.4967290    -0.0000010
  H       -2.9690000     0.2175100    -0.8862740
  H       -2.7140630     1.7465080     0.0000000
  H       -2.9689990     0.2175090     0.8862740
  H        1.0585810    -1.9665760     0.0000000
  H        1.8360540     2.1766110     0.0000000
units angstrom
no_reorient  #important for SAPT in psi4, default
symmetry c1  #important for SAPT in psi4, default
}

set PROPERTIES_ORIGIN ["COM"]
properties('MP2/aug-cc-pvtz', properties = ['dipole'])
--------------------------------------------------------------------------

    Molecular point group: c1
  Charge       = 0
  Multiplicity = 1
  Basis Set: AUG-CC-PVTZ
    Blend: AUG-CC-PVTZ
  Basis Set: (AUG-CC-PVTZ AUX)
    Blend: AUG-CC-PVTZ-JKFIT

    Orbital Energies [Eh]
    ---------------------

    Doubly Occupied:

       1A    -20.546611     2A    -20.543912     3A    -15.641046
       4A    -15.627620     5A    -11.417539     6A    -11.379834
       7A    -11.330865     8A    -11.290518     9A    -11.252790
      10A     -1.431947    11A     -1.406922    12A     -1.310634
      13A     -1.252960    14A     -1.081734    15A     -0.987697
      16A     -0.922657    17A     -0.877653    18A     -0.771647
      19A     -0.745897    20A     -0.698659    21A     -0.685135
      22A     -0.663231    23A     -0.645782    24A     -0.614346
      25A     -0.606770    26A     -0.603408    27A     -0.576430
      28A     -0.556081    29A     -0.501202    30A     -0.479410
      31A     -0.447331    32A     -0.438128    33A     -0.354948

  @DF-RHF Final Energy:  -451.66112663274168

   => Energetics <=

    Nuclear Repulsion Energy =            441.6086525574302755
    One-Electron Energy =               -1491.1568696902302236
    Two-Electron Energy =                 597.8870905000582070
    Total Energy =                       -451.6611266327416843
  Basis Set: (AUG-CC-PVTZ AUX)
    Blend: AUG-CC-PVTZ-RI
    Molecular point group: c1

    Geometry (in Angstrom), charge = 0, multiplicity = 1:

       Center              X                  Y                   Z               Mass
    ------------   -----------------  -----------------  -----------------  -----------------
         O           -1.487169511239    -1.765889049061     0.000000119094    15.994914619570
         O            2.855512488761    -0.265443049061     0.000000119094    15.994914619570
         N           -1.130577511239     0.504734950939     0.000000119094    14.003074004430
         N            0.672903488761    -0.962870049061    -0.000000880906    14.003074004430
         C           -0.703776511239    -0.821306049061     0.000000119094    12.000000000000
         C           -0.236200511239     1.551161950939     0.000000119094    12.000000000000
         C           -2.576664511239     0.715967950939     0.000000119094    12.000000000000
         C            1.106218488761     1.375759950939     0.000000119094    12.000000000000
         C            1.683629788761    -0.011507149061     0.000000119094    12.000000000000
         H           -0.685925511239     2.539530950939    -0.000000880906     1.007825032230
         H           -3.021071511239     0.260311950939    -0.886273880906     1.007825032230
         H           -2.766134511239     1.789309950939     0.000000119094     1.007825032230
         H           -3.021070511239     0.260310950939     0.886274119094     1.007825032230
         H            1.006509488761    -1.923774049061     0.000000119094     1.007825032230
         H            1.783982488761     2.219412950939     0.000000119094     1.007825032230

  Basis Set: AUG-CC-PVTZ
    Blend: AUG-CC-PVTZ
  Basis Set: (AUG-CC-PVTZ AUX)
    Blend: AUG-CC-PVTZ-JKFIT
	 Reference Energy          =    -451.6611266327416843 [Eh]
	 Singles Energy            =      -0.0000000000000000 [Eh]
	 Same-Spin Energy          =      -0.4570286845142291 [Eh]
	 Opposite-Spin Energy      =      -1.3831048024519177 [Eh]
	 Correlation Energy        =      -1.8401334869661468 [Eh]
	 Total Energy              =    -453.5012601197078084 [Eh]

	 ================> DF-SCS-MP2 Energies <==================
	-----------------------------------------------------------
	 SCS Same-Spin Scale       =       0.3333333333333333 [-]
	 SCS Opposite-Spin Scale   =       1.2000000000000000 [-]
	 SCS Same-Spin Energy      =      -0.1523428948380763 [Eh]
	 SCS Opposite-Spin Energy  =      -1.6597257629423012 [Eh]
	 SCS Correlation Energy    =      -1.8120686577803775 [Eh]
	 SCS Total Energy          =    -453.4731952905220851 [Eh]
	-----------------------------------------------------------

  Dipole Moment: [D]
     X:    -2.9791      Y:     3.3179      Z:     0.0000     Total:     4.4591

*** Psi4 exiting successfully. Buy a developer a beer!
