                               Psi4 1.3.2 release

  ==> Input File <==

--------------------------------------------------------------------------
#psi4
#
memory 32 gb

molecule  {
0 1
  O       -1.3945310     1.8555980     0.0000210
  O        2.9082060     0.2751580    -0.0000600
  N       -1.0895640    -0.4406340     0.0001970
  N        0.7349370     0.9985730     0.0002800
  C       -0.6489740     0.8800530    -0.0003070
  C       -0.2041810    -1.5011250     0.0000420
  C       -2.5282030    -0.6963170    -0.0000730
  C        1.1391180    -1.3434170     0.0000740
  C        1.7104040    -0.0052910    -0.0002190
  H       -0.6762750    -2.4793460     0.0001770
  H       -2.8113470    -1.2573270     0.8936330
  H       -2.7590152    -1.1555134    -0.7298252
  H       -3.0286960     0.2691590    -0.0008180
  H        1.0742980     1.9581480     0.0003170
  H        1.8167570    -2.1872720    -0.0000870
units angstrom
no_reorient  #important for SAPT in psi4, default
symmetry c1  #important for SAPT in psi4, default
}

set PROPERTIES_ORIGIN ["COM"]
properties('MP2/aug-cc-pvtz', properties = ['dipole'])
--------------------------------------------------------------------------

    Molecular point group: c1
  Charge       = 0
  Multiplicity = 1
  Basis Set: AUG-CC-PVTZ
    Blend: AUG-CC-PVTZ
  Basis Set: (AUG-CC-PVTZ AUX)
    Blend: AUG-CC-PVTZ-JKFIT

    Orbital Energies [Eh]
    ---------------------

    Doubly Occupied:

       1A    -20.544740     2A    -20.538205     3A    -15.643058
       4A    -15.625976     5A    -11.417652     6A    -11.379316
       7A    -11.337062     8A    -11.265992     9A    -11.255522
      10A     -1.427661    11A     -1.387555    12A     -1.312304
      13A     -1.245631    14A     -1.092920    15A     -1.011137
      16A     -0.930141    17A     -0.875813    18A     -0.775358
      19A     -0.754793    20A     -0.701811    21A     -0.694989
      22A     -0.659250    23A     -0.644313    24A     -0.632057
      25A     -0.610508    26A     -0.601736    27A     -0.573887
      28A     -0.555357    29A     -0.503211    30A     -0.479297
      31A     -0.445548    32A     -0.432536    33A     -0.360534

  @DF-RHF Final Energy:  -451.62634687112478

   => Energetics <=

    Nuclear Repulsion Energy =            442.2336278654364605
    One-Electron Energy =               -1492.2882089883628396
    Two-Electron Energy =                 598.4282342518015412
    Total Energy =                       -451.6263468711247242
  Basis Set: (AUG-CC-PVTZ AUX)
    Blend: AUG-CC-PVTZ-RI
    Molecular point group: c1

    Geometry (in Angstrom), charge = 0, multiplicity = 1:

       Center              X                  Y                   Z               Mass
    ------------   -----------------  -----------------  -----------------  -----------------
         O           -1.445537169165     1.815842990634    -0.001287562513    15.994914619570
         O            2.857199830835     0.235402990634    -0.001368562513    15.994914619570
         N           -1.140570169165    -0.480389009366    -0.001111562513    14.003074004430
         N            0.683930830835     0.958817990634    -0.001028562513    14.003074004430
         C           -0.699980169165     0.840297990634    -0.001615562513    12.000000000000
         C           -0.255187169165    -1.540880009366    -0.001266562513    12.000000000000
         C           -2.579209169165    -0.736072009366    -0.001381562513    12.000000000000
         C            1.088111830835    -1.383172009366    -0.001234562513    12.000000000000
         C            1.659397830835    -0.045046009366    -0.001527562513    12.000000000000
         H           -0.727281169165    -2.519101009366    -0.001131562513     1.007825032230
         H           -2.862353169165    -1.297082009366     0.892324437487     1.007825032230
         H           -2.810021369165    -1.195268409366    -0.731133762513     1.007825032230
         H           -3.079702169165     0.229403990634    -0.002126562513     1.007825032230
         H            1.023291830835     1.918392990634    -0.000991562513     1.007825032230
         H            1.765750830835    -2.227027009366    -0.001395562513     1.007825032230

  Basis Set: AUG-CC-PVTZ
    Blend: AUG-CC-PVTZ
  Basis Set: (AUG-CC-PVTZ AUX)
    Blend: AUG-CC-PVTZ-JKFIT
	 Reference Energy          =    -451.6263468711247810 [Eh]
	 Singles Energy            =      -0.0000000000000000 [Eh]
	 Same-Spin Energy          =      -0.4581665278730498 [Eh]
	 Opposite-Spin Energy      =      -1.3842041749002578 [Eh]
	 Correlation Energy        =      -1.8423707027733076 [Eh]
	 Total Energy              =    -453.4687175738980613 [Eh]

	 ================> DF-SCS-MP2 Energies <==================
	-----------------------------------------------------------
	 SCS Same-Spin Scale       =       0.3333333333333333 [-]
	 SCS Opposite-Spin Scale   =       1.2000000000000000 [-]
	 SCS Same-Spin Energy      =      -0.1527221759576833 [Eh]
	 SCS Opposite-Spin Energy  =      -1.6610450098803093 [Eh]
	 SCS Correlation Energy    =      -1.8137671858379927 [Eh]
	 SCS Total Energy          =    -453.4401140569627842 [Eh]
	-----------------------------------------------------------

  Dipole Moment: [D]
     X:    -3.3047      Y:    -3.5729      Z:    -0.0339     Total:     4.8670

*** Psi4 exiting successfully. Buy a developer a beer!
