                               Psi4 1.3.2 release

  ==> Input File <==

--------------------------------------------------------------------------
#psi4
#
memory 32 gb

molecule  {
0 1
  O       -1.4114431     1.8424377     0.0000066
  O        2.9082060     0.2751580    -0.0000600
  N       -1.0895640    -0.4406340     0.0001970
  N        0.7367947     0.9744024     0.0002657
  C       -0.6489740     0.8800530    -0.0003070
  C       -0.2041810    -1.5011250     0.0000420
  C       -2.5282030    -0.6963170    -0.0000730
  C        1.1391180    -1.3434170     0.0000740
  C        1.7104040    -0.0052910    -0.0002190
  H       -0.6762750    -2.4793460     0.0001770
  H       -2.8113470    -1.2573270     0.8936330
  H       -2.8107340    -1.2584070    -0.8933430
  H       -3.0286960     0.2691590    -0.0008180
  H        1.0742980     1.9581480     0.0003170
  H        1.8167570    -2.1872720    -0.0000870
units angstrom
no_reorient  #important for SAPT in psi4, default
symmetry c1  #important for SAPT in psi4, default
}

set PROPERTIES_ORIGIN ["COM"]
properties('MP2/aug-cc-pvtz', properties = ['dipole'])
--------------------------------------------------------------------------

    Molecular point group: c1
  Charge       = 0
  Multiplicity = 1
  Basis Set: AUG-CC-PVTZ
    Blend: AUG-CC-PVTZ
  Basis Set: (AUG-CC-PVTZ AUX)
    Blend: AUG-CC-PVTZ-JKFIT

    Orbital Energies [Eh]
    ---------------------

    Doubly Occupied:

       1A    -20.547786     2A    -20.537366     3A    -15.643245
       4A    -15.630063     5A    -11.420214     6A    -11.378476
       7A    -11.335915     8A    -11.288998     9A    -11.254975
      10A     -1.429927    11A     -1.388713    12A     -1.312645
      13A     -1.248352    14A     -1.090379    15A     -0.990524
      16A     -0.928944    17A     -0.877810    18A     -0.770162
      19A     -0.750270    20A     -0.697767    21A     -0.685869
      22A     -0.658219    23A     -0.644846    24A     -0.616322
      25A     -0.609650    26A     -0.600130    27A     -0.570070
      28A     -0.555143    29A     -0.498797    30A     -0.480528
      31A     -0.446867    32A     -0.434597    33A     -0.359900

  @DF-RHF Final Energy:  -451.65857087751687

   => Energetics <=

    Nuclear Repulsion Energy =            441.6298460147284572
    One-Electron Energy =               -1491.2098930737840874
    Two-Electron Energy =                 597.9214761815388783
    Total Energy =                       -451.6585708775168087
  Basis Set: (AUG-CC-PVTZ AUX)
    Blend: AUG-CC-PVTZ-RI
    Molecular point group: c1

    Geometry (in Angstrom), charge = 0, multiplicity = 1:

       Center              X                  Y                   Z               Mass
    ------------   -----------------  -----------------  -----------------  -----------------
         O           -1.460095963095     1.807860762378     0.000008923438    15.994914619570
         O            2.859553136905     0.240581062378    -0.000057676562    15.994914619570
         N           -1.138216863095    -0.475210937622     0.000199323438    14.003074004430
         N            0.688141836905     0.939825462378     0.000268023438    14.003074004430
         C           -0.697626863095     0.845476062378    -0.000304676562    12.000000000000
         C           -0.252833863095    -1.535701937622     0.000044323438    12.000000000000
         C           -2.576855863095    -0.730893937622    -0.000070676562    12.000000000000
         C            1.090465136905    -1.377993937622     0.000076323438    12.000000000000
         C            1.661751136905    -0.039867937622    -0.000216676562    12.000000000000
         H           -0.724927863095    -2.513922937622     0.000179323438     1.007825032230
         H           -2.859999863095    -1.291903937622     0.893635323438     1.007825032230
         H           -2.859386863095    -1.292983937622    -0.893340676562     1.007825032230
         H           -3.077348863095     0.234582062378    -0.000815676562     1.007825032230
         H            1.025645136905     1.923571062378     0.000319323438     1.007825032230
         H            1.768104136905    -2.221848937622    -0.000084676562     1.007825032230

  Basis Set: AUG-CC-PVTZ
    Blend: AUG-CC-PVTZ
  Basis Set: (AUG-CC-PVTZ AUX)
    Blend: AUG-CC-PVTZ-JKFIT
	 Reference Energy          =    -451.6585708775168655 [Eh]
	 Singles Energy            =      -0.0000000000000000 [Eh]
	 Same-Spin Energy          =      -0.4585039739206689 [Eh]
	 Opposite-Spin Energy      =      -1.3853513875605679 [Eh]
	 Correlation Energy        =      -1.8438553614812367 [Eh]
	 Total Energy              =    -453.5024262389981118 [Eh]

	 ================> DF-SCS-MP2 Energies <==================
	-----------------------------------------------------------
	 SCS Same-Spin Scale       =       0.3333333333333333 [-]
	 SCS Opposite-Spin Scale   =       1.2000000000000000 [-]
	 SCS Same-Spin Energy      =      -0.1528346579735563 [Eh]
	 SCS Opposite-Spin Energy  =      -1.6624216650726813 [Eh]
	 SCS Correlation Energy    =      -1.8152563230462375 [Eh]
	 SCS Total Energy          =    -453.4738272005631075 [Eh]
	-----------------------------------------------------------

  Dipole Moment: [D]
     X:    -3.2604      Y:    -3.4396      Z:    -0.0008     Total:     4.7393

*** Psi4 exiting successfully. Buy a developer a beer!
