                               Psi4 1.3.2 release

  ==> Input File <==

--------------------------------------------------------------------------
#psi4
#
memory 32 gb

molecule  {
0 1
  O       -1.3945310     1.8555980     0.0000210
  O        2.9082060     0.2751580    -0.0000600
  N       -1.0895640    -0.4406340     0.0001970
  N        0.7349370     0.9985730     0.0002800
  C       -0.6478870     0.8679808    -0.0003051
  C       -0.2041810    -1.5011250     0.0000420
  C       -2.5282030    -0.6963170    -0.0000730
  C        1.1391180    -1.3434170     0.0000740
  C        1.7104040    -0.0052910    -0.0002190
  H       -0.6762750    -2.4793460     0.0001770
  H       -2.8113470    -1.2573270     0.8936330
  H       -2.8107340    -1.2584070    -0.8933430
  H       -3.0286960     0.2691590    -0.0008180
  H        1.0826588     1.9551500     0.0003210
  H        1.8167570    -2.1872720    -0.0000870
units angstrom
no_reorient  #important for SAPT in psi4, default
symmetry c1  #important for SAPT in psi4, default
}

set PROPERTIES_ORIGIN ["COM"]
properties('MP2/aug-cc-pvtz', properties = ['dipole'])
--------------------------------------------------------------------------

    Molecular point group: c1
  Charge       = 0
  Multiplicity = 1
  Basis Set: AUG-CC-PVTZ
    Blend: AUG-CC-PVTZ
  Basis Set: (AUG-CC-PVTZ AUX)
    Blend: AUG-CC-PVTZ-JKFIT

    Orbital Energies [Eh]
    ---------------------

    Doubly Occupied:

       1A    -20.542498     2A    -20.539246     3A    -15.646264
       4A    -15.626974     5A    -11.418206     6A    -11.379956
       7A    -11.337932     8A    -11.290884     9A    -11.257515
      10A     -1.424796    11A     -1.387316    12A     -1.312304
      13A     -1.245896    14A     -1.092224    15A     -0.992007
      16A     -0.932596    17A     -0.871893    18A     -0.774158
      19A     -0.752760    20A     -0.700191    21A     -0.686367
      22A     -0.656318    23A     -0.643010    24A     -0.614870
      25A     -0.610694    26A     -0.602627    27A     -0.572678
      28A     -0.552740    29A     -0.499383    30A     -0.477862
      31A     -0.445769    32A     -0.432043    33A     -0.361902

  @DF-RHF Final Energy:  -451.65981750706879

   => Energetics <=

    Nuclear Repulsion Energy =            441.2452001161327644
    One-Electron Energy =               -1490.4462775731251440
    Two-Electron Energy =                 597.5412599499236421
    Total Energy =                       -451.6598175070687375
  Basis Set: (AUG-CC-PVTZ AUX)
    Blend: AUG-CC-PVTZ-RI
    Molecular point group: c1

    Geometry (in Angstrom), charge = 0, multiplicity = 1:

       Center              X                  Y                   Z               Mass
    ------------   -----------------  -----------------  -----------------  -----------------
         O           -1.445293972039     1.817839029684     0.000019694500    15.994914619570
         O            2.857443027961     0.237399029684    -0.000061305500    15.994914619570
         N           -1.140326972039    -0.478392970316     0.000195694500    14.003074004430
         N            0.684174027961     0.960814029684     0.000278694500    14.003074004430
         C           -0.698649972039     0.830221829684    -0.000306405500    12.000000000000
         C           -0.254943972039    -1.538883970316     0.000040694500    12.000000000000
         C           -2.578965972039    -0.734075970316    -0.000074305500    12.000000000000
         C            1.088355027961    -1.381175970316     0.000072694500    12.000000000000
         C            1.659641027961    -0.043049970316    -0.000220305500    12.000000000000
         H           -0.727037972039    -2.517104970316     0.000175694500     1.007825032230
         H           -2.862109972039    -1.295085970316     0.893631694500     1.007825032230
         H           -2.861496972039    -1.296165970316    -0.893344305500     1.007825032230
         H           -3.079458972039     0.231400029684    -0.000819305500     1.007825032230
         H            1.031895827961     1.917391029684     0.000319694500     1.007825032230
         H            1.765994027961    -2.225030970316    -0.000088305500     1.007825032230

  Basis Set: AUG-CC-PVTZ
    Blend: AUG-CC-PVTZ
  Basis Set: (AUG-CC-PVTZ AUX)
    Blend: AUG-CC-PVTZ-JKFIT
	 Reference Energy          =    -451.6598175070687944 [Eh]
	 Singles Energy            =      -0.0000000000000000 [Eh]
	 Same-Spin Energy          =      -0.4581754863716948 [Eh]
	 Opposite-Spin Energy      =      -1.3850748690053976 [Eh]
	 Correlation Energy        =      -1.8432503553770925 [Eh]
	 Total Energy              =    -453.5030678624459028 [Eh]

	 ================> DF-SCS-MP2 Energies <==================
	-----------------------------------------------------------
	 SCS Same-Spin Scale       =       0.3333333333333333 [-]
	 SCS Opposite-Spin Scale   =       1.2000000000000000 [-]
	 SCS Same-Spin Energy      =      -0.1527251621238983 [Eh]
	 SCS Opposite-Spin Energy  =      -1.6620898428064770 [Eh]
	 SCS Correlation Energy    =      -1.8148150049303753 [Eh]
	 SCS Total Energy          =    -453.4746325119991752 [Eh]
	-----------------------------------------------------------

  Dipole Moment: [D]
     X:    -3.1960      Y:    -3.6534      Z:    -0.0008     Total:     4.8540

*** Psi4 exiting successfully. Buy a developer a beer!
