                               Psi4 1.3.2 release

  ==> Input File <==

--------------------------------------------------------------------------
#psi4
#
memory 32 gb

molecule  {
0 1
  O       -1.3945310     1.8555980     0.0000210
  O        2.9082060     0.2751580    -0.0000600
  N       -1.0895640    -0.4406340     0.0001970
  N        0.7349370     0.9985730     0.0002800
  C       -0.6489740     0.8800530    -0.0003070
  C       -0.2041810    -1.5011250     0.0000420
  C       -2.5282030    -0.6963170    -0.0000730
  C        1.1391180    -1.3434170     0.0000740
  C        1.7104040    -0.0052910    -0.0002190
  H       -0.6328113    -2.3892854     0.0001646
  H       -2.8113470    -1.2573270     0.8936330
  H       -2.8107340    -1.2584070    -0.8933430
  H       -3.0286960     0.2691590    -0.0008180
  H        1.0742980     1.9581480     0.0003170
  H        1.8167570    -2.1872720    -0.0000870
units angstrom
no_reorient  #important for SAPT in psi4, default
symmetry c1  #important for SAPT in psi4, default
}

set PROPERTIES_ORIGIN ["COM"]
properties('MP2/aug-cc-pvtz', properties = ['dipole'])
--------------------------------------------------------------------------

    Molecular point group: c1
  Charge       = 0
  Multiplicity = 1
  Basis Set: AUG-CC-PVTZ
    Blend: AUG-CC-PVTZ
  Basis Set: (AUG-CC-PVTZ AUX)
    Blend: AUG-CC-PVTZ-JKFIT

    Orbital Energies [Eh]
    ---------------------

    Doubly Occupied:

       1A    -20.545205     2A    -20.538713     3A    -15.643815
       4A    -15.626444     5A    -11.418078     6A    -11.379545
       7A    -11.326150     8A    -11.290102     9A    -11.256068
      10A     -1.428114    11A     -1.387997    12A     -1.312691
      13A     -1.245695    14A     -1.093934    15A     -0.989663
      16A     -0.940101    17A     -0.872532    18A     -0.773054
      19A     -0.753852    20A     -0.717208    21A     -0.685061
      22A     -0.658297    23A     -0.645247    24A     -0.614921
      25A     -0.612126    26A     -0.604293    27A     -0.572010
      28A     -0.554042    29A     -0.499325    30A     -0.480511
      31A     -0.446132    32A     -0.432895    33A     -0.360503

  @DF-RHF Final Energy:  -451.65468347251095

   => Energetics <=

    Nuclear Repulsion Energy =            441.7429354262983452
    One-Electron Energy =               -1491.3865925435293320
    Two-Electron Energy =                 597.9889736447199766
    Total Energy =                       -451.6546834725110102
  Basis Set: (AUG-CC-PVTZ AUX)
    Blend: AUG-CC-PVTZ-RI
    Molecular point group: c1

    Geometry (in Angstrom), charge = 0, multiplicity = 1:

       Center              X                  Y                   Z               Mass
    ------------   -----------------  -----------------  -----------------  -----------------
         O           -1.445471162316     1.815945601854     0.000020006523    15.994914619570
         O            2.857265837684     0.235505601854    -0.000060993477    15.994914619570
         N           -1.140504162316    -0.480286398146     0.000196006523    14.003074004430
         N            0.683996837684     0.958920601854     0.000279006523    14.003074004430
         C           -0.699914162316     0.840400601854    -0.000307993477    12.000000000000
         C           -0.255121162316    -1.540777398146     0.000041006523    12.000000000000
         C           -2.579143162316    -0.735969398146    -0.000073993477    12.000000000000
         C            1.088177837684    -1.383069398146     0.000073006523    12.000000000000
         C            1.659463837684    -0.044943398146    -0.000219993477    12.000000000000
         H           -0.683751462316    -2.428937798146     0.000163606523     1.007825032230
         H           -2.862287162316    -1.296979398146     0.893632006523     1.007825032230
         H           -2.861674162316    -1.298059398146    -0.893343993477     1.007825032230
         H           -3.079636162316     0.229506601854    -0.000818993477     1.007825032230
         H            1.023357837684     1.918495601854     0.000316006523     1.007825032230
         H            1.765816837684    -2.226924398146    -0.000087993477     1.007825032230

  Basis Set: AUG-CC-PVTZ
    Blend: AUG-CC-PVTZ
  Basis Set: (AUG-CC-PVTZ AUX)
    Blend: AUG-CC-PVTZ-JKFIT
	 Reference Energy          =    -451.6546834725109534 [Eh]
	 Singles Energy            =      -0.0000000000000000 [Eh]
	 Same-Spin Energy          =      -0.4578126147509309 [Eh]
	 Opposite-Spin Energy      =      -1.3842719996464115 [Eh]
	 Correlation Energy        =      -1.8420846143973424 [Eh]
	 Total Energy              =    -453.4967680869082756 [Eh]

	 ================> DF-SCS-MP2 Energies <==================
	-----------------------------------------------------------
	 SCS Same-Spin Scale       =       0.3333333333333333 [-]
	 SCS Opposite-Spin Scale   =       1.2000000000000000 [-]
	 SCS Same-Spin Energy      =      -0.1526042049169770 [Eh]
	 SCS Opposite-Spin Energy  =      -1.6611263995756937 [Eh]
	 SCS Correlation Energy    =      -1.8137306044926707 [Eh]
	 SCS Total Energy          =    -453.4684140770036151 [Eh]
	-----------------------------------------------------------

  Dipole Moment: [D]
     X:    -3.2307      Y:    -3.5418      Z:    -0.0009     Total:     4.7939

*** Psi4 exiting successfully. Buy a developer a beer!
