                               Psi4 1.3.2 release

  ==> Input File <==

--------------------------------------------------------------------------
#psi4
#
memory 32 gb

molecule  {
0 1
  O       -1.3945310     1.8555980     0.0000210
  O        2.9082060     0.2751580    -0.0000600
  N       -1.0802759    -0.4329481     0.0001947
  N        0.7349370     0.9985730     0.0002800
  C       -0.6489740     0.8800530    -0.0003070
  C       -0.2041810    -1.5011250     0.0000420
  C       -2.5282030    -0.6963170    -0.0000730
  C        1.1391180    -1.3434170     0.0000740
  C        1.7104040    -0.0052910    -0.0002190
  H       -0.6677205    -2.4834285     0.0001753
  H       -2.8113470    -1.2573270     0.8936330
  H       -2.8107340    -1.2584070    -0.8933430
  H       -3.0286960     0.2691590    -0.0008180
  H        1.0742980     1.9581480     0.0003170
  H        1.8167570    -2.1872720    -0.0000870
units angstrom
no_reorient  #important for SAPT in psi4, default
symmetry c1  #important for SAPT in psi4, default
}

set PROPERTIES_ORIGIN ["COM"]
properties('MP2/aug-cc-pvtz', properties = ['dipole'])
--------------------------------------------------------------------------

    Molecular point group: c1
  Charge       = 0
  Multiplicity = 1
  Basis Set: AUG-CC-PVTZ
    Blend: AUG-CC-PVTZ
  Basis Set: (AUG-CC-PVTZ AUX)
    Blend: AUG-CC-PVTZ-JKFIT

    Orbital Energies [Eh]
    ---------------------

    Doubly Occupied:

       1A    -20.544219     2A    -20.538566     3A    -15.644633
       4A    -15.625708     5A    -11.417194     6A    -11.379603
       7A    -11.337160     8A    -11.291091     9A    -11.256310
      10A     -1.428496    11A     -1.387839    12A     -1.312443
      13A     -1.244578    14A     -1.091231    15A     -0.990167
      16A     -0.931502    17A     -0.872072    18A     -0.772612
      19A     -0.751848    20A     -0.700169    21A     -0.685336
      22A     -0.656702    23A     -0.643656    24A     -0.614468
      25A     -0.610136    26A     -0.600480    27A     -0.572806
      28A     -0.554358    29A     -0.499795    30A     -0.479595
      31A     -0.445747    32A     -0.432602    33A     -0.361113

  @DF-RHF Final Energy:  -451.66056117873222

   => Energetics <=

    Nuclear Repulsion Energy =            441.3192025622894903
    One-Electron Energy =               -1490.6110552855268452
    Two-Electron Energy =                 597.6312915445050749
    Total Energy =                       -451.6605611787322232
  Basis Set: (AUG-CC-PVTZ AUX)
    Blend: AUG-CC-PVTZ-RI
    Molecular point group: c1

    Geometry (in Angstrom), charge = 0, multiplicity = 1:

       Center              X                  Y                   Z               Mass
    ------------   -----------------  -----------------  -----------------  -----------------
         O           -1.446223918445     1.815844473977     0.000020176491    15.994914619570
         O            2.856513081555     0.235404473977    -0.000060823509    15.994914619570
         N           -1.131968818445    -0.472701626023     0.000193876491    14.003074004430
         N            0.683244081555     0.958819473977     0.000279176491    14.003074004430
         C           -0.700666918445     0.840299473977    -0.000307823509    12.000000000000
         C           -0.255873918445    -1.540878526023     0.000041176491    12.000000000000
         C           -2.579895918445    -0.736070526023    -0.000073823509    12.000000000000
         C            1.087425081555    -1.383170526023     0.000073176491    12.000000000000
         C            1.658711081555    -0.045044526023    -0.000219823509    12.000000000000
         H           -0.719413418445    -2.523182026023     0.000174476491     1.007825032230
         H           -2.863039918445    -1.297080526023     0.893632176491     1.007825032230
         H           -2.862426918445    -1.298160526023    -0.893343823509     1.007825032230
         H           -3.080388918445     0.229405473977    -0.000818823509     1.007825032230
         H            1.022605081555     1.918394473977     0.000316176491     1.007825032230
         H            1.765064081555    -2.227025526023    -0.000087823509     1.007825032230

  Basis Set: AUG-CC-PVTZ
    Blend: AUG-CC-PVTZ
  Basis Set: (AUG-CC-PVTZ AUX)
    Blend: AUG-CC-PVTZ-JKFIT
	 Reference Energy          =    -451.6605611787322232 [Eh]
	 Singles Energy            =      -0.0000000000000000 [Eh]
	 Same-Spin Energy          =      -0.4579905218110284 [Eh]
	 Opposite-Spin Energy      =      -1.3847269127551096 [Eh]
	 Correlation Energy        =      -1.8427174345661381 [Eh]
	 Total Energy              =    -453.5032786132983347 [Eh]

	 ================> DF-SCS-MP2 Energies <==================
	-----------------------------------------------------------
	 SCS Same-Spin Scale       =       0.3333333333333333 [-]
	 SCS Opposite-Spin Scale   =       1.2000000000000000 [-]
	 SCS Same-Spin Energy      =      -0.1526635072703428 [Eh]
	 SCS Opposite-Spin Energy  =      -1.6616722953061316 [Eh]
	 SCS Correlation Energy    =      -1.8143358025764744 [Eh]
	 SCS Total Energy          =    -453.4748969813086887 [Eh]
	-----------------------------------------------------------

  Dipole Moment: [D]
     X:    -3.2480      Y:    -3.5960      Z:    -0.0009     Total:     4.8457

*** Psi4 exiting successfully. Buy a developer a beer!
