                               Psi4 1.3.2 release

  ==> Input File <==

--------------------------------------------------------------------------
#psi4
#
memory 32 gb

molecule  {
0 1
  O       -1.3773918     1.8684612     0.0000077
  O        2.9082060     0.2751580    -0.0000600
  N       -1.0664477    -0.4481222     0.0001831
  N        0.7349370     0.9985730     0.0002800
  C       -0.6489740     0.8800530    -0.0003070
  C       -0.2041810    -1.5011250     0.0000420
  C       -2.5282030    -0.6963170    -0.0000730
  C        1.1391180    -1.3434170     0.0000740
  C        1.7104040    -0.0052910    -0.0002190
  H       -0.6762750    -2.4793460     0.0001770
  H       -2.8113470    -1.2573270     0.8936330
  H       -2.8107340    -1.2584070    -0.8933430
  H       -3.0286960     0.2691590    -0.0008180
  H        1.0742980     1.9581480     0.0003170
  H        1.8167570    -2.1872720    -0.0000870
units angstrom
no_reorient  #important for SAPT in psi4, default
symmetry c1  #important for SAPT in psi4, default
}

set PROPERTIES_ORIGIN ["COM"]
properties('MP2/aug-cc-pvtz', properties = ['dipole'])
--------------------------------------------------------------------------

    Molecular point group: c1
  Charge       = 0
  Multiplicity = 1
  Basis Set: AUG-CC-PVTZ
    Blend: AUG-CC-PVTZ
  Basis Set: (AUG-CC-PVTZ AUX)
    Blend: AUG-CC-PVTZ-JKFIT

    Orbital Energies [Eh]
    ---------------------

    Doubly Occupied:

       1A    -20.547092     2A    -20.536593     3A    -15.646236
       4A    -15.624607     5A    -11.419316     6A    -11.377887
       7A    -11.335773     8A    -11.293573     9A    -11.253638
      10A     -1.428928    11A     -1.386395    12A     -1.316655
      13A     -1.243677    14A     -1.089960    15A     -0.989388
      16A     -0.933658    17A     -0.872649    18A     -0.771929
      19A     -0.750725    20A     -0.702004    21A     -0.685640
      22A     -0.657521    23A     -0.642096    24A     -0.614770
      25A     -0.608826    26A     -0.598225    27A     -0.575899
      28A     -0.553947    29A     -0.504377    30A     -0.480836
      31A     -0.444383    32A     -0.431723    33A     -0.358857

  @DF-RHF Final Energy:  -451.65950211165267

   => Energetics <=

    Nuclear Repulsion Energy =            441.3200386576622236
    One-Electron Energy =               -1490.6035188927924082
    Two-Electron Energy =                 597.6239781234774000
    Total Energy =                       -451.6595021116527278
  Basis Set: (AUG-CC-PVTZ AUX)
    Blend: AUG-CC-PVTZ-RI
    Molecular point group: c1

    Geometry (in Angstrom), charge = 0, multiplicity = 1:

       Center              X                  Y                   Z               Mass
    ------------   -----------------  -----------------  -----------------  -----------------
         O           -1.432727571865     1.828728490804     0.000009839408    15.994914619570
         O            2.852870228135     0.235425290804    -0.000057860592    15.994914619570
         N           -1.121783471865    -0.487854909196     0.000185239408    14.003074004430
         N            0.679601228135     0.958840290804     0.000282139408    14.003074004430
         C           -0.704309771865     0.840320290804    -0.000304860592    12.000000000000
         C           -0.259516771865    -1.540857709196     0.000044139408    12.000000000000
         C           -2.583538771865    -0.736049709196    -0.000070860592    12.000000000000
         C            1.083782228135    -1.383149709196     0.000076139408    12.000000000000
         C            1.655068228135    -0.045023709196    -0.000216860592    12.000000000000
         H           -0.731610771865    -2.519078709196     0.000179139408     1.007825032230
         H           -2.866682771865    -1.297059709196     0.893635139408     1.007825032230
         H           -2.866069771865    -1.298139709196    -0.893340860592     1.007825032230
         H           -3.084031771865     0.229426290804    -0.000815860592     1.007825032230
         H            1.018962228135     1.918415290804     0.000319139408     1.007825032230
         H            1.761421228135    -2.227004709196    -0.000084860592     1.007825032230

  Basis Set: AUG-CC-PVTZ
    Blend: AUG-CC-PVTZ
  Basis Set: (AUG-CC-PVTZ AUX)
    Blend: AUG-CC-PVTZ-JKFIT
	 Reference Energy          =    -451.6595021116526709 [Eh]
	 Singles Energy            =      -0.0000000000000000 [Eh]
	 Same-Spin Energy          =      -0.4582023439824584 [Eh]
	 Opposite-Spin Energy      =      -1.3849334387115986 [Eh]
	 Correlation Energy        =      -1.8431357826940569 [Eh]
	 Total Energy              =    -453.5026378943467193 [Eh]

	 ================> DF-SCS-MP2 Energies <==================
	-----------------------------------------------------------
	 SCS Same-Spin Scale       =       0.3333333333333333 [-]
	 SCS Opposite-Spin Scale   =       1.2000000000000000 [-]
	 SCS Same-Spin Energy      =      -0.1527341146608195 [Eh]
	 SCS Opposite-Spin Energy  =      -1.6619201264539183 [Eh]
	 SCS Correlation Energy    =      -1.8146542411147377 [Eh]
	 SCS Total Energy          =    -453.4741563527674089 [Eh]
	-----------------------------------------------------------

  Dipole Moment: [D]
     X:    -3.4153      Y:    -3.5523      Z:    -0.0008     Total:     4.9278

*** Psi4 exiting successfully. Buy a developer a beer!
