                               Psi4 1.3.2 release

  ==> Input File <==

--------------------------------------------------------------------------
#psi4
#
memory 32 gb

molecule  {
0 1
  O       -1.3945310     1.8555980     0.0000210
  O        2.9082060     0.2751580    -0.0000600
  N       -1.0895640    -0.4406340     0.0001970
  N        0.7349370     0.9985730     0.0002800
  C       -0.6489740     0.8800530    -0.0003070
  C       -0.2041810    -1.5011250     0.0000420
  C       -2.5282030    -0.6963170    -0.0000730
  C        1.1391180    -1.3434170     0.0000740
  C        1.7104040    -0.0052910    -0.0002190
  H       -0.5893477    -2.2992248     0.0001521
  H       -2.8113470    -1.2573270     0.8936330
  H       -2.8107340    -1.2584070    -0.8933430
  H       -3.0286960     0.2691590    -0.0008180
  H        1.0742980     1.9581480     0.0003170
  H        1.8167570    -2.1872720    -0.0000870
units angstrom
no_reorient  #important for SAPT in psi4, default
symmetry c1  #important for SAPT in psi4, default
}

set PROPERTIES_ORIGIN ["COM"]
properties('MP2/aug-cc-pvtz', properties = ['dipole'])
--------------------------------------------------------------------------

    Molecular point group: c1
  Charge       = 0
  Multiplicity = 1
  Basis Set: AUG-CC-PVTZ
    Blend: AUG-CC-PVTZ
  Basis Set: (AUG-CC-PVTZ AUX)
    Blend: AUG-CC-PVTZ-JKFIT

    Orbital Energies [Eh]
    ---------------------

    Doubly Occupied:

       1A    -20.545004     2A    -20.538766     3A    -15.643346
       4A    -15.626424     5A    -11.417749     6A    -11.379420
       7A    -11.315098     8A    -11.290178     9A    -11.256267
      10A     -1.427979    11A     -1.387997    12A     -1.313451
      13A     -1.245947    14A     -1.098426    15A     -0.989765
      16A     -0.952821    17A     -0.872831    18A     -0.775869
      19A     -0.757429    20A     -0.731974    21A     -0.684963
      22A     -0.658598    23A     -0.645924    24A     -0.614938
      25A     -0.614056    26A     -0.605069    27A     -0.572075
      28A     -0.553966    29A     -0.499377    30A     -0.480972
      31A     -0.446238    32A     -0.432827    33A     -0.360479

  @DF-RHF Final Energy:  -451.62553888308554

   => Energetics <=

    Nuclear Repulsion Energy =            442.3873822528143478
    One-Electron Energy =               -1492.5533918798378181
    Two-Electron Energy =                 598.5404707439379308
    Total Energy =                       -451.6255388830854827
  Basis Set: (AUG-CC-PVTZ AUX)
    Blend: AUG-CC-PVTZ-RI
    Molecular point group: c1

    Geometry (in Angstrom), charge = 0, multiplicity = 1:

       Center              X                  Y                   Z               Mass
    ------------   -----------------  -----------------  -----------------  -----------------
         O           -1.445818692360     1.815225487454     0.000020106471    15.994914619570
         O            2.856918307640     0.234785487454    -0.000060893529    15.994914619570
         N           -1.140851692360    -0.481006512546     0.000196106471    14.003074004430
         N            0.683649307640     0.958200487454     0.000279106471    14.003074004430
         C           -0.700261692360     0.839680487454    -0.000307893529    12.000000000000
         C           -0.255468692360    -1.541497512546     0.000041106471    12.000000000000
         C           -2.579490692360    -0.736689512546    -0.000073893529    12.000000000000
         C            1.087830307640    -1.383789512546     0.000073106471    12.000000000000
         C            1.659116307640    -0.045663512546    -0.000219893529    12.000000000000
         H           -0.640635392360    -2.339597312546     0.000151206471     1.007825032230
         H           -2.862634692360    -1.297699512546     0.893632106471     1.007825032230
         H           -2.862021692360    -1.298779512546    -0.893343893529     1.007825032230
         H           -3.079983692360     0.228786487454    -0.000818893529     1.007825032230
         H            1.023010307640     1.917775487454     0.000316106471     1.007825032230
         H            1.765469307640    -2.227644512546    -0.000087893529     1.007825032230

  Basis Set: AUG-CC-PVTZ
    Blend: AUG-CC-PVTZ
  Basis Set: (AUG-CC-PVTZ AUX)
    Blend: AUG-CC-PVTZ-JKFIT
	 Reference Energy          =    -451.6255388830855395 [Eh]
	 Singles Energy            =      -0.0000000000000000 [Eh]
	 Same-Spin Energy          =      -0.4577085017818165 [Eh]
	 Opposite-Spin Energy      =      -1.3842256270035205 [Eh]
	 Correlation Energy        =      -1.8419341287853370 [Eh]
	 Total Energy              =    -453.4674730118708794 [Eh]

	 ================> DF-SCS-MP2 Energies <==================
	-----------------------------------------------------------
	 SCS Same-Spin Scale       =       0.3333333333333333 [-]
	 SCS Opposite-Spin Scale   =       1.2000000000000000 [-]
	 SCS Same-Spin Energy      =      -0.1525695005939388 [Eh]
	 SCS Opposite-Spin Energy  =      -1.6610707524042245 [Eh]
	 SCS Correlation Energy    =      -1.8136402529981634 [Eh]
	 SCS Total Energy          =    -453.4391791360836805 [Eh]
	-----------------------------------------------------------

  Dipole Moment: [D]
     X:    -3.2197      Y:    -3.5325      Z:    -0.0009     Total:     4.7796

*** Psi4 exiting successfully. Buy a developer a beer!
