                               Psi4 1.3.2 release

  ==> Input File <==

--------------------------------------------------------------------------
#psi4
#
memory 32 gb

molecule  {
0 1
  O       -1.3945310     1.8555980     0.0000210
  O        2.9082060     0.2751580    -0.0000600
  N       -1.0895640    -0.4406340     0.0001970
  N        0.7349370     0.9985730     0.0002800
  C       -0.6489740     0.8800530    -0.0003070
  C       -0.1677097    -1.4695796     0.0000555
  C       -2.5362498    -0.6459535    -0.0000609
  C        1.1391180    -1.3434170     0.0000740
  C        1.7104040    -0.0052910    -0.0002190
  H       -0.6762750    -2.4793460     0.0001770
  H       -2.8113470    -1.2573270     0.8936330
  H       -2.8107340    -1.2584070    -0.8933430
  H       -3.0286960     0.2691590    -0.0008180
  H        1.0742980     1.9581480     0.0003170
  H        1.8167570    -2.1872720    -0.0000870
units angstrom
no_reorient  #important for SAPT in psi4, default
symmetry c1  #important for SAPT in psi4, default
}

set PROPERTIES_ORIGIN ["COM"]
properties('MP2/aug-cc-pvtz', properties = ['dipole'])
--------------------------------------------------------------------------

    Molecular point group: c1
  Charge       = 0
  Multiplicity = 1
  Basis Set: AUG-CC-PVTZ
    Blend: AUG-CC-PVTZ
  Basis Set: (AUG-CC-PVTZ AUX)
    Blend: AUG-CC-PVTZ-JKFIT

    Orbital Energies [Eh]
    ---------------------

    Doubly Occupied:

       1A    -20.544613     2A    -20.539907     3A    -15.643338
       4A    -15.626234     5A    -11.416317     6A    -11.380247
       7A    -11.334712     8A    -11.291521     9A    -11.252976
      10A     -1.428475    11A     -1.388909    12A     -1.312172
      13A     -1.245246    14A     -1.101692    15A     -0.990041
      16A     -0.924964    17A     -0.874502    18A     -0.773697
      19A     -0.754507    20A     -0.690065    21A     -0.682691
      22A     -0.658350    23A     -0.646906    24A     -0.612293
      25A     -0.608307    26A     -0.607280    27A     -0.576701
      28A     -0.552874    29A     -0.499344    30A     -0.478126
      31A     -0.446501    32A     -0.433204    33A     -0.366120

  @DF-RHF Final Energy:  -451.65537931893704

   => Energetics <=

    Nuclear Repulsion Energy =            442.0493112989275346
    One-Electron Energy =               -1492.0437196899854371
    Two-Electron Energy =                 598.3390290721208657
    Total Energy =                       -451.6553793189370936
  Basis Set: (AUG-CC-PVTZ AUX)
    Blend: AUG-CC-PVTZ-RI
    Molecular point group: c1

    Geometry (in Angstrom), charge = 0, multiplicity = 1:

       Center              X                  Y                   Z               Mass
    ------------   -----------------  -----------------  -----------------  -----------------
         O           -1.447829804734     1.808867525432     0.000017470109    15.994914619570
         O            2.854907195266     0.228427525432    -0.000063529891    15.994914619570
         N           -1.142862804734    -0.487364474568     0.000193470109    14.003074004430
         N            0.681638195266     0.951842525432     0.000276470109    14.003074004430
         C           -0.702272804734     0.833322525432    -0.000310529891    12.000000000000
         C           -0.221008504734    -1.516310074568     0.000051970109    12.000000000000
         C           -2.589548604734    -0.692683974568    -0.000064429891    12.000000000000
         C            1.085819195266    -1.390147474568     0.000070470109    12.000000000000
         C            1.657105195266    -0.052021474568    -0.000222529891    12.000000000000
         H           -0.729573804734    -2.526076474568     0.000173470109     1.007825032230
         H           -2.864645804734    -1.304057474568     0.893629470109     1.007825032230
         H           -2.864032804734    -1.305137474568    -0.893346529891     1.007825032230
         H           -3.081994804734     0.222428525432    -0.000821529891     1.007825032230
         H            1.020999195266     1.911417525432     0.000313470109     1.007825032230
         H            1.763458195266    -2.234002474568    -0.000090529891     1.007825032230

  Basis Set: AUG-CC-PVTZ
    Blend: AUG-CC-PVTZ
  Basis Set: (AUG-CC-PVTZ AUX)
    Blend: AUG-CC-PVTZ-JKFIT
	 Reference Energy          =    -451.6553793189370367 [Eh]
	 Singles Energy            =      -0.0000000000000000 [Eh]
	 Same-Spin Energy          =      -0.4576557907010987 [Eh]
	 Opposite-Spin Energy      =      -1.3840682412715402 [Eh]
	 Correlation Energy        =      -1.8417240319726389 [Eh]
	 Total Energy              =    -453.4971033509096969 [Eh]

	 ================> DF-SCS-MP2 Energies <==================
	-----------------------------------------------------------
	 SCS Same-Spin Scale       =       0.3333333333333333 [-]
	 SCS Opposite-Spin Scale   =       1.2000000000000000 [-]
	 SCS Same-Spin Energy      =      -0.1525519302336996 [Eh]
	 SCS Opposite-Spin Energy  =      -1.6608818895258481 [Eh]
	 SCS Correlation Energy    =      -1.8134338197595476 [Eh]
	 SCS Total Energy          =    -453.4688131386965892 [Eh]
	-----------------------------------------------------------

  Dipole Moment: [D]
     X:    -3.1636      Y:    -3.5149      Z:    -0.0008     Total:     4.7290

*** Psi4 exiting successfully. Buy a developer a beer!
