                               Psi4 1.3.2 release

  ==> Input File <==

--------------------------------------------------------------------------
#psi4
#
memory 32 gb

molecule  {
0 1
  O       -1.3945310     1.8555980     0.0000210
  O        2.9082060     0.2751580    -0.0000600
  N       -1.0664477    -0.4481222     0.0002119
  N        0.7367947     0.9744024     0.0002939
  C       -0.6489740     0.8800530    -0.0003070
  C       -0.2041810    -1.5011250     0.0000420
  C       -2.5282030    -0.6963170    -0.0000730
  C        1.1391180    -1.3434170     0.0000740
  C        1.7104040    -0.0052910    -0.0002190
  H       -0.6762750    -2.4793460     0.0001770
  H       -2.8113470    -1.2573270     0.8936330
  H       -2.8107340    -1.2584070    -0.8933430
  H       -3.0286960     0.2691590    -0.0008180
  H        1.0742980     1.9581480     0.0003170
  H        1.8167570    -2.1872720    -0.0000870
units angstrom
no_reorient  #important for SAPT in psi4, default
symmetry c1  #important for SAPT in psi4, default
}

set PROPERTIES_ORIGIN ["COM"]
properties('MP2/aug-cc-pvtz', properties = ['dipole'])
--------------------------------------------------------------------------

    Molecular point group: c1
  Charge       = 0
  Multiplicity = 1
  Basis Set: AUG-CC-PVTZ
    Blend: AUG-CC-PVTZ
  Basis Set: (AUG-CC-PVTZ AUX)
    Blend: AUG-CC-PVTZ-JKFIT

    Orbital Energies [Eh]
    ---------------------

    Doubly Occupied:

       1A    -20.549407     2A    -20.535169     3A    -15.645019
       4A    -15.628114     5A    -11.420964     6A    -11.376543
       7A    -11.334575     8A    -11.292574     9A    -11.252492
      10A     -1.430438    11A     -1.387005    12A     -1.316892
      13A     -1.246512    14A     -1.089242    15A     -0.990174
      16A     -0.931842    17A     -0.878170    18A     -0.770301
      19A     -0.748685    20A     -0.699733    21A     -0.686277
      22A     -0.658320    23A     -0.642568    24A     -0.616072
      25A     -0.608087    26A     -0.596356    27A     -0.573906
      28A     -0.554953    29A     -0.503784    30A     -0.481534
      31A     -0.445103    32A     -0.433270    33A     -0.358133

  @DF-RHF Final Energy:  -451.65782193553366

   => Energetics <=

    Nuclear Repulsion Energy =            441.7648768725067043
    One-Electron Energy =               -1491.4809628482121298
    Two-Electron Energy =                 598.0582640401718209
    Total Energy =                       -451.6578219355336614
  Basis Set: (AUG-CC-PVTZ AUX)
    Blend: AUG-CC-PVTZ-RI
    Molecular point group: c1

    Geometry (in Angstrom), charge = 0, multiplicity = 1:

       Center              X                  Y                   Z               Mass
    ------------   -----------------  -----------------  -----------------  -----------------
         O           -1.447898184376     1.820182934779     0.000016707761    15.994914619570
         O            2.854838815624     0.239742934779    -0.000064292239    15.994914619570
         N           -1.119814884376    -0.483537265221     0.000207607761    14.003074004430
         N            0.683427515624     0.938987334779     0.000289607761    14.003074004430
         C           -0.702341184376     0.844637934779    -0.000311292239    12.000000000000
         C           -0.257548184376    -1.536540065221     0.000037707761    12.000000000000
         C           -2.581570184376    -0.731732065221    -0.000077292239    12.000000000000
         C            1.085750815624    -1.378832065221     0.000069707761    12.000000000000
         C            1.657036815624    -0.040706065221    -0.000223292239    12.000000000000
         H           -0.729642184376    -2.514761065221     0.000172707761     1.007825032230
         H           -2.864714184376    -1.292742065221     0.893628707761     1.007825032230
         H           -2.864101184376    -1.293822065221    -0.893347292239     1.007825032230
         H           -3.082063184376     0.233743934779    -0.000822292239     1.007825032230
         H            1.020930815624     1.922732934779     0.000312707761     1.007825032230
         H            1.763389815624    -2.222687065221    -0.000091292239     1.007825032230

  Basis Set: AUG-CC-PVTZ
    Blend: AUG-CC-PVTZ
  Basis Set: (AUG-CC-PVTZ AUX)
    Blend: AUG-CC-PVTZ-JKFIT
	 Reference Energy          =    -451.6578219355336614 [Eh]
	 Singles Energy            =      -0.0000000000000000 [Eh]
	 Same-Spin Energy          =      -0.4586425719338532 [Eh]
	 Opposite-Spin Energy      =      -1.3854461343375992 [Eh]
	 Correlation Energy        =      -1.8440887062714524 [Eh]
	 Total Energy              =    -453.5019106418051251 [Eh]

	 ================> DF-SCS-MP2 Energies <==================
	-----------------------------------------------------------
	 SCS Same-Spin Scale       =       0.3333333333333333 [-]
	 SCS Opposite-Spin Scale   =       1.2000000000000000 [-]
	 SCS Same-Spin Energy      =      -0.1528808573112844 [Eh]
	 SCS Opposite-Spin Energy  =      -1.6625353612051190 [Eh]
	 SCS Correlation Energy    =      -1.8154162185164033 [Eh]
	 SCS Total Energy          =    -453.4732381540500796 [Eh]
	-----------------------------------------------------------

  Dipole Moment: [D]
     X:    -3.4385      Y:    -3.4538      Z:    -0.0009     Total:     4.8735

*** Psi4 exiting successfully. Buy a developer a beer!
