                               Psi4 1.3.2 release

  ==> Input File <==

--------------------------------------------------------------------------
#psi4
#
memory 32 gb

molecule  {
0 1
  O       -1.3945310     1.8555980     0.0000210
  O        2.9082060     0.2751580    -0.0000600
  N       -1.0895640    -0.4406340     0.0001970
  N        0.7349370     0.9985730     0.0002800
  C       -0.6489740     0.8800530    -0.0003070
  C       -0.2041810    -1.5011250     0.0000420
  C       -2.5282030    -0.6963170    -0.0000730
  C        1.1391180    -1.3434170     0.0000740
  C        1.7616053     0.0471368    -0.0002283
  H       -0.6762750    -2.4793460     0.0001770
  H       -2.8113470    -1.2573270     0.8936330
  H       -2.8107340    -1.2584070    -0.8933430
  H       -3.0286960     0.2691590    -0.0008180
  H        1.1240532     1.9390722     0.0002967
  H        1.8167570    -2.1872720    -0.0000870
units angstrom
no_reorient  #important for SAPT in psi4, default
symmetry c1  #important for SAPT in psi4, default
}

set PROPERTIES_ORIGIN ["COM"]
properties('MP2/aug-cc-pvtz', properties = ['dipole'])
--------------------------------------------------------------------------

    Molecular point group: c1
  Charge       = 0
  Multiplicity = 1
  Basis Set: AUG-CC-PVTZ
    Blend: AUG-CC-PVTZ
  Basis Set: (AUG-CC-PVTZ AUX)
    Blend: AUG-CC-PVTZ-JKFIT

    Orbital Energies [Eh]
    ---------------------

    Doubly Occupied:

       1A    -20.551569     2A    -20.543334     3A    -15.638136
       4A    -15.623158     5A    -11.418275     6A    -11.379632
       7A    -11.327144     8A    -11.286163     9A    -11.253642
      10A     -1.441477    11A     -1.417013    12A     -1.308283
      13A     -1.248098    14A     -1.077262    15A     -0.986493
      16A     -0.917169    17A     -0.873208    18A     -0.769640
      19A     -0.742063    20A     -0.697334    21A     -0.681904
      22A     -0.667934    23A     -0.646517    24A     -0.619510
      25A     -0.607696    26A     -0.607073    27A     -0.568067
      28A     -0.566666    29A     -0.494980    30A     -0.477825
      31A     -0.447241    32A     -0.440006    33A     -0.355393

  @DF-RHF Final Energy:  -451.65655694605556

   => Energetics <=

    Nuclear Repulsion Energy =            441.0406578495187091
    One-Electron Energy =               -1490.0346187037000618
    Two-Electron Energy =                 597.3374039081257934
    Total Energy =                       -451.6565569460555025
  Basis Set: (AUG-CC-PVTZ AUX)
    Blend: AUG-CC-PVTZ-RI
    Molecular point group: c1

    Geometry (in Angstrom), charge = 0, multiplicity = 1:

       Center              X                  Y                   Z               Mass
    ------------   -----------------  -----------------  -----------------  -----------------
         O           -1.450396121961     1.811826820938     0.000020955103    15.994914619570
         O            2.852340878039     0.231386820938    -0.000060044897    15.994914619570
         N           -1.145429121961    -0.484405179062     0.000196955103    14.003074004430
         N            0.679071878039     0.954801820938     0.000279955103    14.003074004430
         C           -0.704839121961     0.836281820938    -0.000307044897    12.000000000000
         C           -0.260046121961    -1.544896179062     0.000041955103    12.000000000000
         C           -2.584068121961    -0.740088179062    -0.000073044897    12.000000000000
         C            1.083252878039    -1.387188179062     0.000073955103    12.000000000000
         C            1.705740178039     0.003365620938    -0.000228344897    12.000000000000
         H           -0.732140121961    -2.523117179062     0.000176955103     1.007825032230
         H           -2.867212121961    -1.301098179062     0.893632955103     1.007825032230
         H           -2.866599121961    -1.302178179062    -0.893343044897     1.007825032230
         H           -3.084561121961     0.225387820938    -0.000818044897     1.007825032230
         H            1.068188078039     1.895301020938     0.000296655103     1.007825032230
         H            1.760891878039    -2.231043179062    -0.000087044897     1.007825032230

  Basis Set: AUG-CC-PVTZ
    Blend: AUG-CC-PVTZ
  Basis Set: (AUG-CC-PVTZ AUX)
    Blend: AUG-CC-PVTZ-JKFIT
	 Reference Energy          =    -451.6565569460555594 [Eh]
	 Singles Energy            =      -0.0000000000000000 [Eh]
	 Same-Spin Energy          =      -0.4564015135202987 [Eh]
	 Opposite-Spin Energy      =      -1.3821669601521829 [Eh]
	 Correlation Energy        =      -1.8385684736724817 [Eh]
	 Total Energy              =    -453.4951254197280264 [Eh]

	 ================> DF-SCS-MP2 Energies <==================
	-----------------------------------------------------------
	 SCS Same-Spin Scale       =       0.3333333333333333 [-]
	 SCS Opposite-Spin Scale   =       1.2000000000000000 [-]
	 SCS Same-Spin Energy      =      -0.1521338378400995 [Eh]
	 SCS Opposite-Spin Energy  =      -1.6586003521826194 [Eh]
	 SCS Correlation Energy    =      -1.8107341900227190 [Eh]
	 SCS Total Energy          =    -453.4672911360783019 [Eh]
	-----------------------------------------------------------

  Dipole Moment: [D]
     X:    -2.6487      Y:    -3.2838      Z:    -0.0010     Total:     4.2189

*** Psi4 exiting successfully. Buy a developer a beer!
