                               Psi4 1.3.2 release

  ==> Input File <==

--------------------------------------------------------------------------
#psi4
#
memory 32 gb

molecule  {
0 1
  O       -1.3945310     1.8555980     0.0000210
  O        2.9082060     0.2751580    -0.0000600
  N       -1.0895640    -0.4406340     0.0001970
  N        0.7349370     0.9985730     0.0002800
  C       -0.6489740     0.8800530    -0.0003070
  C       -0.2041810    -1.5011250     0.0000420
  C       -2.5282030    -0.6963170    -0.0000730
  C        1.1391180    -1.3434170     0.0000740
  C        1.6987050    -0.0003566    -0.0002155
  H       -0.6762750    -2.4793460     0.0001770
  H       -2.8113470    -1.2573270     0.8936330
  H       -2.8107340    -1.2584070    -0.8933430
  H       -3.0286960     0.2691590    -0.0008180
  H        1.0742980     1.9581480     0.0003170
  H        1.8093673    -2.1931533    -0.0000841
units angstrom
no_reorient  #important for SAPT in psi4, default
symmetry c1  #important for SAPT in psi4, default
}

set PROPERTIES_ORIGIN ["COM"]
properties('MP2/aug-cc-pvtz', properties = ['dipole'])
--------------------------------------------------------------------------

    Molecular point group: c1
  Charge       = 0
  Multiplicity = 1
  Basis Set: AUG-CC-PVTZ
    Blend: AUG-CC-PVTZ
  Basis Set: (AUG-CC-PVTZ AUX)
    Blend: AUG-CC-PVTZ-JKFIT

    Orbital Energies [Eh]
    ---------------------

    Doubly Occupied:

       1A    -20.546806     2A    -20.536239     3A    -15.645225
       4A    -15.628869     5A    -11.419848     6A    -11.379714
       7A    -11.336934     8A    -11.290529     9A    -11.256547
      10A     -1.429550    11A     -1.382234    12A     -1.312956
      13A     -1.248270    14A     -1.091659    15A     -0.990607
      16A     -0.931101    17A     -0.875343    18A     -0.773569
      19A     -0.752773    20A     -0.700226    21A     -0.686274
      22A     -0.658360    23A     -0.643071    24A     -0.615782
      25A     -0.611070    26A     -0.599515    27A     -0.572527
      28A     -0.552544    29A     -0.500073    30A     -0.480182
      31A     -0.445137    32A     -0.432777    33A     -0.360623

  @DF-RHF Final Energy:  -451.65963707430905

   => Energetics <=

    Nuclear Repulsion Energy =            441.2673832534078997
    One-Electron Energy =               -1490.4801753977701537
    Two-Electron Energy =                 597.5531550700532080
    Total Energy =                       -451.6596370743091029
  Basis Set: (AUG-CC-PVTZ AUX)
    Blend: AUG-CC-PVTZ-RI
    Molecular point group: c1

    Geometry (in Angstrom), charge = 0, multiplicity = 1:

       Center              X                  Y                   Z               Mass
    ------------   -----------------  -----------------  -----------------  -----------------
         O           -1.443950733258     1.816242959661     0.000019550966    15.994914619570
         O            2.858786266742     0.235802959661    -0.000061449034    15.994914619570
         N           -1.138983733258    -0.479989040339     0.000195550966    14.003074004430
         N            0.685517266742     0.959217959661     0.000278550966    14.003074004430
         C           -0.698393733258     0.840697959661    -0.000308449034    12.000000000000
         C           -0.253600733258    -1.540480040339     0.000040550966    12.000000000000
         C           -2.577622733258    -0.735672040339    -0.000074449034    12.000000000000
         C            1.089698266742    -1.382772040339     0.000072550966    12.000000000000
         C            1.649285266742    -0.039711640339    -0.000216949034    12.000000000000
         H           -0.725694733258    -2.518701040339     0.000175550966     1.007825032230
         H           -2.860766733258    -1.296682040339     0.893631550966     1.007825032230
         H           -2.860153733258    -1.297762040339    -0.893344449034     1.007825032230
         H           -3.078115733258     0.229803959661    -0.000819449034     1.007825032230
         H            1.024878266742     1.918792959661     0.000315550966     1.007825032230
         H            1.759947566742    -2.232508340339    -0.000085549034     1.007825032230

  Basis Set: AUG-CC-PVTZ
    Blend: AUG-CC-PVTZ
  Basis Set: (AUG-CC-PVTZ AUX)
    Blend: AUG-CC-PVTZ-JKFIT
	 Reference Energy          =    -451.6596370743090461 [Eh]
	 Singles Energy            =      -0.0000000000000000 [Eh]
	 Same-Spin Energy          =      -0.4582489678597031 [Eh]
	 Opposite-Spin Energy      =      -1.3851650222116363 [Eh]
	 Correlation Energy        =      -1.8434139900713395 [Eh]
	 Total Energy              =    -453.5030510643803723 [Eh]

	 ================> DF-SCS-MP2 Energies <==================
	-----------------------------------------------------------
	 SCS Same-Spin Scale       =       0.3333333333333333 [-]
	 SCS Opposite-Spin Scale   =       1.2000000000000000 [-]
	 SCS Same-Spin Energy      =      -0.1527496559532344 [Eh]
	 SCS Opposite-Spin Energy  =      -1.6621980266539635 [Eh]
	 SCS Correlation Energy    =      -1.8149476826071980 [Eh]
	 SCS Total Energy          =    -453.4745847569162720 [Eh]
	-----------------------------------------------------------

  Dipole Moment: [D]
     X:    -3.3428      Y:    -3.5170      Z:    -0.0008     Total:     4.8522

*** Psi4 exiting successfully. Buy a developer a beer!
