                               Psi4 1.3.2 release

  ==> Input File <==

--------------------------------------------------------------------------
#psi4
#
memory 32 gb

molecule  {
0 1
  O       -1.3945310     1.8555980     0.0000210
  O        2.9082060     0.2751580    -0.0000600
  N       -1.0895640    -0.4406340     0.0001970
  N        0.7349370     0.9985730     0.0002800
  C       -0.6489740     0.8800530    -0.0003070
  C       -0.2041810    -1.5011250     0.0000420
  C       -2.4297459    -0.6788186    -0.0000545
  C        1.1391180    -1.3434170     0.0000740
  C        1.7104040    -0.0052910    -0.0002190
  H       -0.6762750    -2.4793460     0.0001770
  H       -2.8113470    -1.2573270     0.8936330
  H       -2.8107340    -1.2584070    -0.8933430
  H       -3.0286960     0.2691590    -0.0008180
  H        1.0742980     1.9581480     0.0003170
  H        1.8167570    -2.1872720    -0.0000870
units angstrom
no_reorient  #important for SAPT in psi4, default
symmetry c1  #important for SAPT in psi4, default
}

set PROPERTIES_ORIGIN ["COM"]
properties('MP2/aug-cc-pvtz', properties = ['dipole'])
--------------------------------------------------------------------------

    Molecular point group: c1
  Charge       = 0
  Multiplicity = 1
  Basis Set: AUG-CC-PVTZ
    Blend: AUG-CC-PVTZ
  Basis Set: (AUG-CC-PVTZ AUX)
    Blend: AUG-CC-PVTZ-JKFIT

    Orbital Energies [Eh]
    ---------------------

    Doubly Occupied:

       1A    -20.548646     2A    -20.542112     3A    -15.646619
       4A    -15.629371     5A    -11.421703     6A    -11.382903
       7A    -11.339515     8A    -11.288110     9A    -11.260287
      10A     -1.434505    11A     -1.391389    12A     -1.328427
      13A     -1.253445    14A     -1.098620    15A     -0.988470
      16A     -0.936938    17A     -0.872257    18A     -0.777689
      19A     -0.761254    20A     -0.703465    21A     -0.691894
      22A     -0.668706    23A     -0.651916    24A     -0.614623
      25A     -0.609125    26A     -0.606787    27A     -0.552980
      28A     -0.550681    29A     -0.490004    30A     -0.483190
      31A     -0.449180    32A     -0.435374    33A     -0.362522

  @DF-RHF Final Energy:  -451.64936086634140

   => Energetics <=

    Nuclear Repulsion Energy =            443.2959278130572329
    One-Electron Energy =               -1494.3451639075999537
    Two-Electron Energy =                 599.3998752282012674
    Total Energy =                       -451.6493608663414534
  Basis Set: (AUG-CC-PVTZ AUX)
    Blend: AUG-CC-PVTZ-RI
    Molecular point group: c1

    Geometry (in Angstrom), charge = 0, multiplicity = 1:

       Center              X                  Y                   Z               Mass
    ------------   -----------------  -----------------  -----------------  -----------------
         O           -1.454497304586     1.814999769547     0.000018146069    15.994914619570
         O            2.848239695414     0.234559769547    -0.000062853931    15.994914619570
         N           -1.149530304586    -0.481232230453     0.000194146069    14.003074004430
         N            0.674970695414     0.957974769547     0.000277146069    14.003074004430
         C           -0.708940304586     0.839454769547    -0.000309853931    12.000000000000
         C           -0.264147304586    -1.541723230453     0.000039146069    12.000000000000
         C           -2.489712204586    -0.719416830453    -0.000057353931    12.000000000000
         C            1.079151695414    -1.384015230453     0.000071146069    12.000000000000
         C            1.650437695414    -0.045889230453    -0.000221853931    12.000000000000
         H           -0.736241304586    -2.519944230453     0.000174146069     1.007825032230
         H           -2.871313304586    -1.297925230453     0.893630146069     1.007825032230
         H           -2.870700304586    -1.299005230453    -0.893345853931     1.007825032230
         H           -3.088662304586     0.228560769547    -0.000820853931     1.007825032230
         H            1.014331695414     1.917549769547     0.000314146069     1.007825032230
         H            1.756790695414    -2.227870230453    -0.000089853931     1.007825032230

  Basis Set: AUG-CC-PVTZ
    Blend: AUG-CC-PVTZ
  Basis Set: (AUG-CC-PVTZ AUX)
    Blend: AUG-CC-PVTZ-JKFIT
	 Reference Energy          =    -451.6493608663413966 [Eh]
	 Singles Energy            =      -0.0000000000000000 [Eh]
	 Same-Spin Energy          =      -0.4590702424935106 [Eh]
	 Opposite-Spin Energy      =      -1.3858323132250439 [Eh]
	 Correlation Energy        =      -1.8449025557185545 [Eh]
	 Total Energy              =    -453.4942634220599302 [Eh]

	 ================> DF-SCS-MP2 Energies <==================
	-----------------------------------------------------------
	 SCS Same-Spin Scale       =       0.3333333333333333 [-]
	 SCS Opposite-Spin Scale   =       1.2000000000000000 [-]
	 SCS Same-Spin Energy      =      -0.1530234141645035 [Eh]
	 SCS Opposite-Spin Energy  =      -1.6629987758700526 [Eh]
	 SCS Correlation Energy    =      -1.8160221900345561 [Eh]
	 SCS Total Energy          =    -453.4653830563759698 [Eh]
	-----------------------------------------------------------

  Dipole Moment: [D]
     X:    -2.8719      Y:    -3.4154      Z:    -0.0009     Total:     4.4624

*** Psi4 exiting successfully. Buy a developer a beer!
