                               Psi4 1.3.2 release

  ==> Input File <==

--------------------------------------------------------------------------
#psi4
#
memory 32 gb

molecule  {
0 1
  O       -1.3424532     1.8932805    -0.0000192
  O        2.9082060     0.2751580    -0.0000600
  N       -1.0198408    -0.4618828     0.0001549
  N        0.7349370     0.9985730     0.0002800
  C       -0.6489740     0.8800530    -0.0003070
  C       -0.2041810    -1.5011250     0.0000420
  C       -2.5282030    -0.6963170    -0.0000730
  C        1.1391180    -1.3434170     0.0000740
  C        1.7104040    -0.0052910    -0.0002190
  H       -0.6762750    -2.4793460     0.0001770
  H       -2.8113470    -1.2573270     0.8936330
  H       -2.8107340    -1.2584070    -0.8933430
  H       -3.0286960     0.2691590    -0.0008180
  H        1.0742980     1.9581480     0.0003170
  H        1.8167570    -2.1872720    -0.0000870
units angstrom
no_reorient  #important for SAPT in psi4, default
symmetry c1  #important for SAPT in psi4, default
}

set PROPERTIES_ORIGIN ["COM"]
properties('MP2/aug-cc-pvtz', properties = ['dipole'])
--------------------------------------------------------------------------

    Molecular point group: c1
  Charge       = 0
  Multiplicity = 1
  Basis Set: AUG-CC-PVTZ
    Blend: AUG-CC-PVTZ
  Basis Set: (AUG-CC-PVTZ AUX)
    Blend: AUG-CC-PVTZ-JKFIT

    Orbital Energies [Eh]
    ---------------------

    Doubly Occupied:

       1A    -20.550282     2A    -20.532063     3A    -15.649592
       4A    -15.620711     5A    -11.421286     6A    -11.373881
       7A    -11.332845     8A    -11.300680     9A    -11.248418
      10A     -1.430590    11A     -1.382910    12A     -1.326135
      13A     -1.240060    14A     -1.087664    15A     -0.989106
      16A     -0.940175    17A     -0.872615    18A     -0.772008
      19A     -0.747422    20A     -0.706341    21A     -0.687010
      22A     -0.658346    23A     -0.637097    24A     -0.614932
      25A     -0.607411    26A     -0.588796    27A     -0.581819
      28A     -0.553236    29A     -0.514318    30A     -0.482068
      31A     -0.440682    32A     -0.429031    33A     -0.354854

  @DF-RHF Final Energy:  -451.65137386667851

   => Energetics <=

    Nuclear Repulsion Energy =            441.6778587450854729
    One-Electron Energy =               -1491.3096998879923376
    Two-Electron Energy =                 597.9804672762284099
    Total Energy =                       -451.6513738666785684
  Basis Set: (AUG-CC-PVTZ AUX)
    Blend: AUG-CC-PVTZ-RI
    Molecular point group: c1

    Geometry (in Angstrom), charge = 0, multiplicity = 1:

       Center              X                  Y                   Z               Mass
    ------------   -----------------  -----------------  -----------------  -----------------
         O           -1.407400616234     1.851926978844    -0.000010514013    15.994914619570
         O            2.843258583766     0.233804478844    -0.000051314013    15.994914619570
         N           -1.084788216234    -0.503236321156     0.000163585987    14.003074004430
         N            0.669989583766     0.957219478844     0.000288685987    14.003074004430
         C           -0.713921416234     0.838699478844    -0.000298314013    12.000000000000
         C           -0.269128416234    -1.542478521156     0.000050685987    12.000000000000
         C           -2.593150416234    -0.737670521156    -0.000064314013    12.000000000000
         C            1.074170583766    -1.384770521156     0.000082685987    12.000000000000
         C            1.645456583766    -0.046644521156    -0.000210314013    12.000000000000
         H           -0.741222416234    -2.520699521156     0.000185685987     1.007825032230
         H           -2.876294416234    -1.298680521156     0.893641685987     1.007825032230
         H           -2.875681416234    -1.299760521156    -0.893334314013     1.007825032230
         H           -3.093643416234     0.227805478844    -0.000809314013     1.007825032230
         H            1.009350583766     1.916794478844     0.000325685987     1.007825032230
         H            1.751809583766    -2.228625521156    -0.000078314013     1.007825032230

  Basis Set: AUG-CC-PVTZ
    Blend: AUG-CC-PVTZ
  Basis Set: (AUG-CC-PVTZ AUX)
    Blend: AUG-CC-PVTZ-JKFIT
	 Reference Energy          =    -451.6513738666785116 [Eh]
	 Singles Energy            =      -0.0000000000000000 [Eh]
	 Same-Spin Energy          =      -0.4587343094638781 [Eh]
	 Opposite-Spin Energy      =      -1.3856090566989576 [Eh]
	 Correlation Energy        =      -1.8443433661628357 [Eh]
	 Total Energy              =    -453.4957172328413435 [Eh]

	 ================> DF-SCS-MP2 Energies <==================
	-----------------------------------------------------------
	 SCS Same-Spin Scale       =       0.3333333333333333 [-]
	 SCS Opposite-Spin Scale   =       1.2000000000000000 [-]
	 SCS Same-Spin Energy      =      -0.1529114364879594 [Eh]
	 SCS Opposite-Spin Energy  =      -1.6627308680387491 [Eh]
	 SCS Correlation Energy    =      -1.8156423045267085 [Eh]
	 SCS Total Energy          =    -453.4670161712052163 [Eh]
	-----------------------------------------------------------

  Dipole Moment: [D]
     X:    -3.7745      Y:    -3.5715      Z:    -0.0008     Total:     5.1964

*** Psi4 exiting successfully. Buy a developer a beer!
