                               Psi4 1.3.2 release

  ==> Input File <==

--------------------------------------------------------------------------
#psi4
#
memory 32 gb

molecule  {
0 1
  O       -1.3945310     1.8555980     0.0000210
  O        2.9082060     0.2751580    -0.0000600
  N       -1.0895640    -0.4406340     0.0001970
  N        0.7349370     0.9985730     0.0002800
  C       -0.6489740     0.8800530    -0.0003070
  C       -0.1949603    -1.4933583     0.0000453
  C       -2.5303794    -0.6837529    -0.0000700
  C        1.1391180    -1.3434170     0.0000740
  C        1.7104040    -0.0052910    -0.0002190
  H       -0.6762750    -2.4793460     0.0001770
  H       -2.8113470    -1.2573270     0.8936330
  H       -2.8107340    -1.2584070    -0.8933430
  H       -3.0286960     0.2691590    -0.0008180
  H        1.0742980     1.9581480     0.0003170
  H        1.8167570    -2.1872720    -0.0000870
units angstrom
no_reorient  #important for SAPT in psi4, default
symmetry c1  #important for SAPT in psi4, default
}

set PROPERTIES_ORIGIN ["COM"]
properties('MP2/aug-cc-pvtz', properties = ['dipole'])
--------------------------------------------------------------------------

    Molecular point group: c1
  Charge       = 0
  Multiplicity = 1
  Basis Set: AUG-CC-PVTZ
    Blend: AUG-CC-PVTZ
  Basis Set: (AUG-CC-PVTZ AUX)
    Blend: AUG-CC-PVTZ-JKFIT

    Orbital Energies [Eh]
    ---------------------

    Doubly Occupied:

       1A    -20.545246     2A    -20.539078     3A    -15.644130
       4A    -15.626470     5A    -11.417954     6A    -11.379936
       7A    -11.336475     8A    -11.290283     9A    -11.255347
      10A     -1.428355    11A     -1.388313    12A     -1.312240
      13A     -1.245516    14A     -1.093723    15A     -0.989621
      16A     -0.929256    17A     -0.872842    18A     -0.772386
      19A     -0.752590    20A     -0.697307    21A     -0.684465
      22A     -0.657826    23A     -0.644653    24A     -0.613259
      25A     -0.610904    26A     -0.602919    27A     -0.574269
      28A     -0.553886    29A     -0.499402    30A     -0.479561
      31A     -0.446226    32A     -0.433081    33A     -0.362041

  @DF-RHF Final Energy:  -451.66063860190462

   => Energetics <=

    Nuclear Repulsion Energy =            441.3877400757841087
    One-Electron Energy =               -1490.7376424058527391
    Two-Electron Energy =                 597.6892637281640646
    Total Energy =                       -451.6606386019046795
  Basis Set: (AUG-CC-PVTZ AUX)
    Blend: AUG-CC-PVTZ-RI
    Molecular point group: c1

    Geometry (in Angstrom), charge = 0, multiplicity = 1:

       Center              X                  Y                   Z               Mass
    ------------   -----------------  -----------------  -----------------  -----------------
         O           -1.445794288699     1.814730109038     0.000019307578    15.994914619570
         O            2.856942711301     0.234290109038    -0.000061692422    15.994914619570
         N           -1.140827288699    -0.481501890962     0.000195307578    14.003074004430
         N            0.683673711301     0.957705109038     0.000278307578    14.003074004430
         C           -0.700237288699     0.839185109038    -0.000308692422    12.000000000000
         C           -0.246223588699    -1.534226190962     0.000043607578    12.000000000000
         C           -2.581642688699    -0.724620790962    -0.000071692422    12.000000000000
         C            1.087854711301    -1.384284890962     0.000072307578    12.000000000000
         C            1.659140711301    -0.046158890962    -0.000220692422    12.000000000000
         H           -0.727538288699    -2.520213890962     0.000175307578     1.007825032230
         H           -2.862610288699    -1.298194890962     0.893631307578     1.007825032230
         H           -2.861997288699    -1.299274890962    -0.893344692422     1.007825032230
         H           -3.079959288699     0.228291109038    -0.000819692422     1.007825032230
         H            1.023034711301     1.917280109038     0.000315307578     1.007825032230
         H            1.765493711301    -2.228139890962    -0.000088692422     1.007825032230

  Basis Set: AUG-CC-PVTZ
    Blend: AUG-CC-PVTZ
  Basis Set: (AUG-CC-PVTZ AUX)
    Blend: AUG-CC-PVTZ-JKFIT
	 Reference Energy          =    -451.6606386019046226 [Eh]
	 Singles Energy            =      -0.0000000000000000 [Eh]
	 Same-Spin Energy          =      -0.4579188783820484 [Eh]
	 Opposite-Spin Energy      =      -1.3845448188929836 [Eh]
	 Correlation Energy        =      -1.8424636972750321 [Eh]
	 Total Energy              =    -453.5031022991796590 [Eh]

	 ================> DF-SCS-MP2 Energies <==================
	-----------------------------------------------------------
	 SCS Same-Spin Scale       =       0.3333333333333333 [-]
	 SCS Opposite-Spin Scale   =       1.2000000000000000 [-]
	 SCS Same-Spin Energy      =      -0.1526396261273495 [Eh]
	 SCS Opposite-Spin Energy  =      -1.6614537826715803 [Eh]
	 SCS Correlation Energy    =      -1.8140934087989298 [Eh]
	 SCS Total Energy          =    -453.4747320107035762 [Eh]
	-----------------------------------------------------------

  Dipole Moment: [D]
     X:    -3.2197      Y:    -3.5356      Z:    -0.0009     Total:     4.7819

*** Psi4 exiting successfully. Buy a developer a beer!
