                               Psi4 1.4a3.dev225

  ==> Input File <==

--------------------------------------------------------------------------
#psi4
#
memory 32 gb

molecule  {
0 1
  O       -1.4350980    -1.8086910     0.0000000
  O        2.9075840    -0.3082450     0.0000000
  N       -1.0785060     0.4619330     0.0000000
  N        0.7249750    -1.0056720    -0.0000010
  C       -0.6836237    -0.9025943     0.0000000
  C       -0.1841290     1.5083600     0.0000000
  C       -2.5245930     0.6731660     0.0000000
  C        1.1582900     1.3329580     0.0000000
  C        1.7164880    -0.0081480     0.0000000
  H       -0.6338540     2.4967290    -0.0000010
  H       -2.9690000     0.2175100    -0.8862740
  H       -2.7140630     1.7465080     0.0000000
  H       -2.9689990     0.2175090     0.8862740
  H        1.0585810    -1.9665760     0.0000000
  H        1.8360540     2.1766110     0.0000000
units angstrom
no_reorient  #important for SAPT in psi4, default
symmetry c1  #important for SAPT in psi4, default
}

set PROPERTIES_ORIGIN ["COM"]
properties('MP2/aug-cc-pvtz', properties = ['dipole'])
--------------------------------------------------------------------------

    Molecular point group: c1
  Charge       = 0
  Multiplicity = 1
  Basis Set: AUG-CC-PVTZ
    Blend: AUG-CC-PVTZ
  Basis Set: (AUG-CC-PVTZ AUX)
    Blend: AUG-CC-PVTZ-JKFIT

    Orbital Energies [Eh]
    ---------------------

    Doubly Occupied:

       1A    -20.559842     2A    -20.534500     3A    -15.639388
       4A    -15.620556     5A    -11.417516     6A    -11.376190
       7A    -11.335194     8A    -11.290630     9A    -11.248743
      10A     -1.456146    11A     -1.388330    12A     -1.312788
      13A     -1.236559    14A     -1.087480    15A     -0.982503
      16A     -0.925273    17A     -0.866803    18A     -0.766430
      19A     -0.746218    20A     -0.703104    21A     -0.685075
      22A     -0.669344    23A     -0.643764    24A     -0.609352
      25A     -0.604675    26A     -0.601360    27A     -0.577589
      28A     -0.561059    29A     -0.502763    30A     -0.489130
      31A     -0.443776    32A     -0.433364    33A     -0.354624

  @DF-RHF Final Energy:  -451.65921273109768

   => Energetics <=

    Nuclear Repulsion Energy =            441.3628649019506724
    One-Electron Energy =               -1490.7040226442238691
    Two-Electron Energy =                 597.6819450111755714
    Total Energy =                       -451.6592127310976821
  Basis Set: (AUG-CC-PVTZ AUX)
    Blend: AUG-CC-PVTZ-RI
    Molecular point group: c1

    Geometry (in Angstrom), charge = 0, multiplicity = 1:

       Center              X                  Y                   Z               Mass
    ------------   -----------------  -----------------  -----------------  -----------------
         O           -1.482301455470    -1.766619733454     0.000000119094    15.994914619570
         O            2.860380544530    -0.266173733454     0.000000119094    15.994914619570
         N           -1.125709455470     0.504004266546     0.000000119094    14.003074004430
         N            0.677771544530    -0.963600733454    -0.000000880906    14.003074004430
         C           -0.730827155470    -0.860523033454     0.000000119094    12.000000000000
         C           -0.231332455470     1.550431266546     0.000000119094    12.000000000000
         C           -2.571796455470     0.715237266546     0.000000119094    12.000000000000
         C            1.111086544530     1.375029266546     0.000000119094    12.000000000000
         C            1.669284544530     0.033923266546     0.000000119094    12.000000000000
         H           -0.681057455470     2.538800266546    -0.000000880906     1.007825032230
         H           -3.016203455470     0.259581266546    -0.886273880906     1.007825032230
         H           -2.761266455470     1.788579266546     0.000000119094     1.007825032230
         H           -3.016202455470     0.259580266546     0.886274119094     1.007825032230
         H            1.011377544530    -1.924504733454     0.000000119094     1.007825032230
         H            1.788850544530     2.218682266546     0.000000119094     1.007825032230

  Basis Set: AUG-CC-PVTZ
    Blend: AUG-CC-PVTZ
  Basis Set: (AUG-CC-PVTZ AUX)
    Blend: AUG-CC-PVTZ-JKFIT
	 Reference Energy          =    -451.6592127310976821 [Eh]
	 Singles Energy            =      -0.0000000000000000 [Eh]
	 Same-Spin Energy          =      -0.4573325063876508 [Eh]
	 Opposite-Spin Energy      =      -1.3834089918352241 [Eh]
	 Correlation Energy        =      -1.8407414982228749 [Eh]
	 Total Energy              =    -453.4999542293205650 [Eh]

	 ================> DF-SCS-MP2 Energies <==================
	-----------------------------------------------------------
	 SCS Same-Spin Scale       =       0.3333333333333333 [-]
	 SCS Opposite-Spin Scale   =       1.2000000000000000 [-]
	 SCS Same-Spin Energy      =      -0.1524441687958836 [Eh]
	 SCS Opposite-Spin Energy  =      -1.6600907902022690 [Eh]
	 SCS Correlation Energy    =      -1.8125349589981525 [Eh]
	 SCS Total Energy          =    -453.4717476900958104 [Eh]
	-----------------------------------------------------------

  Dipole Moment: [D]
     X:    -3.5522      Y:     3.1512      Z:     0.0000     Total:     4.7485

*** Psi4 exiting successfully. Buy a developer a beer!
