                               Psi4 1.3.2 release

  ==> Input File <==

--------------------------------------------------------------------------
#psi4
#
memory 32 gb

molecule  {
0 1
  O       -1.3945310     1.8555980     0.0000210
  O        2.9082060     0.2751580    -0.0000600
  N       -1.0895640    -0.4406340     0.0001970
  N        0.7349370     0.9985730     0.0002800
  C       -0.6489740     0.8800530    -0.0003070
  C       -0.2041810    -1.5011250     0.0000420
  C       -2.5282030    -0.6963170    -0.0000730
  C        1.1391180    -1.3434170     0.0000740
  C        1.6927356    -0.0221624    -0.0002156
  H       -0.6762750    -2.4793460     0.0001770
  H       -2.8113470    -1.2573270     0.8936330
  H       -2.8107340    -1.2584070    -0.8933430
  H       -3.0286960     0.2691590    -0.0008180
  H        1.0574994     1.9639245     0.0003237
  H        1.8167570    -2.1872720    -0.0000870
units angstrom
no_reorient  #important for SAPT in psi4, default
symmetry c1  #important for SAPT in psi4, default
}

set PROPERTIES_ORIGIN ["COM"]
properties('MP2/aug-cc-pvtz', properties = ['dipole'])
--------------------------------------------------------------------------

    Molecular point group: c1
  Charge       = 0
  Multiplicity = 1
  Basis Set: AUG-CC-PVTZ
    Blend: AUG-CC-PVTZ
  Basis Set: (AUG-CC-PVTZ AUX)
    Blend: AUG-CC-PVTZ-JKFIT

    Orbital Energies [Eh]
    ---------------------

    Doubly Occupied:

       1A    -20.546286     2A    -20.534364     3A    -15.646776
       4A    -15.627859     5A    -11.418702     6A    -11.379755
       7A    -11.340563     8A    -11.291352     9A    -11.256526
      10A     -1.428824    11A     -1.375404    12A     -1.313400
      13A     -1.244281    14A     -1.096160    15A     -0.990903
      16A     -0.935184    17A     -0.872182    18A     -0.772773
      19A     -0.755997    20A     -0.701437    21A     -0.686557
      22A     -0.657378    23A     -0.641955    24A     -0.614562
      25A     -0.611804    26A     -0.598491    27A     -0.573559
      28A     -0.550546    29A     -0.500758    30A     -0.480200
      31A     -0.443903    32A     -0.430472    33A     -0.362011

  @DF-RHF Final Energy:  -451.65751046301727

   => Energetics <=

    Nuclear Repulsion Energy =            441.2547410065675990
    One-Electron Energy =               -1490.4626523046902093
    Two-Electron Energy =                 597.5504008351052789
    Total Energy =                       -451.6575104630172746
  Basis Set: (AUG-CC-PVTZ AUX)
    Blend: AUG-CC-PVTZ-RI
    Molecular point group: c1

    Geometry (in Angstrom), charge = 0, multiplicity = 1:

       Center              X                  Y                   Z               Mass
    ------------   -----------------  -----------------  -----------------  -----------------
         O           -1.443307180092     1.818225780771     0.000019530102    15.994914619570
         O            2.859429819908     0.237785780771    -0.000061469898    15.994914619570
         N           -1.138340180092    -0.478006219229     0.000195530102    14.003074004430
         N            0.686160819908     0.961200780771     0.000278530102    14.003074004430
         C           -0.697750180092     0.842680780771    -0.000308469898    12.000000000000
         C           -0.252957180092    -1.538497219229     0.000040530102    12.000000000000
         C           -2.576979180092    -0.733689219229    -0.000074469898    12.000000000000
         C            1.090341819908    -1.380789219229     0.000072530102    12.000000000000
         C            1.643959419908    -0.059534619229    -0.000217069898    12.000000000000
         H           -0.725051180092    -2.516718219229     0.000175530102     1.007825032230
         H           -2.860123180092    -1.294699219229     0.893631530102     1.007825032230
         H           -2.859510180092    -1.295779219229    -0.893344469898     1.007825032230
         H           -3.077472180092     0.231786780771    -0.000819469898     1.007825032230
         H            1.008723219908     1.926552280771     0.000322230102     1.007825032230
         H            1.767980819908    -2.224644219229    -0.000088469898     1.007825032230

  Basis Set: AUG-CC-PVTZ
    Blend: AUG-CC-PVTZ
  Basis Set: (AUG-CC-PVTZ AUX)
    Blend: AUG-CC-PVTZ-JKFIT
	 Reference Energy          =    -451.6575104630172746 [Eh]
	 Singles Energy            =      -0.0000000000000000 [Eh]
	 Same-Spin Energy          =      -0.4587269834451601 [Eh]
	 Opposite-Spin Energy      =      -1.3859136522671172 [Eh]
	 Correlation Energy        =      -1.8446406357122773 [Eh]
	 Total Energy              =    -453.5021510987295414 [Eh]

	 ================> DF-SCS-MP2 Energies <==================
	-----------------------------------------------------------
	 SCS Same-Spin Scale       =       0.3333333333333333 [-]
	 SCS Opposite-Spin Scale   =       1.2000000000000000 [-]
	 SCS Same-Spin Energy      =      -0.1529089944817200 [Eh]
	 SCS Opposite-Spin Energy  =      -1.6630963827205405 [Eh]
	 SCS Correlation Energy    =      -1.8160053772022606 [Eh]
	 SCS Total Energy          =    -453.4735158402195339 [Eh]
	-----------------------------------------------------------

  Dipole Moment: [D]
     X:    -3.4262      Y:    -3.6183      Z:    -0.0008     Total:     4.9830

*** Psi4 exiting successfully. Buy a developer a beer!
