                               Psi4 1.3.2 release

  ==> Input File <==

--------------------------------------------------------------------------
#psi4
#
memory 32 gb

molecule  {
0 1
  O       -1.3859895     1.8620670     0.0000144
  O        2.9082060     0.2751580    -0.0000600
  N       -1.0780222    -0.4444285     0.0001901
  N        0.7349370     0.9985730     0.0002800
  C       -0.6489740     0.8800530    -0.0003070
  C       -0.2041810    -1.5011250     0.0000420
  C       -2.5282030    -0.6963170    -0.0000730
  C        1.1391180    -1.3434170     0.0000740
  C        1.7104040    -0.0052910    -0.0002190
  H       -0.6762750    -2.4793460     0.0001770
  H       -2.8113470    -1.2573270     0.8936330
  H       -2.8107340    -1.2584070    -0.8933430
  H       -3.0286960     0.2691590    -0.0008180
  H        1.0742980     1.9581480     0.0003170
  H        1.8167570    -2.1872720    -0.0000870
units angstrom
no_reorient  #important for SAPT in psi4, default
symmetry c1  #important for SAPT in psi4, default
}

set PROPERTIES_ORIGIN ["COM"]
properties('MP2/aug-cc-pvtz', properties = ['dipole'])
--------------------------------------------------------------------------

    Molecular point group: c1
  Charge       = 0
  Multiplicity = 1
  Basis Set: AUG-CC-PVTZ
    Blend: AUG-CC-PVTZ
  Basis Set: (AUG-CC-PVTZ AUX)
    Blend: AUG-CC-PVTZ-JKFIT

    Orbital Energies [Eh]
    ---------------------

    Doubly Occupied:

       1A    -20.546293     2A    -20.537708     3A    -15.645365
       4A    -15.625590     5A    -11.418909     6A    -11.378872
       7A    -11.336466     8A    -11.291785     9A    -11.254908
      10A     -1.428623    11A     -1.387265    12A     -1.314458
      13A     -1.244648    14A     -1.090563    15A     -0.989514
      16A     -0.932145    17A     -0.872531    18A     -0.771949
      19A     -0.751502    20A     -0.700940    21A     -0.685410
      22A     -0.657604    23A     -0.643206    24A     -0.614833
      25A     -0.609450    26A     -0.600319    27A     -0.573957
      28A     -0.554089    29A     -0.501902    30A     -0.480425
      31A     -0.445268    32A     -0.432394    33A     -0.359772

  @DF-RHF Final Energy:  -451.66027583896926

   => Energetics <=

    Nuclear Repulsion Energy =            441.2452277736992983
    One-Electron Energy =               -1490.4536776091281354
    Two-Electron Energy =                 597.5481739964595818
    Total Energy =                       -451.6602758389692553
  Basis Set: (AUG-CC-PVTZ AUX)
    Blend: AUG-CC-PVTZ-RI
    Molecular point group: c1

    Geometry (in Angstrom), charge = 0, multiplicity = 1:

       Center              X                  Y                   Z               Mass
    ------------   -----------------  -----------------  -----------------  -----------------
         O           -1.438948319318     1.822735356771     0.000014911491    15.994914619570
         O            2.855247180682     0.235826356771    -0.000059488509    15.994914619570
         N           -1.130981019318    -0.483760143229     0.000190611491    14.003074004430
         N            0.681978180682     0.959241356771     0.000280511491    14.003074004430
         C           -0.701932819318     0.840721356771    -0.000306488509    12.000000000000
         C           -0.257139819318    -1.540456643229     0.000042511491    12.000000000000
         C           -2.581161819318    -0.735648643229    -0.000072488509    12.000000000000
         C            1.086159180682    -1.382748643229     0.000074511491    12.000000000000
         C            1.657445180682    -0.044622643229    -0.000218488509    12.000000000000
         H           -0.729233819318    -2.518677643229     0.000177511491     1.007825032230
         H           -2.864305819318    -1.296658643229     0.893633511491     1.007825032230
         H           -2.863692819318    -1.297738643229    -0.893342488509     1.007825032230
         H           -3.081654819318     0.229827356771    -0.000817488509     1.007825032230
         H            1.021339180682     1.918816356771     0.000317511491     1.007825032230
         H            1.763798180682    -2.226603643229    -0.000086488509     1.007825032230

  Basis Set: AUG-CC-PVTZ
    Blend: AUG-CC-PVTZ
  Basis Set: (AUG-CC-PVTZ AUX)
    Blend: AUG-CC-PVTZ-JKFIT
	 Reference Energy          =    -451.6602758389692553 [Eh]
	 Singles Energy            =      -0.0000000000000000 [Eh]
	 Same-Spin Energy          =      -0.4581176991538340 [Eh]
	 Opposite-Spin Energy      =      -1.3848567781746870 [Eh]
	 Correlation Energy        =      -1.8429744773285210 [Eh]
	 Total Energy              =    -453.5032503162977946 [Eh]

	 ================> DF-SCS-MP2 Energies <==================
	-----------------------------------------------------------
	 SCS Same-Spin Scale       =       0.3333333333333333 [-]
	 SCS Opposite-Spin Scale   =       1.2000000000000000 [-]
	 SCS Same-Spin Energy      =      -0.1527058997179447 [Eh]
	 SCS Opposite-Spin Energy  =      -1.6618281338096244 [Eh]
	 SCS Correlation Energy    =      -1.8145340335275690 [Eh]
	 SCS Total Energy          =    -453.4748098724968486 [Eh]
	-----------------------------------------------------------

  Dipole Moment: [D]
     X:    -3.3254      Y:    -3.5465      Z:    -0.0008     Total:     4.8617

*** Psi4 exiting successfully. Buy a developer a beer!
