                               Psi4 1.4a3.dev225

  ==> Input File <==

--------------------------------------------------------------------------
#psi4
#
memory 32 gb

molecule  {
0 1
  O       -1.4350980    -1.8086910     0.0000000
  O        2.9075840    -0.3082450     0.0000000
  N       -1.0785060     0.4619330     0.0000000
  N        0.7249750    -1.0056720    -0.0000010
  C       -0.6517050    -0.8641080     0.0000000
  C       -0.1841290     1.5083600     0.0000000
  C       -2.5245930     0.6731660     0.0000000
  C        1.1384586     1.3355492     0.0000000
  C        1.7164880    -0.0081480     0.0000000
  H       -0.6338540     2.4967290    -0.0000010
  H       -2.9690000     0.2175100    -0.8862740
  H       -2.7140630     1.7465080     0.0000000
  H       -2.9689990     0.2175090     0.8862740
  H        1.0585810    -1.9665760     0.0000000
  H        1.8360540     2.1766110     0.0000000
units angstrom
no_reorient  #important for SAPT in psi4, default
symmetry c1  #important for SAPT in psi4, default
}

set PROPERTIES_ORIGIN ["COM"]
properties('MP2/aug-cc-pvtz', properties = ['dipole'])
--------------------------------------------------------------------------

    Molecular point group: c1
  Charge       = 0
  Multiplicity = 1
  Basis Set: AUG-CC-PVTZ
    Blend: AUG-CC-PVTZ
  Basis Set: (AUG-CC-PVTZ AUX)
    Blend: AUG-CC-PVTZ-JKFIT

    Orbital Energies [Eh]
    ---------------------

    Doubly Occupied:

       1A    -20.545411     2A    -20.540870     3A    -15.643039
       4A    -15.626605     5A    -11.415751     6A    -11.381682
       7A    -11.334188     8A    -11.291808     9A    -11.253297
      10A     -1.428740    11A     -1.389853    12A     -1.311738
      13A     -1.246262    14A     -1.094211    15A     -0.988093
      16A     -0.929463    17A     -0.872931    18A     -0.773067
      19A     -0.750818    20A     -0.701694    21A     -0.685667
      22A     -0.658177    23A     -0.643690    24A     -0.610379
      25A     -0.606169    26A     -0.603131    27A     -0.576541
      28A     -0.550685    29A     -0.504356    30A     -0.479715
      31A     -0.446885    32A     -0.433184    33A     -0.360982

  @DF-RHF Final Energy:  -451.66139235021473

   => Energetics <=

    Nuclear Repulsion Energy =            441.7746549362513520
    One-Electron Energy =               -1491.5139283644116404
    Two-Electron Energy =                 598.0778810779454489
    Total Energy =                       -451.6613923502147827
  Basis Set: (AUG-CC-PVTZ AUX)
    Blend: AUG-CC-PVTZ-RI
    Molecular point group: c1

    Geometry (in Angstrom), charge = 0, multiplicity = 1:

       Center              X                  Y                   Z               Mass
    ------------   -----------------  -----------------  -----------------  -----------------
         O           -1.483452234835    -1.770530543922     0.000000119094    15.994914619570
         O            2.859229765165    -0.270084543922     0.000000119094    15.994914619570
         N           -1.126860234835     0.500093456078     0.000000119094    14.003074004430
         N            0.676620765165    -0.967511543922    -0.000000880906    14.003074004430
         C           -0.700059234835    -0.825947543922     0.000000119094    12.000000000000
         C           -0.232483234835     1.546520456078     0.000000119094    12.000000000000
         C           -2.572947234835     0.711326456078     0.000000119094    12.000000000000
         C            1.090104365165     1.373709656078     0.000000119094    12.000000000000
         C            1.668133765165     0.030012456078     0.000000119094    12.000000000000
         H           -0.682208234835     2.534889456078    -0.000000880906     1.007825032230
         H           -3.017354234835     0.255670456078    -0.886273880906     1.007825032230
         H           -2.762417234835     1.784668456078     0.000000119094     1.007825032230
         H           -3.017353234835     0.255669456078     0.886274119094     1.007825032230
         H            1.010226765165    -1.928415543922     0.000000119094     1.007825032230
         H            1.787699765165     2.214771456078     0.000000119094     1.007825032230

  Basis Set: AUG-CC-PVTZ
    Blend: AUG-CC-PVTZ
  Basis Set: (AUG-CC-PVTZ AUX)
    Blend: AUG-CC-PVTZ-JKFIT
	 Reference Energy          =    -451.6613923502147259 [Eh]
	 Singles Energy            =      -0.0000000000000000 [Eh]
	 Same-Spin Energy          =      -0.4578079607265824 [Eh]
	 Opposite-Spin Energy      =      -1.3843082315072364 [Eh]
	 Correlation Energy        =      -1.8421161922338187 [Eh]
	 Total Energy              =    -453.5035085424485715 [Eh]

	 ================> DF-SCS-MP2 Energies <==================
	-----------------------------------------------------------
	 SCS Same-Spin Scale       =       0.3333333333333333 [-]
	 SCS Opposite-Spin Scale   =       1.2000000000000000 [-]
	 SCS Same-Spin Energy      =      -0.1526026535755274 [Eh]
	 SCS Opposite-Spin Energy  =      -1.6611698778086836 [Eh]
	 SCS Correlation Energy    =      -1.8137725313842110 [Eh]
	 SCS Total Energy          =    -453.4751648815989142 [Eh]
	-----------------------------------------------------------

  Dipole Moment: [D]
     X:    -3.1484      Y:     3.5370      Z:     0.0000     Total:     4.7352

*** Psi4 exiting successfully. Buy a developer a beer!
