                               Psi4 1.3.2 release

  ==> Input File <==

--------------------------------------------------------------------------
#psi4
#
memory 32 gb

molecule  {
0 1
  O       -1.3945310     1.8555980     0.0000210
  O        2.9082060     0.2751580    -0.0000600
  N       -1.0895640    -0.4406340     0.0001970
  N        0.7349370     0.9985730     0.0002800
  C       -0.6489740     0.8800530    -0.0003070
  C       -0.2041810    -1.5011250     0.0000420
  C       -2.5282030    -0.6963170    -0.0000730
  C        1.1391180    -1.3434170     0.0000740
  C        1.7336705    -0.0154651    -0.0002260
  H       -0.6762750    -2.4793460     0.0001770
  H       -2.8113470    -1.2573270     0.8936330
  H       -2.8107340    -1.2584070    -0.8933430
  H       -3.0286960     0.2691590    -0.0008180
  H        1.0742980     1.9581480     0.0003170
  H        1.8313811    -2.1753170    -0.0000928
units angstrom
no_reorient  #important for SAPT in psi4, default
symmetry c1  #important for SAPT in psi4, default
}

set PROPERTIES_ORIGIN ["COM"]
properties('MP2/aug-cc-pvtz', properties = ['dipole'])
--------------------------------------------------------------------------

    Molecular point group: c1
  Charge       = 0
  Multiplicity = 1
  Basis Set: AUG-CC-PVTZ
    Blend: AUG-CC-PVTZ
  Basis Set: (AUG-CC-PVTZ AUX)
    Blend: AUG-CC-PVTZ-JKFIT

    Orbital Energies [Eh]
    ---------------------

    Doubly Occupied:

       1A    -20.543933     2A    -20.542845     3A    -15.643034
       4A    -15.621820     5A    -11.415845     6A    -11.380073
       7A    -11.337604     8A    -11.288948     9A    -11.255504
      10A     -1.426807    11A     -1.400323    12A     -1.310817
      13A     -1.239852    14A     -1.090265    15A     -0.987825
      16A     -0.929981    17A     -0.866469    18A     -0.769140
      19A     -0.751109    20A     -0.699501    21A     -0.683214
      22A     -0.657883    23A     -0.645895    24A     -0.613656
      25A     -0.608650    26A     -0.606771    27A     -0.570641
      28A     -0.558033    29A     -0.498228    30A     -0.479855
      31A     -0.447192    32A     -0.432985    33A     -0.360677

  @DF-RHF Final Energy:  -451.66090688468563

   => Energetics <=

    Nuclear Repulsion Energy =            441.0066182960210881
    One-Electron Energy =               -1490.0042972734611340
    Two-Electron Energy =                 597.3367720927543587
    Total Energy =                       -451.6609068846856871
  Basis Set: (AUG-CC-PVTZ AUX)
    Blend: AUG-CC-PVTZ-RI
    Molecular point group: c1

    Geometry (in Angstrom), charge = 0, multiplicity = 1:

       Center              X                  Y                   Z               Mass
    ------------   -----------------  -----------------  -----------------  -----------------
         O           -1.447455666598     1.817538757320     0.000020620190    15.994914619570
         O            2.855281333402     0.237098757320    -0.000060379810    15.994914619570
         N           -1.142488666598    -0.478693242680     0.000196620190    14.003074004430
         N            0.682012333402     0.960513757320     0.000279620190    14.003074004430
         C           -0.701898666598     0.841993757320    -0.000307379810    12.000000000000
         C           -0.257105666598    -1.539184242680     0.000041620190    12.000000000000
         C           -2.581127666598    -0.734376242680    -0.000073379810    12.000000000000
         C            1.086193333402    -1.381476242680     0.000073620190    12.000000000000
         C            1.680745833402    -0.053524342680    -0.000226379810    12.000000000000
         H           -0.729199666598    -2.517405242680     0.000176620190     1.007825032230
         H           -2.864271666598    -1.295386242680     0.893632620190     1.007825032230
         H           -2.863658666598    -1.296466242680    -0.893343379810     1.007825032230
         H           -3.081620666598     0.231099757320    -0.000818379810     1.007825032230
         H            1.021373333402     1.920088757320     0.000316620190     1.007825032230
         H            1.778456433402    -2.213376242680    -0.000093179810     1.007825032230

  Basis Set: AUG-CC-PVTZ
    Blend: AUG-CC-PVTZ
  Basis Set: (AUG-CC-PVTZ AUX)
    Blend: AUG-CC-PVTZ-JKFIT
	 Reference Energy          =    -451.6609068846856303 [Eh]
	 Singles Energy            =      -0.0000000000000000 [Eh]
	 Same-Spin Energy          =      -0.4576941104241440 [Eh]
	 Opposite-Spin Energy      =      -1.3841764170434123 [Eh]
	 Correlation Energy        =      -1.8418705274675564 [Eh]
	 Total Energy              =    -453.5027774121531934 [Eh]

	 ================> DF-SCS-MP2 Energies <==================
	-----------------------------------------------------------
	 SCS Same-Spin Scale       =       0.3333333333333333 [-]
	 SCS Opposite-Spin Scale   =       1.2000000000000000 [-]
	 SCS Same-Spin Energy      =      -0.1525647034747147 [Eh]
	 SCS Opposite-Spin Energy  =      -1.6610117004520948 [Eh]
	 SCS Correlation Energy    =      -1.8135764039268094 [Eh]
	 SCS Total Energy          =    -453.4744832886124186 [Eh]
	-----------------------------------------------------------

  Dipole Moment: [D]
     X:    -3.0182      Y:    -3.5893      Z:    -0.0009     Total:     4.6896

*** Psi4 exiting successfully. Buy a developer a beer!
