                               Psi4 1.3.2 release

  ==> Input File <==

--------------------------------------------------------------------------
#psi4
#
memory 32 gb

molecule  {
0 1
  O       -1.3600308     1.8810233     0.0000496
  O        2.9082060     0.2751580    -0.0000600
  N       -1.0895640    -0.4406340     0.0001970
  N        0.7299577     1.0467986     0.0003080
  C       -0.6489740     0.8800530    -0.0003070
  C       -0.2041810    -1.5011250     0.0000420
  C       -2.5282030    -0.6963170    -0.0000730
  C        1.1391180    -1.3434170     0.0000740
  C        1.7104040    -0.0052910    -0.0002190
  H       -0.6762750    -2.4793460     0.0001770
  H       -2.8113470    -1.2573270     0.8936330
  H       -2.8107340    -1.2584070    -0.8933430
  H       -3.0286960     0.2691590    -0.0008180
  H        1.0742980     1.9581480     0.0003170
  H        1.8167570    -2.1872720    -0.0000870
units angstrom
no_reorient  #important for SAPT in psi4, default
symmetry c1  #important for SAPT in psi4, default
}

set PROPERTIES_ORIGIN ["COM"]
properties('MP2/aug-cc-pvtz', properties = ['dipole'])
--------------------------------------------------------------------------

    Molecular point group: c1
  Charge       = 0
  Multiplicity = 1
  Basis Set: AUG-CC-PVTZ
    Blend: AUG-CC-PVTZ
  Basis Set: (AUG-CC-PVTZ AUX)
    Blend: AUG-CC-PVTZ-JKFIT

    Orbital Energies [Eh]
    ---------------------

    Doubly Occupied:

       1A    -20.541641     2A    -20.540914     3A    -15.647034
       4A    -15.619371     5A    -11.415660     6A    -11.382387
       7A    -11.339518     8A    -11.292018     9A    -11.258534
      10A     -1.425662    11A     -1.387239    12A     -1.312332
      13A     -1.239940    14A     -1.092855    15A     -0.988877
      16A     -0.934213    17A     -0.861372    18A     -0.777729
      19A     -0.754416    20A     -0.703882    21A     -0.684368
      22A     -0.657301    23A     -0.642714    24A     -0.612263
      25A     -0.611221    26A     -0.605833    27A     -0.574881
      28A     -0.552576    29A     -0.500727    30A     -0.479005
      31A     -0.443488    32A     -0.429617    33A     -0.362163

  @DF-RHF Final Energy:  -451.65778147749421

   => Energetics <=

    Nuclear Repulsion Energy =            440.3239964687811039
    One-Electron Energy =               -1488.6200589690163270
    Two-Electron Energy =                 596.6382810227408982
    Total Energy =                       -451.6577814774942681
  Basis Set: (AUG-CC-PVTZ AUX)
    Blend: AUG-CC-PVTZ-RI
    Molecular point group: c1

    Geometry (in Angstrom), charge = 0, multiplicity = 1:

       Center              X                  Y                   Z               Mass
    ------------   -----------------  -----------------  -----------------  -----------------
         O           -1.414448336660     1.833506780944     0.000041767284    15.994914619570
         O            2.853788463340     0.227641480944    -0.000067832716    15.994914619570
         N           -1.143981536660    -0.488150519056     0.000189167284    14.003074004430
         N            0.675540163340     0.999282080944     0.000300167284    14.003074004430
         C           -0.703391536660     0.832536480944    -0.000314832716    12.000000000000
         C           -0.258598536660    -1.548641519056     0.000034167284    12.000000000000
         C           -2.582620536660    -0.743833519056    -0.000080832716    12.000000000000
         C            1.084700463340    -1.390933519056     0.000066167284    12.000000000000
         C            1.655986463340    -0.052807519056    -0.000226832716    12.000000000000
         H           -0.730692536660    -2.526862519056     0.000169167284     1.007825032230
         H           -2.865764536660    -1.304843519056     0.893625167284     1.007825032230
         H           -2.865151536660    -1.305923519056    -0.893350832716     1.007825032230
         H           -3.083113536660     0.221642480944    -0.000825832716     1.007825032230
         H            1.019880463340     1.910631480944     0.000309167284     1.007825032230
         H            1.762339463340    -2.234788519056    -0.000094832716     1.007825032230

  Basis Set: AUG-CC-PVTZ
    Blend: AUG-CC-PVTZ
  Basis Set: (AUG-CC-PVTZ AUX)
    Blend: AUG-CC-PVTZ-JKFIT
	 Reference Energy          =    -451.6577814774942112 [Eh]
	 Singles Energy            =      -0.0000000000000000 [Eh]
	 Same-Spin Energy          =      -0.4573565818191058 [Eh]
	 Opposite-Spin Energy      =      -1.3842295886103284 [Eh]
	 Correlation Energy        =      -1.8415861704294341 [Eh]
	 Total Energy              =    -453.4993676479236342 [Eh]

	 ================> DF-SCS-MP2 Energies <==================
	-----------------------------------------------------------
	 SCS Same-Spin Scale       =       0.3333333333333333 [-]
	 SCS Opposite-Spin Scale   =       1.2000000000000000 [-]
	 SCS Same-Spin Energy      =      -0.1524521939397019 [Eh]
	 SCS Opposite-Spin Energy  =      -1.6610755063323941 [Eh]
	 SCS Correlation Energy    =      -1.8135277002720960 [Eh]
	 SCS Total Energy          =    -453.4713091777663294 [Eh]
	-----------------------------------------------------------

  Dipole Moment: [D]
     X:    -3.1943      Y:    -3.7447      Z:    -0.0010     Total:     4.9220

*** Psi4 exiting successfully. Buy a developer a beer!
