                               Psi4 1.3.2 release

  ==> Input File <==

--------------------------------------------------------------------------
#psi4
#
memory 32 gb

molecule  {
0 1
  O       -1.3945310     1.8555980     0.0000210
  O        2.9082060     0.2751580    -0.0000600
  N       -1.0895640    -0.4406340     0.0001970
  N        0.7349370     0.9985730     0.0002800
  C       -0.6489740     0.8800530    -0.0003070
  C       -0.2041810    -1.5011250     0.0000420
  C       -2.5282030    -0.6963170    -0.0000730
  C        1.1391180    -1.3434170     0.0000740
  C        1.7567559    -0.0260437    -0.0002328
  H       -0.6762750    -2.4793460     0.0001770
  H       -2.8113470    -1.2573270     0.8936330
  H       -2.8107340    -1.2584070    -0.8933430
  H       -3.0286960     0.2691590    -0.0008180
  H        1.0742980     1.9581480     0.0003170
  H        1.8457943    -2.1631087    -0.0000985
units angstrom
no_reorient  #important for SAPT in psi4, default
symmetry c1  #important for SAPT in psi4, default
}

set PROPERTIES_ORIGIN ["COM"]
properties('MP2/aug-cc-pvtz', properties = ['dipole'])
--------------------------------------------------------------------------

    Molecular point group: c1
  Charge       = 0
  Multiplicity = 1
  Basis Set: AUG-CC-PVTZ
    Blend: AUG-CC-PVTZ
  Basis Set: (AUG-CC-PVTZ AUX)
    Blend: AUG-CC-PVTZ-JKFIT

    Orbital Energies [Eh]
    ---------------------

    Doubly Occupied:

       1A    -20.549037     2A    -20.540147     3A    -15.641625
       4A    -15.616811     5A    -11.413048     6A    -11.380267
       7A    -11.338153     8A    -11.287917     9A    -11.255024
      10A     -1.428709    11A     -1.410210    12A     -1.309088
      13A     -1.233559    14A     -1.089440    15A     -0.986070
      16A     -0.929404    17A     -0.860724    18A     -0.766841
      19A     -0.749718    20A     -0.699667    21A     -0.681308
      22A     -0.659826    23A     -0.646032    24A     -0.613113
      25A     -0.610205    26A     -0.607280    27A     -0.569615
      28A     -0.562220    29A     -0.497095    30A     -0.480023
      31A     -0.446998    32A     -0.432048    33A     -0.360684

  @DF-RHF Final Energy:  -451.65932544654788

   => Energetics <=

    Nuclear Repulsion Energy =            440.8527215105733035
    One-Electron Energy =               -1489.7202785675694940
    Two-Electron Energy =                 597.2082316104483652
    Total Energy =                       -451.6593254465478822
  Basis Set: (AUG-CC-PVTZ AUX)
    Blend: AUG-CC-PVTZ-RI
    Molecular point group: c1

    Geometry (in Angstrom), charge = 0, multiplicity = 1:

       Center              X                  Y                   Z               Mass
    ------------   -----------------  -----------------  -----------------  -----------------
         O           -1.449768773646     1.818448283717     0.000021313165    15.994914619570
         O            2.852968226354     0.238008283717    -0.000059686835    15.994914619570
         N           -1.144801773646    -0.477783716283     0.000197313165    14.003074004430
         N            0.679699226354     0.961423283717     0.000280313165    14.003074004430
         C           -0.704211773646     0.842903283717    -0.000306686835    12.000000000000
         C           -0.259418773646    -1.538274716283     0.000042313165    12.000000000000
         C           -2.583440773646    -0.733466716283    -0.000072686835    12.000000000000
         C            1.083880226354    -1.380566716283     0.000074313165    12.000000000000
         C            1.701518126354    -0.063193416283    -0.000232486835    12.000000000000
         H           -0.731512773646    -2.516495716283     0.000177313165     1.007825032230
         H           -2.866584773646    -1.294476716283     0.893633313165     1.007825032230
         H           -2.865971773646    -1.295556716283    -0.893342686835     1.007825032230
         H           -3.083933773646     0.232009283717    -0.000817686835     1.007825032230
         H            1.019060226354     1.920998283717     0.000317313165     1.007825032230
         H            1.790556526354    -2.200258416283    -0.000098186835     1.007825032230

  Basis Set: AUG-CC-PVTZ
    Blend: AUG-CC-PVTZ
  Basis Set: (AUG-CC-PVTZ AUX)
    Blend: AUG-CC-PVTZ-JKFIT
	 Reference Energy          =    -451.6593254465478822 [Eh]
	 Singles Energy            =      -0.0000000000000000 [Eh]
	 Same-Spin Energy          =      -0.4573854474638386 [Eh]
	 Opposite-Spin Energy      =      -1.3836136965307335 [Eh]
	 Correlation Energy        =      -1.8409991439945721 [Eh]
	 Total Energy              =    -453.5003245905424478 [Eh]

	 ================> DF-SCS-MP2 Energies <==================
	-----------------------------------------------------------
	 SCS Same-Spin Scale       =       0.3333333333333333 [-]
	 SCS Opposite-Spin Scale   =       1.2000000000000000 [-]
	 SCS Same-Spin Energy      =      -0.1524618158212795 [Eh]
	 SCS Opposite-Spin Energy  =      -1.6603364358368802 [Eh]
	 SCS Correlation Energy    =      -1.8127982516581598 [Eh]
	 SCS Total Energy          =    -453.4721236982060191 [Eh]
	-----------------------------------------------------------

  Dipole Moment: [D]
     X:    -2.7967      Y:    -3.6423      Z:    -0.0010     Total:     4.5921

*** Psi4 exiting successfully. Buy a developer a beer!
