                               Psi4 1.3.2 release

  ==> Input File <==

--------------------------------------------------------------------------
#psi4
#
memory 32 gb

molecule  {
0 1
  O       -1.3945310     1.8555980     0.0000210
  O        2.9082060     0.2751580    -0.0000600
  N       -1.0987847    -0.4484007     0.0001958
  N        0.7349370     0.9985730     0.0002800
  C       -0.6489740     0.8800530    -0.0003070
  C       -0.2041810    -1.5011250     0.0000420
  C       -2.5282030    -0.6963170    -0.0000730
  C        1.1404431    -1.3551454     0.0000722
  C        1.7104040    -0.0052910    -0.0002190
  H       -0.6762750    -2.4793460     0.0001770
  H       -2.8113470    -1.2573270     0.8936330
  H       -2.8107340    -1.2584070    -0.8933430
  H       -3.0286960     0.2691590    -0.0008180
  H        1.0742980     1.9581480     0.0003170
  H        1.8167570    -2.1872720    -0.0000870
units angstrom
no_reorient  #important for SAPT in psi4, default
symmetry c1  #important for SAPT in psi4, default
}

set PROPERTIES_ORIGIN ["COM"]
properties('MP2/aug-cc-pvtz', properties = ['dipole'])
--------------------------------------------------------------------------

    Molecular point group: c1
  Charge       = 0
  Multiplicity = 1
  Basis Set: AUG-CC-PVTZ
    Blend: AUG-CC-PVTZ
  Basis Set: (AUG-CC-PVTZ AUX)
    Blend: AUG-CC-PVTZ-JKFIT

    Orbital Energies [Eh]
    ---------------------

    Doubly Occupied:

       1A    -20.546945     2A    -20.539448     3A    -15.644365
       4A    -15.627730     5A    -11.420000     6A    -11.380833
       7A    -11.336385     8A    -11.288801     9A    -11.256097
      10A     -1.428292    11A     -1.388509    12A     -1.312025
      13A     -1.246708    14A     -1.090602    15A     -0.988906
      16A     -0.928228    17A     -0.873070    18A     -0.771309
      19A     -0.752881    20A     -0.698757    21A     -0.685022
      22A     -0.659726    23A     -0.644785    24A     -0.615243
      25A     -0.612480    26A     -0.602763    27A     -0.571666
      28A     -0.553867    29A     -0.498972    30A     -0.480102
      31A     -0.446210    32A     -0.433682    33A     -0.360173

  @DF-RHF Final Energy:  -451.66020530853018

   => Energetics <=

    Nuclear Repulsion Energy =            440.8212735807064746
    One-Electron Energy =               -1489.5937981636479890
    Two-Electron Energy =                 597.1123192744113339
    Total Energy =                       -451.6602053085301804
  Basis Set: (AUG-CC-PVTZ AUX)
    Blend: AUG-CC-PVTZ-RI
    Molecular point group: c1

    Geometry (in Angstrom), charge = 0, multiplicity = 1:

       Center              X                  Y                   Z               Mass
    ------------   -----------------  -----------------  -----------------  -----------------
         O           -1.444225390320     1.818645188486     0.000020212061    15.994914619570
         O            2.858511609680     0.238205188486    -0.000060787939    15.994914619570
         N           -1.148479090320    -0.485353511514     0.000195012061    14.003074004430
         N            0.685242609680     0.961620188486     0.000279212061    14.003074004430
         C           -0.698668390320     0.843100188486    -0.000307787939    12.000000000000
         C           -0.253875390320    -1.538077811514     0.000041212061    12.000000000000
         C           -2.577897390320    -0.733269811514    -0.000073787939    12.000000000000
         C            1.090748709680    -1.392098211514     0.000071412061    12.000000000000
         C            1.660709609680    -0.042243811514    -0.000219787939    12.000000000000
         H           -0.725969390320    -2.516298811514     0.000176212061     1.007825032230
         H           -2.861041390320    -1.294279811514     0.893632212061     1.007825032230
         H           -2.860428390320    -1.295359811514    -0.893343787939     1.007825032230
         H           -3.078390390320     0.232206188486    -0.000818787939     1.007825032230
         H            1.024603609680     1.921195188486     0.000316212061     1.007825032230
         H            1.767062609680    -2.224224811514    -0.000087787939     1.007825032230

  Basis Set: AUG-CC-PVTZ
    Blend: AUG-CC-PVTZ
  Basis Set: (AUG-CC-PVTZ AUX)
    Blend: AUG-CC-PVTZ-JKFIT
	 Reference Energy          =    -451.6602053085301804 [Eh]
	 Singles Energy            =      -0.0000000000000000 [Eh]
	 Same-Spin Energy          =      -0.4579631219029036 [Eh]
	 Opposite-Spin Energy      =      -1.3847953102496602 [Eh]
	 Correlation Energy        =      -1.8427584321525639 [Eh]
	 Total Energy              =    -453.5029637406827305 [Eh]

	 ================> DF-SCS-MP2 Energies <==================
	-----------------------------------------------------------
	 SCS Same-Spin Scale       =       0.3333333333333333 [-]
	 SCS Opposite-Spin Scale   =       1.2000000000000000 [-]
	 SCS Same-Spin Energy      =      -0.1526543739676345 [Eh]
	 SCS Opposite-Spin Energy  =      -1.6617543722995922 [Eh]
	 SCS Correlation Energy    =      -1.8144087462672267 [Eh]
	 SCS Total Energy          =    -453.4746140547974278 [Eh]
	-----------------------------------------------------------

  Dipole Moment: [D]
     X:    -3.1991      Y:    -3.4681      Z:    -0.0009     Total:     4.7182

*** Psi4 exiting successfully. Buy a developer a beer!
