                               Psi4 1.4a3.dev225

  ==> Input File <==

--------------------------------------------------------------------------
#psi4
#
memory 32 gb

molecule  {
0 1
  O       -1.4350980    -1.8086910     0.0000000
  O        2.9075840    -0.3082450     0.0000000
  N       -1.0785060     0.4619330     0.0000000
  N        0.7249750    -1.0056720    -0.0000010
  C       -0.6517050    -0.8641080     0.0000000
  C       -0.1841290     1.5083600     0.0000000
  C       -2.5245930     0.6731660     0.0000000
  C        1.1582900     1.3329580     0.0000000
  C        1.7164880    -0.0081480     0.0000000
  H       -0.6338540     2.4967290    -0.0000010
  H       -2.9690000     0.2175100    -0.8862740
  H       -2.7175397     1.7662035     0.0000000
  H       -2.9689990     0.2175090     0.8862740
  H        1.0585810    -1.9665760     0.0000000
  H        1.8360540     2.1766110     0.0000000
units angstrom
no_reorient  #important for SAPT in psi4, default
symmetry c1  #important for SAPT in psi4, default
}

set PROPERTIES_ORIGIN ["COM"]
properties('MP2/aug-cc-pvtz', properties = ['dipole'])
--------------------------------------------------------------------------

    Molecular point group: c1
  Charge       = 0
  Multiplicity = 1
  Basis Set: AUG-CC-PVTZ
    Blend: AUG-CC-PVTZ
  Basis Set: (AUG-CC-PVTZ AUX)
    Blend: AUG-CC-PVTZ-JKFIT

    Orbital Energies [Eh]
    ---------------------

    Doubly Occupied:

       1A    -20.546064     2A    -20.538580     3A    -15.645128
       4A    -15.626756     5A    -11.416431     6A    -11.379798
       7A    -11.338258     8A    -11.295064     9A    -11.253541
      10A     -1.429234    11A     -1.388895    12A     -1.312193
      13A     -1.246309    14A     -1.091134    15A     -0.987530
      16A     -0.931401    17A     -0.872041    18A     -0.772418
      19A     -0.751498    20A     -0.701179    21A     -0.686255
      22A     -0.658227    23A     -0.643660    24A     -0.610829
      25A     -0.605841    26A     -0.602663    27A     -0.576483
      28A     -0.550761    29A     -0.503314    30A     -0.480260
      31A     -0.446151    32A     -0.433029    33A     -0.358651

  @DF-RHF Final Energy:  -451.66084855905893

   => Energetics <=

    Nuclear Repulsion Energy =            441.5017325488923916
    One-Electron Energy =               -1490.9660163836606444
    Two-Electron Energy =                 597.8034352757092620
    Total Energy =                       -451.6608485590588771
  Basis Set: (AUG-CC-PVTZ AUX)
    Blend: AUG-CC-PVTZ-RI
    Molecular point group: c1

    Geometry (in Angstrom), charge = 0, multiplicity = 1:

       Center              X                  Y                   Z               Mass
    ------------   -----------------  -----------------  -----------------  -----------------
         O           -1.485312497045    -1.770441330014     0.000000119094    15.994914619570
         O            2.857369502955    -0.269995330014     0.000000119094    15.994914619570
         N           -1.128720497045     0.500182669986     0.000000119094    14.003074004430
         N            0.674760502955    -0.967422330014    -0.000000880906    14.003074004430
         C           -0.701919497045    -0.825858330014     0.000000119094    12.000000000000
         C           -0.234343497045     1.546609669986     0.000000119094    12.000000000000
         C           -2.574807497045     0.711415669986     0.000000119094    12.000000000000
         C            1.108075502955     1.371207669986     0.000000119094    12.000000000000
         C            1.666273502955     0.030101669986     0.000000119094    12.000000000000
         H           -0.684068497045     2.534978669986    -0.000000880906     1.007825032230
         H           -3.019214497045     0.255759669986    -0.886273880906     1.007825032230
         H           -2.767754197045     1.804453169986     0.000000119094     1.007825032230
         H           -3.019213497045     0.255758669986     0.886274119094     1.007825032230
         H            1.008366502955    -1.928326330014     0.000000119094     1.007825032230
         H            1.785839502955     2.214860669986     0.000000119094     1.007825032230

  Basis Set: AUG-CC-PVTZ
    Blend: AUG-CC-PVTZ
  Basis Set: (AUG-CC-PVTZ AUX)
    Blend: AUG-CC-PVTZ-JKFIT
	 Reference Energy          =    -451.6608485590589339 [Eh]
	 Singles Energy            =      -0.0000000000000000 [Eh]
	 Same-Spin Energy          =      -0.4580308811833974 [Eh]
	 Opposite-Spin Energy      =      -1.3847828235766391 [Eh]
	 Correlation Energy        =      -1.8428137047600366 [Eh]
	 Total Energy              =    -453.5036622638189669 [Eh]

	 ================> DF-SCS-MP2 Energies <==================
	-----------------------------------------------------------
	 SCS Same-Spin Scale       =       0.3333333333333333 [-]
	 SCS Opposite-Spin Scale   =       1.2000000000000000 [-]
	 SCS Same-Spin Energy      =      -0.1526769603944658 [Eh]
	 SCS Opposite-Spin Energy  =      -1.6617393882919669 [Eh]
	 SCS Correlation Energy    =      -1.8144163486864326 [Eh]
	 SCS Total Energy          =    -453.4752649077453839 [Eh]
	-----------------------------------------------------------

  Dipole Moment: [D]
     X:    -3.2146      Y:     3.5432      Z:     0.0000     Total:     4.7842

*** Psi4 exiting successfully. Buy a developer a beer!
