                               Psi4 1.3.2 release

  ==> Input File <==

--------------------------------------------------------------------------
#psi4
#
memory 32 gb

molecule  {
0 1
  O       -1.3945310     1.8555980     0.0000210
  O        2.9082060     0.2751580    -0.0000600
  N       -1.0895640    -0.4406340     0.0001970
  N        0.7349370     0.9985730     0.0002800
  C       -0.6259919     0.8721625    -0.0003156
  C       -0.1858077    -1.4855114     0.0000301
  C       -2.5282030    -0.6963170    -0.0000730
  C        1.1391180    -1.3434170     0.0000740
  C        1.7104040    -0.0052910    -0.0002190
  H       -0.6762750    -2.4793460     0.0001770
  H       -2.8113470    -1.2573270     0.8936330
  H       -2.8107340    -1.2584070    -0.8933430
  H       -3.0286960     0.2691590    -0.0008180
  H        1.0742980     1.9581480     0.0003170
  H        1.8167570    -2.1872720    -0.0000870
units angstrom
no_reorient  #important for SAPT in psi4, default
symmetry c1  #important for SAPT in psi4, default
}

set PROPERTIES_ORIGIN ["COM"]
properties('MP2/aug-cc-pvtz', properties = ['dipole'])
--------------------------------------------------------------------------

    Molecular point group: c1
  Charge       = 0
  Multiplicity = 1
  Basis Set: AUG-CC-PVTZ
    Blend: AUG-CC-PVTZ
  Basis Set: (AUG-CC-PVTZ AUX)
    Blend: AUG-CC-PVTZ-JKFIT

    Orbital Energies [Eh]
    ---------------------

    Doubly Occupied:

       1A    -20.541741     2A    -20.539533     3A    -15.644655
       4A    -15.630492     5A    -11.417254     6A    -11.382298
       7A    -11.336032     8A    -11.290245     9A    -11.255214
      10A     -1.422741    11A     -1.387436    12A     -1.307978
      13A     -1.252098    14A     -1.096600    15A     -0.991147
      16A     -0.928283    17A     -0.878412    18A     -0.775343
      19A     -0.755152    20A     -0.694558    21A     -0.685529
      22A     -0.657782    23A     -0.640586    24A     -0.616754
      25A     -0.611249    26A     -0.603015    27A     -0.570226
      28A     -0.551202    29A     -0.500532    30A     -0.474379
      31A     -0.447597    32A     -0.433491    33A     -0.363945

  @DF-RHF Final Energy:  -451.65873939724946

   => Energetics <=

    Nuclear Repulsion Energy =            441.6301148064249560
    One-Electron Energy =               -1491.2107093832858027
    Two-Electron Energy =                 597.9218551796114980
    Total Energy =                       -451.6587393972494056
  Basis Set: (AUG-CC-PVTZ AUX)
    Blend: AUG-CC-PVTZ-RI
    Molecular point group: c1

    Geometry (in Angstrom), charge = 0, multiplicity = 1:

       Center              X                  Y                   Z               Mass
    ------------   -----------------  -----------------  -----------------  -----------------
         O           -1.449060899594     1.815930433428     0.000021859090    15.994914619570
         O            2.853676100406     0.235490433428    -0.000059140910    15.994914619570
         N           -1.144093899594    -0.480301566572     0.000197859090    14.003074004430
         N            0.680407100406     0.958905433428     0.000280859090    14.003074004430
         C           -0.680521799594     0.832494933428    -0.000314740910    12.000000000000
         C           -0.240337599594    -1.525178966572     0.000030959090    12.000000000000
         C           -2.582732899594    -0.735984566572    -0.000072140910    12.000000000000
         C            1.084588100406    -1.383084566572     0.000074859090    12.000000000000
         C            1.655874100406    -0.044958566572    -0.000218140910    12.000000000000
         H           -0.730804899594    -2.519013566572     0.000177859090     1.007825032230
         H           -2.865876899594    -1.296994566572     0.893633859090     1.007825032230
         H           -2.865263899594    -1.298074566572    -0.893342140910     1.007825032230
         H           -3.083225899594     0.229491433428    -0.000817140910     1.007825032230
         H            1.019768100406     1.918480433428     0.000317859090     1.007825032230
         H            1.762227100406    -2.226939566572    -0.000086140910     1.007825032230

  Basis Set: AUG-CC-PVTZ
    Blend: AUG-CC-PVTZ
  Basis Set: (AUG-CC-PVTZ AUX)
    Blend: AUG-CC-PVTZ-JKFIT
	 Reference Energy          =    -451.6587393972494624 [Eh]
	 Singles Energy            =      -0.0000000000000000 [Eh]
	 Same-Spin Energy          =      -0.4581516270170822 [Eh]
	 Opposite-Spin Energy      =      -1.3848458648406952 [Eh]
	 Correlation Energy        =      -1.8429974918577774 [Eh]
	 Total Energy              =    -453.5017368891072351 [Eh]

	 ================> DF-SCS-MP2 Energies <==================
	-----------------------------------------------------------
	 SCS Same-Spin Scale       =       0.3333333333333333 [-]
	 SCS Opposite-Spin Scale   =       1.2000000000000000 [-]
	 SCS Same-Spin Energy      =      -0.1527172090056940 [Eh]
	 SCS Opposite-Spin Energy  =      -1.6618150378088341 [Eh]
	 SCS Correlation Energy    =      -1.8145322468145282 [Eh]
	 SCS Total Energy          =    -453.4732716440639706 [Eh]
	-----------------------------------------------------------

  Dipole Moment: [D]
     X:    -3.0267      Y:    -3.6382      Z:    -0.0008     Total:     4.7326

*** Psi4 exiting successfully. Buy a developer a beer!
