                               Psi4 1.3.2 release

  ==> Input File <==

--------------------------------------------------------------------------
#psi4
#
memory 32 gb

molecule  {
0 1
  O       -1.3945310     1.8555980     0.0000210
  O        2.9082060     0.2751580    -0.0000600
  N       -1.1010722    -0.4367389     0.0001895
  N        0.7338500     1.0106452     0.0002730
  C       -0.6489740     0.8800530    -0.0003070
  C       -0.2041810    -1.5011250     0.0000420
  C       -2.5282030    -0.6963170    -0.0000730
  C        1.1391180    -1.3434170     0.0000740
  C        1.7104040    -0.0052910    -0.0002190
  H       -0.6762750    -2.4793460     0.0001770
  H       -2.8113470    -1.2573270     0.8936330
  H       -2.8107340    -1.2584070    -0.8933430
  H       -3.0286960     0.2691590    -0.0008180
  H        1.0742980     1.9581480     0.0003170
  H        1.8167570    -2.1872720    -0.0000870
units angstrom
no_reorient  #important for SAPT in psi4, default
symmetry c1  #important for SAPT in psi4, default
}

set PROPERTIES_ORIGIN ["COM"]
properties('MP2/aug-cc-pvtz', properties = ['dipole'])
--------------------------------------------------------------------------

    Molecular point group: c1
  Charge       = 0
  Multiplicity = 1
  Basis Set: AUG-CC-PVTZ
    Blend: AUG-CC-PVTZ
  Basis Set: (AUG-CC-PVTZ AUX)
    Blend: AUG-CC-PVTZ-JKFIT

    Orbital Energies [Eh]
    ---------------------

    Doubly Occupied:

       1A    -20.543558     2A    -20.540632     3A    -15.644227
       4A    -15.625797     5A    -11.417415     6A    -11.381488
       7A    -11.338398     8A    -11.288716     9A    -11.257994
      10A     -1.427409    11A     -1.388747    12A     -1.310208
      13A     -1.245301    14A     -1.092220    15A     -0.989502
      16A     -0.930167    17A     -0.869392    18A     -0.773256
      19A     -0.753737    20A     -0.699872    21A     -0.684822
      22A     -0.658198    23A     -0.644713    24A     -0.614377
      25A     -0.611241    26A     -0.605085    27A     -0.570416
      28A     -0.553917    29A     -0.497318    30A     -0.479274
      31A     -0.446470    32A     -0.432923    33A     -0.361867

  @DF-RHF Final Energy:  -451.66055125472423

   => Energetics <=

    Nuclear Repulsion Energy =            440.8911930220911017
    One-Electron Energy =               -1489.7461789816634337
    Two-Electron Energy =                 597.1944347048480495
    Total Energy =                       -451.6605512547242824
  Basis Set: (AUG-CC-PVTZ AUX)
    Blend: AUG-CC-PVTZ-RI
    Molecular point group: c1

    Geometry (in Angstrom), charge = 0, multiplicity = 1:

       Center              X                  Y                   Z               Mass
    ------------   -----------------  -----------------  -----------------  -----------------
         O           -1.443724334255     1.814891786625     0.000021518290    15.994914619570
         O            2.859012665745     0.234451786625    -0.000059481710    15.994914619570
         N           -1.150265534255    -0.477445113375     0.000190018290    14.003074004430
         N            0.684656665745     0.969938986625     0.000273518290    14.003074004430
         C           -0.698167334255     0.839346786625    -0.000306481710    12.000000000000
         C           -0.253374334255    -1.541831213375     0.000042518290    12.000000000000
         C           -2.577396334255    -0.737023213375    -0.000072481710    12.000000000000
         C            1.089924665745    -1.384123213375     0.000074518290    12.000000000000
         C            1.661210665745    -0.045997213375    -0.000218481710    12.000000000000
         H           -0.725468334255    -2.520052213375     0.000177518290     1.007825032230
         H           -2.860540334255    -1.298033213375     0.893633518290     1.007825032230
         H           -2.859927334255    -1.299113213375    -0.893342481710     1.007825032230
         H           -3.077889334255     0.228452786625    -0.000817481710     1.007825032230
         H            1.025104665745     1.917441786625     0.000317518290     1.007825032230
         H            1.767563665745    -2.227978213375    -0.000086481710     1.007825032230

  Basis Set: AUG-CC-PVTZ
    Blend: AUG-CC-PVTZ
  Basis Set: (AUG-CC-PVTZ AUX)
    Blend: AUG-CC-PVTZ-JKFIT
	 Reference Energy          =    -451.6605512547242256 [Eh]
	 Singles Energy            =      -0.0000000000000000 [Eh]
	 Same-Spin Energy          =      -0.4578038642717266 [Eh]
	 Opposite-Spin Energy      =      -1.3846024292589361 [Eh]
	 Correlation Energy        =      -1.8424062935306627 [Eh]
	 Total Energy              =    -453.5029575482548694 [Eh]

	 ================> DF-SCS-MP2 Energies <==================
	-----------------------------------------------------------
	 SCS Same-Spin Scale       =       0.3333333333333333 [-]
	 SCS Opposite-Spin Scale   =       1.2000000000000000 [-]
	 SCS Same-Spin Energy      =      -0.1526012880905755 [Eh]
	 SCS Opposite-Spin Energy  =      -1.6615229151107231 [Eh]
	 SCS Correlation Energy    =      -1.8141242032012987 [Eh]
	 SCS Total Energy          =    -453.4746754579255139 [Eh]
	-----------------------------------------------------------

  Dipole Moment: [D]
     X:    -3.1340      Y:    -3.5849      Z:    -0.0009     Total:     4.7617

*** Psi4 exiting successfully. Buy a developer a beer!
