                               Psi4 1.3.2 release

  ==> Input File <==

--------------------------------------------------------------------------
#psi4
#
memory 32 gb

molecule  {
0 1
  O       -1.3945310     1.8555980     0.0000210
  O        2.9082060     0.2751580    -0.0000600
  N       -1.0895640    -0.4406340     0.0001970
  N        0.7349370     0.9985730     0.0002800
  C       -0.6489740     0.8800530    -0.0003070
  C       -0.2105939    -1.4306060     0.0000247
  C       -2.5282030    -0.6963170    -0.0000730
  C        1.1391180    -1.3434170     0.0000740
  C        1.6395890     0.0227739    -0.0002295
  H       -0.6762750    -2.4793460     0.0001770
  H       -2.8113470    -1.2573270     0.8936330
  H       -2.8107340    -1.2584070    -0.8933430
  H       -3.0286960     0.2691590    -0.0008180
  H        1.0742980     1.9581480     0.0003170
  H        1.8167570    -2.1872720    -0.0000870
units angstrom
no_reorient  #important for SAPT in psi4, default
symmetry c1  #important for SAPT in psi4, default
}

set PROPERTIES_ORIGIN ["COM"]
properties('MP2/aug-cc-pvtz', properties = ['dipole'])
--------------------------------------------------------------------------

    Molecular point group: c1
  Charge       = 0
  Multiplicity = 1
  Basis Set: AUG-CC-PVTZ
    Blend: AUG-CC-PVTZ
  Basis Set: (AUG-CC-PVTZ AUX)
    Blend: AUG-CC-PVTZ-JKFIT

    Orbital Energies [Eh]
    ---------------------

    Doubly Occupied:

       1A    -20.556436     2A    -20.518364     3A    -15.654727
       4A    -15.639545     5A    -11.428481     6A    -11.372889
       7A    -11.337076     8A    -11.298215     9A    -11.253423
      10A     -1.442321    11A     -1.360595    12A     -1.328687
      13A     -1.257388    14A     -1.092861    15A     -1.002234
      16A     -0.937564    17A     -0.891843    18A     -0.784535
      19A     -0.756367    20A     -0.699691    21A     -0.696538
      22A     -0.665225    23A     -0.634956    24A     -0.623643
      25A     -0.614972    26A     -0.587783    27A     -0.569405
      28A     -0.547236    29A     -0.514114    30A     -0.482427
      31A     -0.431148    32A     -0.427441    33A     -0.356378

  @DF-RHF Final Energy:  -451.64233504466557

   => Energetics <=

    Nuclear Repulsion Energy =            443.2217184171932445
    One-Electron Energy =               -1494.1990865015786767
    Two-Electron Energy =                 599.3350330397198604
    Total Energy =                       -451.6423350446656286
  Basis Set: (AUG-CC-PVTZ AUX)
    Blend: AUG-CC-PVTZ-RI
    Molecular point group: c1

    Geometry (in Angstrom), charge = 0, multiplicity = 1:

       Center              X                  Y                   Z               Mass
    ------------   -----------------  -----------------  -----------------  -----------------
         O           -1.437771098342     1.807279971064     0.000022554091    15.994914619570
         O            2.864965901658     0.226839971064    -0.000058445909    15.994914619570
         N           -1.132804098342    -0.488952028936     0.000198554091    14.003074004430
         N            0.691696901658     0.950254971064     0.000281554091    14.003074004430
         C           -0.692214098342     0.831734971064    -0.000305445909    12.000000000000
         C           -0.253833998342    -1.478924028936     0.000026254091    12.000000000000
         C           -2.571443098342    -0.744635028936    -0.000071445909    12.000000000000
         C            1.095877901658    -1.391735028936     0.000075554091    12.000000000000
         C            1.596348901658    -0.025544128936    -0.000227945909    12.000000000000
         H           -0.719515098342    -2.527664028936     0.000178554091     1.007825032230
         H           -2.854587098342    -1.305645028936     0.893634554091     1.007825032230
         H           -2.853974098342    -1.306725028936    -0.893341445909     1.007825032230
         H           -3.071936098342     0.220840971064    -0.000816445909     1.007825032230
         H            1.031057901658     1.909829971064     0.000318554091     1.007825032230
         H            1.773516901658    -2.235590028936    -0.000085445909     1.007825032230

  Basis Set: AUG-CC-PVTZ
    Blend: AUG-CC-PVTZ
  Basis Set: (AUG-CC-PVTZ AUX)
    Blend: AUG-CC-PVTZ-JKFIT
	 Reference Energy          =    -451.6423350446655718 [Eh]
	 Singles Energy            =      -0.0000000000000000 [Eh]
	 Same-Spin Energy          =      -0.4598567509083284 [Eh]
	 Opposite-Spin Energy      =      -1.3869131098512226 [Eh]
	 Correlation Energy        =      -1.8467698607595511 [Eh]
	 Total Energy              =    -453.4891049054251084 [Eh]

	 ================> DF-SCS-MP2 Energies <==================
	-----------------------------------------------------------
	 SCS Same-Spin Scale       =       0.3333333333333333 [-]
	 SCS Opposite-Spin Scale   =       1.2000000000000000 [-]
	 SCS Same-Spin Energy      =      -0.1532855836361095 [Eh]
	 SCS Opposite-Spin Energy  =      -1.6642957318214671 [Eh]
	 SCS Correlation Energy    =      -1.8175813154575766 [Eh]
	 SCS Total Energy          =    -453.4599163601231453 [Eh]
	-----------------------------------------------------------

  Dipole Moment: [D]
     X:    -4.1385      Y:    -3.2594      Z:    -0.0007     Total:     5.2679

*** Psi4 exiting successfully. Buy a developer a beer!
