                               Psi4 1.3.2 release

  ==> Input File <==

--------------------------------------------------------------------------
#psi4
#
memory 32 gb

molecule  {
0 1
  O       -1.3945310     1.8555980     0.0000210
  O        2.9082060     0.2751580    -0.0000600
  N       -1.0895640    -0.4406340     0.0001970
  N        0.7349370     0.9985730     0.0002800
  C       -0.6508317     0.9042236    -0.0002874
  C       -0.2041810    -1.5011250     0.0000420
  C       -2.5282030    -0.6963170    -0.0000730
  C        1.1391180    -1.3434170     0.0000740
  C        1.7277753     0.0118861    -0.0001985
  H       -0.6762750    -2.4793460     0.0001770
  H       -2.8113470    -1.2573270     0.8936330
  H       -2.8107340    -1.2584070    -0.8933430
  H       -3.0286960     0.2691590    -0.0008180
  H        1.0742980     1.9581480     0.0003170
  H        1.8167570    -2.1872720    -0.0000870
units angstrom
no_reorient  #important for SAPT in psi4, default
symmetry c1  #important for SAPT in psi4, default
}

set PROPERTIES_ORIGIN ["COM"]
properties('MP2/aug-cc-pvtz', properties = ['dipole'])
--------------------------------------------------------------------------

    Molecular point group: c1
  Charge       = 0
  Multiplicity = 1
  Basis Set: AUG-CC-PVTZ
    Blend: AUG-CC-PVTZ
  Basis Set: (AUG-CC-PVTZ AUX)
    Blend: AUG-CC-PVTZ-JKFIT

    Orbital Energies [Eh]
    ---------------------

    Doubly Occupied:

       1A    -20.550720     2A    -20.542326     3A    -15.638574
       4A    -15.624650     5A    -11.418997     6A    -11.379632
       7A    -11.332141     8A    -11.286892     9A    -11.252884
      10A     -1.437420    11A     -1.402853    12A     -1.310193
      13A     -1.245895    14A     -1.084223    15A     -0.983937
      16A     -0.922357    17A     -0.873513    18A     -0.767019
      19A     -0.747618    20A     -0.698691    21A     -0.682093
      22A     -0.662624    23A     -0.649051    24A     -0.615899
      25A     -0.607307    26A     -0.603871    27A     -0.568587
      28A     -0.561700    29A     -0.497849    30A     -0.483338
      31A     -0.448087    32A     -0.437503    33A     -0.356450

  @DF-RHF Final Energy:  -451.66153038814576

   => Energetics <=

    Nuclear Repulsion Energy =            440.9878048007439020
    One-Electron Energy =               -1489.9488905768812401
    Two-Electron Energy =                 597.2995553879915178
    Total Energy =                       -451.6615303881457066
  Basis Set: (AUG-CC-PVTZ AUX)
    Blend: AUG-CC-PVTZ-RI
    Molecular point group: c1

    Geometry (in Angstrom), charge = 0, multiplicity = 1:

       Center              X                  Y                   Z               Mass
    ------------   -----------------  -----------------  -----------------  -----------------
         O           -1.446600613988     1.812729181218     0.000016089627    15.994914619570
         O            2.856136386012     0.232289181218    -0.000064910373    15.994914619570
         N           -1.141633613988    -0.483502818782     0.000192089627    14.003074004430
         N            0.682867386012     0.955704181218     0.000275089627    14.003074004430
         C           -0.702901313988     0.861354781218    -0.000292310373    12.000000000000
         C           -0.256250613988    -1.543993818782     0.000037089627    12.000000000000
         C           -2.580272613988    -0.739185818782    -0.000077910373    12.000000000000
         C            1.087048386012    -1.386285818782     0.000069089627    12.000000000000
         C            1.675705686012    -0.030982718782    -0.000203410373    12.000000000000
         H           -0.728344613988    -2.522214818782     0.000172089627     1.007825032230
         H           -2.863416613988    -1.300195818782     0.893628089627     1.007825032230
         H           -2.862803613988    -1.301275818782    -0.893347910373     1.007825032230
         H           -3.080765613988     0.226290181218    -0.000822910373     1.007825032230
         H            1.022228386012     1.915279181218     0.000312089627     1.007825032230
         H            1.764687386012    -2.230140818782    -0.000091910373     1.007825032230

  Basis Set: AUG-CC-PVTZ
    Blend: AUG-CC-PVTZ
  Basis Set: (AUG-CC-PVTZ AUX)
    Blend: AUG-CC-PVTZ-JKFIT
	 Reference Energy          =    -451.6615303881457635 [Eh]
	 Singles Energy            =      -0.0000000000000000 [Eh]
	 Same-Spin Energy          =      -0.4572051347606488 [Eh]
	 Opposite-Spin Energy      =      -1.3833437416700591 [Eh]
	 Correlation Energy        =      -1.8405488764307081 [Eh]
	 Total Energy              =    -453.5020792645764800 [Eh]

	 ================> DF-SCS-MP2 Energies <==================
	-----------------------------------------------------------
	 SCS Same-Spin Scale       =       0.3333333333333333 [-]
	 SCS Opposite-Spin Scale   =       1.2000000000000000 [-]
	 SCS Same-Spin Energy      =      -0.1524017115868829 [Eh]
	 SCS Opposite-Spin Energy  =      -1.6600124900040709 [Eh]
	 SCS Correlation Energy    =      -1.8124142015909539 [Eh]
	 SCS Total Energy          =    -453.4739445897367318 [Eh]
	-----------------------------------------------------------

  Dipole Moment: [D]
     X:    -3.1183      Y:    -3.2282      Z:    -0.0009     Total:     4.4884

*** Psi4 exiting successfully. Buy a developer a beer!
