                               Psi4 1.3.2 release

  ==> Input File <==

--------------------------------------------------------------------------
#psi4
#
memory 32 gb

molecule  {
0 1
  O       -1.3859895     1.8620670     0.0000282
  O        2.9082060     0.2751580    -0.0000600
  N       -1.0895640    -0.4406340     0.0001970
  N        0.7338500     1.0106452     0.0002871
  C       -0.6489740     0.8800530    -0.0003070
  C       -0.2041810    -1.5011250     0.0000420
  C       -2.5282030    -0.6963170    -0.0000730
  C        1.1391180    -1.3434170     0.0000740
  C        1.7104040    -0.0052910    -0.0002190
  H       -0.6762750    -2.4793460     0.0001770
  H       -2.8113470    -1.2573270     0.8936330
  H       -2.8107340    -1.2584070    -0.8933430
  H       -3.0286960     0.2691590    -0.0008180
  H        1.0742980     1.9581480     0.0003170
  H        1.8167570    -2.1872720    -0.0000870
units angstrom
no_reorient  #important for SAPT in psi4, default
symmetry c1  #important for SAPT in psi4, default
}

set PROPERTIES_ORIGIN ["COM"]
properties('MP2/aug-cc-pvtz', properties = ['dipole'])
--------------------------------------------------------------------------

    Molecular point group: c1
  Charge       = 0
  Multiplicity = 1
  Basis Set: AUG-CC-PVTZ
    Blend: AUG-CC-PVTZ
  Basis Set: (AUG-CC-PVTZ AUX)
    Blend: AUG-CC-PVTZ-JKFIT

    Orbital Energies [Eh]
    ---------------------

    Doubly Occupied:

       1A    -20.544348     2A    -20.539530     3A    -15.645113
       4A    -15.624802     5A    -11.417758     6A    -11.380513
       7A    -11.337743     8A    -11.290500     9A    -11.256753
      10A     -1.427635    11A     -1.387878    12A     -1.312262
      13A     -1.244248    14A     -1.091585    15A     -0.989352
      16A     -0.931572    17A     -0.869599    18A     -0.773146
      19A     -0.753046    20A     -0.700928    21A     -0.684961
      22A     -0.657677    23A     -0.643865    24A     -0.614254
      25A     -0.610444    26A     -0.603258    27A     -0.572681
      28A     -0.553781    29A     -0.499759    30A     -0.479715
      31A     -0.445629    32A     -0.432250    33A     -0.361026

  @DF-RHF Final Energy:  -451.66070802392494

   => Energetics <=

    Nuclear Repulsion Energy =            440.9563075570509909
    One-Electron Energy =               -1489.8788055722304762
    Two-Electron Energy =                 597.2617899912544317
    Total Energy =                       -451.6607080239249399
  Basis Set: (AUG-CC-PVTZ AUX)
    Blend: AUG-CC-PVTZ-RI
    Molecular point group: c1

    Geometry (in Angstrom), charge = 0, multiplicity = 1:

       Center              X                  Y                   Z               Mass
    ------------   -----------------  -----------------  -----------------  -----------------
         O           -1.437545289218     1.820972603566     0.000025404897    15.994914619570
         O            2.856650210782     0.234063603566    -0.000062795103    15.994914619570
         N           -1.141119789218    -0.481728396434     0.000194204897    14.003074004430
         N            0.682294210782     0.969550803566     0.000284304897    14.003074004430
         C           -0.700529789218     0.838958603566    -0.000309795103    12.000000000000
         C           -0.255736789218    -1.542219396434     0.000039204897    12.000000000000
         C           -2.579758789218    -0.737411396434    -0.000075795103    12.000000000000
         C            1.087562210782    -1.384511396434     0.000071204897    12.000000000000
         C            1.658848210782    -0.046385396434    -0.000221795103    12.000000000000
         H           -0.727830789218    -2.520440396434     0.000174204897     1.007825032230
         H           -2.862902789218    -1.298421396434     0.893630204897     1.007825032230
         H           -2.862289789218    -1.299501396434    -0.893345795103     1.007825032230
         H           -3.080251789218     0.228064603566    -0.000820795103     1.007825032230
         H            1.022742210782     1.917053603566     0.000314204897     1.007825032230
         H            1.765201210782    -2.228366396434    -0.000089795103     1.007825032230

  Basis Set: AUG-CC-PVTZ
    Blend: AUG-CC-PVTZ
  Basis Set: (AUG-CC-PVTZ AUX)
    Blend: AUG-CC-PVTZ-JKFIT
	 Reference Energy          =    -451.6607080239249399 [Eh]
	 Singles Energy            =      -0.0000000000000000 [Eh]
	 Same-Spin Energy          =      -0.4578524404188078 [Eh]
	 Opposite-Spin Energy      =      -1.3846097519615190 [Eh]
	 Correlation Energy        =      -1.8424621923803268 [Eh]
	 Total Energy              =    -453.5031702163052501 [Eh]

	 ================> DF-SCS-MP2 Energies <==================
	-----------------------------------------------------------
	 SCS Same-Spin Scale       =       0.3333333333333333 [-]
	 SCS Opposite-Spin Scale   =       1.2000000000000000 [-]
	 SCS Same-Spin Energy      =      -0.1526174801396026 [Eh]
	 SCS Opposite-Spin Energy  =      -1.6615317023538227 [Eh]
	 SCS Correlation Energy    =      -1.8141491824934253 [Eh]
	 SCS Total Energy          =    -453.4748572064183918 [Eh]
	-----------------------------------------------------------

  Dipole Moment: [D]
     X:    -3.2241      Y:    -3.5911      Z:    -0.0009     Total:     4.8260

*** Psi4 exiting successfully. Buy a developer a beer!
