                               Psi4 1.3.2 release

  ==> Input File <==

--------------------------------------------------------------------------
#psi4
#
memory 32 gb

molecule  {
0 1
  O       -1.3945310     1.8555980     0.0000210
  O        2.9082060     0.2751580    -0.0000600
  N       -1.0895640    -0.4406340     0.0001970
  N        0.7349370     0.9985730     0.0002800
  C       -0.6508317     0.9042236    -0.0003106
  C       -0.2041810    -1.5011250     0.0000420
  C       -2.5282030    -0.6963170    -0.0000730
  C        1.1391180    -1.3434170     0.0000740
  C        1.7104040    -0.0052910    -0.0002190
  H       -0.6762750    -2.4793460     0.0001770
  H       -2.8113470    -1.2573270     0.8936330
  H       -2.8107340    -1.2584070    -0.8933430
  H       -3.0286960     0.2691590    -0.0008180
  H        1.0574994     1.9639245     0.0003090
  H        1.8167570    -2.1872720    -0.0000870
units angstrom
no_reorient  #important for SAPT in psi4, default
symmetry c1  #important for SAPT in psi4, default
}

set PROPERTIES_ORIGIN ["COM"]
properties('MP2/aug-cc-pvtz', properties = ['dipole'])
--------------------------------------------------------------------------

    Molecular point group: c1
  Charge       = 0
  Multiplicity = 1
  Basis Set: AUG-CC-PVTZ
    Blend: AUG-CC-PVTZ
  Basis Set: (AUG-CC-PVTZ AUX)
    Blend: AUG-CC-PVTZ-JKFIT

    Orbital Energies [Eh]
    ---------------------

    Doubly Occupied:

       1A    -20.551479     2A    -20.537964     3A    -15.640809
       4A    -15.625855     5A    -11.419131     6A    -11.379651
       7A    -11.335513     8A    -11.288224     9A    -11.253464
      10A     -1.437796    11A     -1.389291    12A     -1.311261
      13A     -1.245007    14A     -1.089067    15A     -0.985173
      16A     -0.926769    17A     -0.873299    18A     -0.767841
      19A     -0.751174    20A     -0.699814    21A     -0.683285
      22A     -0.662961    23A     -0.644606    24A     -0.615269
      25A     -0.608837    26A     -0.601650    27A     -0.570089
      28A     -0.557734    29A     -0.499070    30A     -0.483906
      31A     -0.446574    32A     -0.434976    33A     -0.358059

  @DF-RHF Final Energy:  -451.66052197994480

   => Energetics <=

    Nuclear Repulsion Energy =            441.0500078754459423
    One-Electron Energy =               -1490.0698625472714411
    Two-Electron Energy =                 597.3593326918806952
    Total Energy =                       -451.6605219799447468
  Basis Set: (AUG-CC-PVTZ AUX)
    Blend: AUG-CC-PVTZ-RI
    Molecular point group: c1

    Geometry (in Angstrom), charge = 0, multiplicity = 1:

       Center              X                  Y                   Z               Mass
    ------------   -----------------  -----------------  -----------------  -----------------
         O           -1.444812448209     1.814318350105     0.000020314081    15.994914619570
         O            2.857924551791     0.233878350105    -0.000060685919    15.994914619570
         N           -1.139845448209    -0.481913649895     0.000196314081    14.003074004430
         N            0.684655551791     0.957293350105     0.000279314081    14.003074004430
         C           -0.701113148209     0.862943950105    -0.000311285919    12.000000000000
         C           -0.254462448209    -1.542404649895     0.000041314081    12.000000000000
         C           -2.578484448209    -0.737596649895    -0.000073685919    12.000000000000
         C            1.088836551791    -1.384696649895     0.000073314081    12.000000000000
         C            1.660122551791    -0.046570649895    -0.000219685919    12.000000000000
         H           -0.726556448209    -2.520625649895     0.000176314081     1.007825032230
         H           -2.861628448209    -1.298606649895     0.893632314081     1.007825032230
         H           -2.861015448209    -1.299686649895    -0.893343685919     1.007825032230
         H           -3.078977448209     0.227879350105    -0.000818685919     1.007825032230
         H            1.007217951791     1.922644850105     0.000308314081     1.007825032230
         H            1.766475551791    -2.228551649895    -0.000087685919     1.007825032230

  Basis Set: AUG-CC-PVTZ
    Blend: AUG-CC-PVTZ
  Basis Set: (AUG-CC-PVTZ AUX)
    Blend: AUG-CC-PVTZ-JKFIT
	 Reference Energy          =    -451.6605219799448037 [Eh]
	 Singles Energy            =      -0.0000000000000000 [Eh]
	 Same-Spin Energy          =      -0.4578288166717830 [Eh]
	 Opposite-Spin Energy      =      -1.3843500551457932 [Eh]
	 Correlation Energy        =      -1.8421788718175762 [Eh]
	 Total Energy              =    -453.5027008517623699 [Eh]

	 ================> DF-SCS-MP2 Energies <==================
	-----------------------------------------------------------
	 SCS Same-Spin Scale       =       0.3333333333333333 [-]
	 SCS Opposite-Spin Scale   =       1.2000000000000000 [-]
	 SCS Same-Spin Energy      =      -0.1526096055572610 [Eh]
	 SCS Opposite-Spin Energy  =      -1.6612200661749519 [Eh]
	 SCS Correlation Energy    =      -1.8138296717322129 [Eh]
	 SCS Total Energy          =    -453.4743516516770114 [Eh]
	-----------------------------------------------------------

  Dipole Moment: [D]
     X:    -3.3142      Y:    -3.3118      Z:    -0.0009     Total:     4.6853

*** Psi4 exiting successfully. Buy a developer a beer!
