                               Psi4 1.3.2 release

  ==> Input File <==

--------------------------------------------------------------------------
#psi4
#
memory 32 gb

molecule  {
0 1
  O       -1.3945310     1.8555980     0.0000210
  O        2.9082060     0.2751580    -0.0000600
  N       -1.0895640    -0.4406340     0.0001970
  N        0.7349370     0.9985730     0.0002800
  C       -0.6489740     0.8800530    -0.0003070
  C       -0.2041810    -1.5011250     0.0000420
  C       -2.5282030    -0.6963170    -0.0000730
  C        1.3377537    -1.3200965     0.0000787
  C        1.7104040    -0.0052910    -0.0002190
  H       -0.6762750    -2.4793460     0.0001770
  H       -2.8113470    -1.2573270     0.8936330
  H       -2.8107340    -1.2584070    -0.8933430
  H       -3.0286960     0.2691590    -0.0008180
  H        1.0742980     1.9581480     0.0003170
  H        1.8167570    -2.1872720    -0.0000870
units angstrom
no_reorient  #important for SAPT in psi4, default
symmetry c1  #important for SAPT in psi4, default
}

set PROPERTIES_ORIGIN ["COM"]
properties('MP2/aug-cc-pvtz', properties = ['dipole'])
--------------------------------------------------------------------------

    Molecular point group: c1
  Charge       = 0
  Multiplicity = 1
  Basis Set: AUG-CC-PVTZ
    Blend: AUG-CC-PVTZ
  Basis Set: (AUG-CC-PVTZ AUX)
    Blend: AUG-CC-PVTZ-JKFIT

    Orbital Energies [Eh]
    ---------------------

    Doubly Occupied:

       1A    -20.551497     2A    -20.514109     3A    -15.663246
       4A    -15.627102     5A    -11.423874     6A    -11.370805
       7A    -11.360883     8A    -11.298380     9A    -11.257117
      10A     -1.432925    11A     -1.378481    12A     -1.318511
      13A     -1.244706    14A     -1.069488    15A     -0.998884
      16A     -0.947845    17A     -0.867872    18A     -0.777244
      19A     -0.755202    20A     -0.700050    21A     -0.690194
      22A     -0.663671    23A     -0.641729    24A     -0.635809
      25A     -0.618550    26A     -0.589630    27A     -0.568248
      28A     -0.554339    29A     -0.494361    30A     -0.481499
      31A     -0.431935    32A     -0.430966    33A     -0.337675

  @DF-RHF Final Energy:  -451.60703376467438

   => Energetics <=

    Nuclear Repulsion Energy =            439.6510727240128631
    One-Electron Energy =               -1487.1225531166010114
    Two-Electron Energy =                 595.8644466279137077
    Total Energy =                       -451.6070337646743837
  Basis Set: (AUG-CC-PVTZ AUX)
    Blend: AUG-CC-PVTZ-RI
    Molecular point group: c1

    Geometry (in Angstrom), charge = 0, multiplicity = 1:

       Center              X                  Y                   Z               Mass
    ------------   -----------------  -----------------  -----------------  -----------------
         O           -1.464034874241     1.814445472678     0.000019459907    15.994914619570
         O            2.838702125759     0.234005472678    -0.000061540093    15.994914619570
         N           -1.159067874241    -0.481786527322     0.000195459907    14.003074004430
         N            0.665433125759     0.957420472678     0.000278459907    14.003074004430
         C           -0.718477874241     0.838900472678    -0.000308540093    12.000000000000
         C           -0.273684874241    -1.542277527322     0.000040459907    12.000000000000
         C           -2.597706874241    -0.737469527322    -0.000074540093    12.000000000000
         C            1.268249825759    -1.361249027322     0.000077159907    12.000000000000
         C            1.640900125759    -0.046443527322    -0.000220540093    12.000000000000
         H           -0.745778874241    -2.520498527322     0.000175459907     1.007825032230
         H           -2.880850874241    -1.298479527322     0.893631459907     1.007825032230
         H           -2.880237874241    -1.299559527322    -0.893344540093     1.007825032230
         H           -3.098199874241     0.228006472678    -0.000819540093     1.007825032230
         H            1.004794125759     1.916995472678     0.000315459907     1.007825032230
         H            1.747253125759    -2.228424527322    -0.000088540093     1.007825032230

  Basis Set: AUG-CC-PVTZ
    Blend: AUG-CC-PVTZ
  Basis Set: (AUG-CC-PVTZ AUX)
    Blend: AUG-CC-PVTZ-JKFIT
	 Reference Energy          =    -451.6070337646743837 [Eh]
	 Singles Energy            =      -0.0000000000000000 [Eh]
	 Same-Spin Energy          =      -0.4610330924347517 [Eh]
	 Opposite-Spin Energy      =      -1.3898797122246431 [Eh]
	 Correlation Energy        =      -1.8509128046593948 [Eh]
	 Total Energy              =    -453.4579465693337852 [Eh]

	 ================> DF-SCS-MP2 Energies <==================
	-----------------------------------------------------------
	 SCS Same-Spin Scale       =       0.3333333333333333 [-]
	 SCS Opposite-Spin Scale   =       1.2000000000000000 [-]
	 SCS Same-Spin Energy      =      -0.1536776974782506 [Eh]
	 SCS Opposite-Spin Energy  =      -1.6678556546695718 [Eh]
	 SCS Correlation Energy    =      -1.8215333521478223 [Eh]
	 SCS Total Energy          =    -453.4285671168221938 [Eh]
	-----------------------------------------------------------

  Dipole Moment: [D]
     X:    -3.7240      Y:    -3.6018      Z:    -0.0008     Total:     5.1809

*** Psi4 exiting successfully. Buy a developer a beer!
