                               Psi4 1.3.2 release

  ==> Input File <==

--------------------------------------------------------------------------
#psi4
#
memory 32 gb

molecule  {
0 1
  O       -1.3945310     1.8555980     0.0000210
  O        2.9082060     0.2751580    -0.0000600
  N       -1.0895640    -0.4406340     0.0001970
  N        0.7349370     0.9985730     0.0002800
  C       -0.6489740     0.8800530    -0.0003070
  C       -0.2041810    -1.5011250     0.0000420
  C       -2.5282030    -0.6963170    -0.0000730
  C        1.1391180    -1.3434170     0.0000740
  C        1.7104040    -0.0052910    -0.0002190
  H       -0.6762750    -2.4793460     0.0001770
  H       -2.8113470    -1.2573270     0.8936330
  H       -2.8217783    -1.2438533    -0.8988042
  H       -3.0369613     0.2646751    -0.0173050
  H        1.0742980     1.9581480     0.0003170
  H        1.8167570    -2.1872720    -0.0000870
units angstrom
no_reorient  #important for SAPT in psi4, default
symmetry c1  #important for SAPT in psi4, default
}

set PROPERTIES_ORIGIN ["COM"]
properties('MP2/aug-cc-pvtz', properties = ['dipole'])
--------------------------------------------------------------------------

    Molecular point group: c1
  Charge       = 0
  Multiplicity = 1
  Basis Set: AUG-CC-PVTZ
    Blend: AUG-CC-PVTZ
  Basis Set: (AUG-CC-PVTZ AUX)
    Blend: AUG-CC-PVTZ-JKFIT

    Orbital Energies [Eh]
    ---------------------

    Doubly Occupied:

       1A    -20.545416     2A    -20.538815     3A    -15.644722
       4A    -15.626565     5A    -11.418517     6A    -11.379846
       7A    -11.337183     8A    -11.289947     9A    -11.256157
      10A     -1.428289    11A     -1.388113    12A     -1.312312
      13A     -1.245607    14A     -1.091147    15A     -0.989637
      16A     -0.930658    17A     -0.872482    18A     -0.771826
      19A     -0.752566    20A     -0.699965    21A     -0.685396
      22A     -0.657935    23A     -0.644395    24A     -0.615447
      25A     -0.609042    26A     -0.602408    27A     -0.570837
      28A     -0.554233    29A     -0.499719    30A     -0.479933
      31A     -0.446119    32A     -0.433020    33A     -0.360734

  @DF-RHF Final Energy:  -451.66047647014648

   => Energetics <=

    Nuclear Repulsion Energy =            441.1390741635822792
    One-Electron Energy =               -1490.2411243014601041
    Two-Electron Energy =                 597.4415736677312907
    Total Energy =                       -451.6604764701464774
  Basis Set: (AUG-CC-PVTZ AUX)
    Blend: AUG-CC-PVTZ-RI
    Molecular point group: c1

    Geometry (in Angstrom), charge = 0, multiplicity = 1:

       Center              X                  Y                   Z               Mass
    ------------   -----------------  -----------------  -----------------  -----------------
         O           -1.444969234089     1.816585199269     0.000195402706    15.994914619570
         O            2.857767765911     0.236145199269     0.000114402706    15.994914619570
         N           -1.140002234089    -0.479646800731     0.000371402706    14.003074004430
         N            0.684498765911     0.959560199269     0.000454402706    14.003074004430
         C           -0.699412234089     0.841040199269    -0.000132597294    12.000000000000
         C           -0.254619234089    -1.540137800731     0.000216402706    12.000000000000
         C           -2.578641234089    -0.735329800731     0.000101402706    12.000000000000
         C            1.088679765911    -1.382429800731     0.000248402706    12.000000000000
         C            1.659965765911    -0.044303800731    -0.000044597294    12.000000000000
         H           -0.726713234089    -2.518358800731     0.000351402706     1.007825032230
         H           -2.861785234089    -1.296339800731     0.893807402706     1.007825032230
         H           -2.872216534089    -1.282866100731    -0.898629797294     1.007825032230
         H           -3.087399534089     0.225662299269    -0.017130597294     1.007825032230
         H            1.023859765911     1.919135199269     0.000491402706     1.007825032230
         H            1.766318765911    -2.226284800731     0.000087402706     1.007825032230

  Basis Set: AUG-CC-PVTZ
    Blend: AUG-CC-PVTZ
  Basis Set: (AUG-CC-PVTZ AUX)
    Blend: AUG-CC-PVTZ-JKFIT
	 Reference Energy          =    -451.6604764701464774 [Eh]
	 Singles Energy            =      -0.0000000000000000 [Eh]
	 Same-Spin Energy          =      -0.4580372366625847 [Eh]
	 Opposite-Spin Energy      =      -1.3847992795152206 [Eh]
	 Correlation Energy        =      -1.8428365161778053 [Eh]
	 Total Energy              =    -453.5033129863242607 [Eh]

	 ================> DF-SCS-MP2 Energies <==================
	-----------------------------------------------------------
	 SCS Same-Spin Scale       =       0.3333333333333333 [-]
	 SCS Opposite-Spin Scale   =       1.2000000000000000 [-]
	 SCS Same-Spin Energy      =      -0.1526790788875282 [Eh]
	 SCS Opposite-Spin Energy  =      -1.6617591354182648 [Eh]
	 SCS Correlation Energy    =      -1.8144382143057931 [Eh]
	 SCS Total Energy          =    -453.4749146844522443 [Eh]
	-----------------------------------------------------------

  Dipole Moment: [D]
     X:    -3.2431      Y:    -3.5349      Z:    -0.0118     Total:     4.7972

*** Psi4 exiting successfully. Buy a developer a beer!
