                               Psi4 1.3.2 release

  ==> Input File <==

--------------------------------------------------------------------------
#psi4
#
memory 32 gb

molecule  {
0 1
  O       -1.3945310     1.8555980     0.0000210
  O        2.8918869     0.3374618    -0.0000824
  N       -1.0895640    -0.4406340     0.0001970
  N        0.7349370     0.9985730     0.0002800
  C       -0.6489740     0.8800530    -0.0003070
  C       -0.2041810    -1.5011250     0.0000420
  C       -2.5282030    -0.6963170    -0.0000730
  C        1.0698688    -1.3116844     0.0000501
  C        1.7104040    -0.0052910    -0.0002190
  H       -0.6762750    -2.4793460     0.0001770
  H       -2.8113470    -1.2573270     0.8936330
  H       -2.8107340    -1.2584070    -0.8933430
  H       -3.0286960     0.2691590    -0.0008180
  H        1.0742980     1.9581480     0.0003170
  H        1.8167570    -2.1872720    -0.0000870
units angstrom
no_reorient  #important for SAPT in psi4, default
symmetry c1  #important for SAPT in psi4, default
}

set PROPERTIES_ORIGIN ["COM"]
properties('MP2/aug-cc-pvtz', properties = ['dipole'])
--------------------------------------------------------------------------

    Molecular point group: c1
  Charge       = 0
  Multiplicity = 1
  Basis Set: AUG-CC-PVTZ
    Blend: AUG-CC-PVTZ
  Basis Set: (AUG-CC-PVTZ AUX)
    Blend: AUG-CC-PVTZ-JKFIT

    Orbital Energies [Eh]
    ---------------------

    Doubly Occupied:

       1A    -20.543997     2A    -20.542403     3A    -15.639263
       4A    -15.622490     5A    -11.415249     6A    -11.383661
       7A    -11.328209     8A    -11.287711     9A    -11.257165
      10A     -1.426985    11A     -1.391291    12A     -1.312302
      13A     -1.242844    14A     -1.104988    15A     -0.987328
      16A     -0.930697    17A     -0.872312    18A     -0.775200
      19A     -0.747800    20A     -0.705368    21A     -0.684538
      22A     -0.655757    23A     -0.643798    24A     -0.614254
      25A     -0.609202    26A     -0.596966    27A     -0.559630
      28A     -0.554767    29A     -0.504746    30A     -0.479825
      31A     -0.447648    32A     -0.430965    33A     -0.369594

  @DF-RHF Final Energy:  -451.65124012381165

   => Energetics <=

    Nuclear Repulsion Energy =            442.6604551923071540
    One-Electron Energy =               -1493.2854846007696779
    Two-Electron Energy =                 598.9737892846508203
    Total Energy =                       -451.6512401238117036
  Basis Set: (AUG-CC-PVTZ AUX)
    Blend: AUG-CC-PVTZ-RI
    Molecular point group: c1

    Geometry (in Angstrom), charge = 0, multiplicity = 1:

       Center              X                  Y                   Z               Mass
    ------------   -----------------  -----------------  -----------------  -----------------
         O           -1.436459813254     1.805738207751     0.000025025361    15.994914619570
         O            2.849958086746     0.287602007751    -0.000078374639    15.994914619570
         N           -1.131492813254    -0.490493792249     0.000201025361    14.003074004430
         N            0.693008186746     0.948713207751     0.000284025361    14.003074004430
         C           -0.690902813254     0.830193207751    -0.000302974639    12.000000000000
         C           -0.246109813254    -1.550984792249     0.000046025361    12.000000000000
         C           -2.570131813254    -0.746176792249    -0.000068974639    12.000000000000
         C            1.027939986746    -1.361544192249     0.000054125361    12.000000000000
         C            1.668475186746    -0.055150792249    -0.000214974639    12.000000000000
         H           -0.718203813254    -2.529205792249     0.000181025361     1.007825032230
         H           -2.853275813254    -1.307186792249     0.893637025361     1.007825032230
         H           -2.852662813254    -1.308266792249    -0.893338974639     1.007825032230
         H           -3.070624813254     0.219299207751    -0.000813974639     1.007825032230
         H            1.032369186746     1.908288207751     0.000321025361     1.007825032230
         H            1.774828186746    -2.237131792249    -0.000082974639     1.007825032230

  Basis Set: AUG-CC-PVTZ
    Blend: AUG-CC-PVTZ
  Basis Set: (AUG-CC-PVTZ AUX)
    Blend: AUG-CC-PVTZ-JKFIT
	 Reference Energy          =    -451.6512401238116468 [Eh]
	 Singles Energy            =      -0.0000000000000000 [Eh]
	 Same-Spin Energy          =      -0.4580611011553694 [Eh]
	 Opposite-Spin Energy      =      -1.3845071833645473 [Eh]
	 Correlation Energy        =      -1.8425682845199167 [Eh]
	 Total Energy              =    -453.4938084083315744 [Eh]

	 ================> DF-SCS-MP2 Energies <==================
	-----------------------------------------------------------
	 SCS Same-Spin Scale       =       0.3333333333333333 [-]
	 SCS Opposite-Spin Scale   =       1.2000000000000000 [-]
	 SCS Same-Spin Energy      =      -0.1526870337184565 [Eh]
	 SCS Opposite-Spin Energy  =      -1.6614086200374567 [Eh]
	 SCS Correlation Energy    =      -1.8140956537559132 [Eh]
	 SCS Total Energy          =    -453.4653357775675317 [Eh]
	-----------------------------------------------------------

  Dipole Moment: [D]
     X:    -3.0709      Y:    -3.6970      Z:    -0.0008     Total:     4.8061

*** Psi4 exiting successfully. Buy a developer a beer!
