                               Psi4 1.4a3.dev225

  ==> Input File <==

--------------------------------------------------------------------------
#psi4
#
memory 32 gb

molecule  {
0 1
  O       -1.4350980    -1.8086910     0.0000000
  O        2.9075840    -0.3082450     0.0000000
  N       -1.0785060     0.4619330     0.0000000
  N        0.7249750    -1.0056720    -0.0000010
  C       -0.6517050    -0.8641080     0.0000000
  C       -0.1841290     1.5083600     0.0000000
  C       -2.5245930     0.6731660     0.0000000
  C        1.1582900     1.3329580     0.0000000
  C        1.7164880    -0.0081480     0.0000000
  H       -0.6338540     2.4967290    -0.0000010
  H       -2.9690000     0.2175100    -0.8862740
  H       -2.7140630     1.7465080     0.0000000
  H       -2.9689990     0.2175090     0.8862740
  H        1.0585810    -1.9665760     0.0000000
  H        1.8235281     2.1610193     0.0000000
units angstrom
no_reorient  #important for SAPT in psi4, default
symmetry c1  #important for SAPT in psi4, default
}

set PROPERTIES_ORIGIN ["COM"]
properties('MP2/aug-cc-pvtz', properties = ['dipole'])
--------------------------------------------------------------------------

    Molecular point group: c1
  Charge       = 0
  Multiplicity = 1
  Basis Set: AUG-CC-PVTZ
    Blend: AUG-CC-PVTZ
  Basis Set: (AUG-CC-PVTZ AUX)
    Blend: AUG-CC-PVTZ-JKFIT

    Orbital Energies [Eh]
    ---------------------

    Doubly Occupied:

       1A    -20.545906     2A    -20.538534     3A    -15.644914
       4A    -15.626570     5A    -11.416231     6A    -11.379622
       7A    -11.338244     8A    -11.292683     9A    -11.251384
      10A     -1.429074    11A     -1.388836    12A     -1.312112
      13A     -1.246206    14A     -1.091842    15A     -0.989170
      16A     -0.931612    17A     -0.872742    18A     -0.773294
      19A     -0.752667    20A     -0.701153    21A     -0.686054
      22A     -0.658856    23A     -0.643814    24A     -0.610634
      25A     -0.610281    26A     -0.602532    27A     -0.579632
      28A     -0.550638    29A     -0.503186    30A     -0.480129
      31A     -0.446057    32A     -0.432906    33A     -0.358585

  @DF-RHF Final Energy:  -451.66150004067862

   => Energetics <=

    Nuclear Repulsion Energy =            441.7003670546576473
    One-Electron Energy =               -1491.3515308702997118
    Two-Electron Energy =                 597.9896637749634465
    Total Energy =                       -451.6615000406786748
  Basis Set: (AUG-CC-PVTZ AUX)
    Blend: AUG-CC-PVTZ-RI
    Molecular point group: c1

    Geometry (in Angstrom), charge = 0, multiplicity = 1:

       Center              X                  Y                   Z               Mass
    ------------   -----------------  -----------------  -----------------  -----------------
         O           -1.485240140662    -1.770159177543     0.000000119094    15.994914619570
         O            2.857441859338    -0.269713177543     0.000000119094    15.994914619570
         N           -1.128648140662     0.500464822457     0.000000119094    14.003074004430
         N            0.674832859338    -0.967140177543    -0.000000880906    14.003074004430
         C           -0.701847140662    -0.825576177543     0.000000119094    12.000000000000
         C           -0.234271140662     1.546891822457     0.000000119094    12.000000000000
         C           -2.574735140662     0.711697822457     0.000000119094    12.000000000000
         C            1.108147859338     1.371489822457     0.000000119094    12.000000000000
         C            1.666345859338     0.030383822457     0.000000119094    12.000000000000
         H           -0.683996140662     2.535260822457    -0.000000880906     1.007825032230
         H           -3.019142140662     0.256041822457    -0.886273880906     1.007825032230
         H           -2.764205140662     1.785039822457     0.000000119094     1.007825032230
         H           -3.019141140662     0.256040822457     0.886274119094     1.007825032230
         H            1.008438859338    -1.928044177543     0.000000119094     1.007825032230
         H            1.773385959338     2.199551122457     0.000000119094     1.007825032230

  Basis Set: AUG-CC-PVTZ
    Blend: AUG-CC-PVTZ
  Basis Set: (AUG-CC-PVTZ AUX)
    Blend: AUG-CC-PVTZ-JKFIT
	 Reference Energy          =    -451.6615000406786180 [Eh]
	 Singles Energy            =      -0.0000000000000000 [Eh]
	 Same-Spin Energy          =      -0.4579831820263431 [Eh]
	 Opposite-Spin Energy      =      -1.3845192597675406 [Eh]
	 Correlation Energy        =      -1.8425024417938838 [Eh]
	 Total Energy              =    -453.5040024824725151 [Eh]

	 ================> DF-SCS-MP2 Energies <==================
	-----------------------------------------------------------
	 SCS Same-Spin Scale       =       0.3333333333333333 [-]
	 SCS Opposite-Spin Scale   =       1.2000000000000000 [-]
	 SCS Same-Spin Energy      =      -0.1526610606754477 [Eh]
	 SCS Opposite-Spin Energy  =      -1.6614231117210487 [Eh]
	 SCS Correlation Energy    =      -1.8140841723964964 [Eh]
	 SCS Total Energy          =    -453.4755842130751375 [Eh]
	-----------------------------------------------------------

  Dipole Moment: [D]
     X:    -3.2236      Y:     3.5487      Z:     0.0000     Total:     4.7943

*** Psi4 exiting successfully. Buy a developer a beer!
