                               Psi4 1.4a3.dev225

  ==> Input File <==

--------------------------------------------------------------------------
#psi4
#
memory 32 gb

molecule  {
0 1
  O       -1.4350980    -1.8086910     0.0000000
  O        2.9075840    -0.3082450     0.0000000
  N       -1.0785060     0.4619330     0.0000000
  N        0.7249750    -1.0056720    -0.0000010
  C       -0.6517050    -0.8641080     0.0000000
  C       -0.1841290     1.5083600     0.0000000
  C       -2.5245930     0.6731660     0.0000000
  C        1.1582900     1.3329580     0.0000000
  C        1.7164880    -0.0081480     0.0000000
  H       -0.6338540     2.4967290    -0.0000010
  H       -2.9690000     0.2175100    -0.8862740
  H       -2.7140630     1.7465080     0.0000000
  H       -2.9689990     0.2175090     0.8862740
  H        1.0585810    -1.9665760     0.0000000
  H        1.8673687     2.2155903     0.0000000
units angstrom
no_reorient  #important for SAPT in psi4, default
symmetry c1  #important for SAPT in psi4, default
}

set PROPERTIES_ORIGIN ["COM"]
properties('MP2/aug-cc-pvtz', properties = ['dipole'])
--------------------------------------------------------------------------

    Molecular point group: c1
  Charge       = 0
  Multiplicity = 1
  Basis Set: AUG-CC-PVTZ
    Blend: AUG-CC-PVTZ
  Basis Set: (AUG-CC-PVTZ AUX)
    Blend: AUG-CC-PVTZ-JKFIT

    Orbital Energies [Eh]
    ---------------------

    Doubly Occupied:

       1A    -20.546001     2A    -20.538551     3A    -15.645049
       4A    -15.626941     5A    -11.416358     6A    -11.380121
       7A    -11.338420     8A    -11.292763     9A    -11.258759
      10A     -1.429206    11A     -1.388855    12A     -1.312250
      13A     -1.246437    14A     -1.089862    15A     -0.988915
      16A     -0.930924    17A     -0.871161    18A     -0.772041
      19A     -0.748922    20A     -0.701175    21A     -0.686200
      22A     -0.657012    23A     -0.643000    24A     -0.610778
      25A     -0.603031    26A     -0.602613    27A     -0.574489
      28A     -0.550716    29A     -0.503327    30A     -0.480213
      31A     -0.446199    32A     -0.433048    33A     -0.358612

  @DF-RHF Final Energy:  -451.65889022674418

   => Energetics <=

    Nuclear Repulsion Energy =            441.3332708503372714
    One-Electron Energy =               -1490.6404234194358196
    Two-Electron Energy =                 597.6482623423543146
    Total Energy =                       -451.6588902267441199
  Basis Set: (AUG-CC-PVTZ AUX)
    Blend: AUG-CC-PVTZ-RI
    Molecular point group: c1

    Geometry (in Angstrom), charge = 0, multiplicity = 1:

       Center              X                  Y                   Z               Mass
    ------------   -----------------  -----------------  -----------------  -----------------
         O           -1.485590685155    -1.770595521104     0.000000119094    15.994914619570
         O            2.857091314845    -0.270149521104     0.000000119094    15.994914619570
         N           -1.128998685155     0.500028478896     0.000000119094    14.003074004430
         N            0.674482314845    -0.967576521104    -0.000000880906    14.003074004430
         C           -0.702197685155    -0.826012521104     0.000000119094    12.000000000000
         C           -0.234621685155     1.546455478896     0.000000119094    12.000000000000
         C           -2.575085685155     0.711261478896     0.000000119094    12.000000000000
         C            1.107797314845     1.371053478896     0.000000119094    12.000000000000
         C            1.665995314845     0.029947478896     0.000000119094    12.000000000000
         H           -0.684346685155     2.534824478896    -0.000000880906     1.007825032230
         H           -3.019492685155     0.255605478896    -0.886273880906     1.007825032230
         H           -2.764555685155     1.784603478896     0.000000119094     1.007825032230
         H           -3.019491685155     0.255604478896     0.886274119094     1.007825032230
         H            1.008088314845    -1.928480521104     0.000000119094     1.007825032230
         H            1.816876014845     2.253685778896     0.000000119094     1.007825032230

  Basis Set: AUG-CC-PVTZ
    Blend: AUG-CC-PVTZ
  Basis Set: (AUG-CC-PVTZ AUX)
    Blend: AUG-CC-PVTZ-JKFIT
	 Reference Energy          =    -451.6588902267441767 [Eh]
	 Singles Energy            =      -0.0000000000000000 [Eh]
	 Same-Spin Energy          =      -0.4581286805589901 [Eh]
	 Opposite-Spin Energy      =      -1.3850094463021212 [Eh]
	 Correlation Energy        =      -1.8431381268611113 [Eh]
	 Total Energy              =    -453.5020283536052830 [Eh]

	 ================> DF-SCS-MP2 Energies <==================
	-----------------------------------------------------------
	 SCS Same-Spin Scale       =       0.3333333333333333 [-]
	 SCS Opposite-Spin Scale   =       1.2000000000000000 [-]
	 SCS Same-Spin Energy      =      -0.1527095601863300 [Eh]
	 SCS Opposite-Spin Energy  =      -1.6620113355625454 [Eh]
	 SCS Correlation Energy    =      -1.8147208957488754 [Eh]
	 SCS Total Energy          =    -453.4736111224930255 [Eh]
	-----------------------------------------------------------

  Dipole Moment: [D]
     X:    -3.2095      Y:     3.5519      Z:     0.0000     Total:     4.7871

*** Psi4 exiting successfully. Buy a developer a beer!
