                               Psi4 1.3.2 release

  ==> Input File <==

--------------------------------------------------------------------------
#psi4
#
memory 32 gb

molecule  {
0 1
  O       -1.3945310     1.8555980     0.0000210
  O        2.9082060     0.2751580    -0.0000600
  N       -1.0895640    -0.4406340     0.0001970
  N        0.7349370     0.9985730     0.0002800
  C       -0.7704180     1.0389598    -0.0002536
  C       -0.2041810    -1.5011250     0.0000420
  C       -2.5282030    -0.6963170    -0.0000730
  C        1.1391180    -1.3434170     0.0000740
  C        1.7104040    -0.0052910    -0.0002190
  H       -0.6762750    -2.4793460     0.0001770
  H       -2.8113470    -1.2573270     0.8936330
  H       -2.8107340    -1.2584070    -0.8933430
  H       -3.0286960     0.2691590    -0.0008180
  H        1.0742980     1.9581480     0.0003170
  H        1.8167570    -2.1872720    -0.0000870
units angstrom
no_reorient  #important for SAPT in psi4, default
symmetry c1  #important for SAPT in psi4, default
}

set PROPERTIES_ORIGIN ["COM"]
properties('MP2/aug-cc-pvtz', properties = ['dipole'])
--------------------------------------------------------------------------

    Molecular point group: c1
  Charge       = 0
  Multiplicity = 1
  Basis Set: AUG-CC-PVTZ
    Blend: AUG-CC-PVTZ
  Basis Set: (AUG-CC-PVTZ AUX)
    Blend: AUG-CC-PVTZ-JKFIT

    Orbital Energies [Eh]
    ---------------------

    Doubly Occupied:

       1A    -20.603628     2A    -20.522006     3A    -15.619928
       4A    -15.601068     5A    -11.419995     6A    -11.364547
       7A    -11.323543     8A    -11.281241     9A    -11.236528
      10A     -1.590344    11A     -1.375590    12A     -1.290789
      13A     -1.207994    14A     -1.074020    15A     -0.962762
      16A     -0.904639    17A     -0.852469    18A     -0.768081
      19A     -0.757481    20A     -0.726250    21A     -0.713695
      22A     -0.670230    23A     -0.634062    24A     -0.630915
      25A     -0.615133    26A     -0.595365    27A     -0.576247
      28A     -0.567850    29A     -0.490716    30A     -0.486278
      31A     -0.432318    32A     -0.423401    33A     -0.342781

  @DF-RHF Final Energy:  -451.57645509856007

   => Energetics <=

    Nuclear Repulsion Energy =            440.7989414824940013
    One-Electron Energy =               -1489.4270051672015143
    Two-Electron Energy =                 597.0516085861473812
    Total Energy =                       -451.5764550985601318
  Basis Set: (AUG-CC-PVTZ AUX)
    Blend: AUG-CC-PVTZ-RI
    Molecular point group: c1

    Geometry (in Angstrom), charge = 0, multiplicity = 1:

       Center              X                  Y                   Z               Mass
    ------------   -----------------  -----------------  -----------------  -----------------
         O           -1.433561475392     1.801536889602     0.000014823392    15.994914619570
         O            2.869175524608     0.221096889602    -0.000066176608    15.994914619570
         N           -1.128594475392    -0.494695110398     0.000190823392    14.003074004430
         N            0.695906524608     0.944511889602     0.000273823392    14.003074004430
         C           -0.809448475392     0.984898689602    -0.000259776608    12.000000000000
         C           -0.243211475392    -1.555186110398     0.000035823392    12.000000000000
         C           -2.567233475392    -0.750378110398    -0.000079176608    12.000000000000
         C            1.100087524608    -1.397478110398     0.000067823392    12.000000000000
         C            1.671373524608    -0.059352110398    -0.000225176608    12.000000000000
         H           -0.715305475392    -2.533407110398     0.000170823392     1.007825032230
         H           -2.850377475392    -1.311388110398     0.893626823392     1.007825032230
         H           -2.849764475392    -1.312468110398    -0.893349176608     1.007825032230
         H           -3.067726475392     0.215097889602    -0.000824176608     1.007825032230
         H            1.035267524608     1.904086889602     0.000310823392     1.007825032230
         H            1.777726524608    -2.241333110398    -0.000093176608     1.007825032230

  Basis Set: AUG-CC-PVTZ
    Blend: AUG-CC-PVTZ
  Basis Set: (AUG-CC-PVTZ AUX)
    Blend: AUG-CC-PVTZ-JKFIT
	 Reference Energy          =    -451.5764550985600749 [Eh]
	 Singles Energy            =      -0.0000000000000000 [Eh]
	 Same-Spin Energy          =      -0.4555475688026233 [Eh]
	 Opposite-Spin Energy      =      -1.3804482508319251 [Eh]
	 Correlation Energy        =      -1.8359958196345483 [Eh]
	 Total Energy              =    -453.4124509181946223 [Eh]

	 ================> DF-SCS-MP2 Energies <==================
	-----------------------------------------------------------
	 SCS Same-Spin Scale       =       0.3333333333333333 [-]
	 SCS Opposite-Spin Scale   =       1.2000000000000000 [-]
	 SCS Same-Spin Energy      =      -0.1518491896008744 [Eh]
	 SCS Opposite-Spin Energy  =      -1.6565379009983101 [Eh]
	 SCS Correlation Energy    =      -1.8083870905991846 [Eh]
	 SCS Total Energy          =    -453.3848421891592579 [Eh]
	-----------------------------------------------------------

  Dipole Moment: [D]
     X:    -4.5942      Y:    -1.7369      Z:    -0.0012     Total:     4.9115

*** Psi4 exiting successfully. Buy a developer a beer!
