                               Psi4 1.3.2 release

  ==> Input File <==

--------------------------------------------------------------------------
#psi4
#
memory 32 gb

molecule  {
0 1
  O       -1.3945310     1.8555980     0.0000210
  O        2.9082060     0.2751580    -0.0000600
  N       -1.0895640    -0.4406340     0.0001970
  N        0.7175657     0.9813959     0.0002889
  C       -0.6489740     0.8800530    -0.0003070
  C       -0.2041810    -1.5011250     0.0000420
  C       -2.5282030    -0.6963170    -0.0000730
  C        1.1158515    -1.3332429     0.0000859
  C        1.7104040    -0.0052910    -0.0002190
  H       -0.6762750    -2.4793460     0.0001770
  H       -2.8113470    -1.2573270     0.8936330
  H       -2.8107340    -1.2584070    -0.8933430
  H       -3.0286960     0.2691590    -0.0008180
  H        1.0742980     1.9581480     0.0003170
  H        1.8167570    -2.1872720    -0.0000870
units angstrom
no_reorient  #important for SAPT in psi4, default
symmetry c1  #important for SAPT in psi4, default
}

set PROPERTIES_ORIGIN ["COM"]
properties('MP2/aug-cc-pvtz', properties = ['dipole'])
--------------------------------------------------------------------------

    Molecular point group: c1
  Charge       = 0
  Multiplicity = 1
  Basis Set: AUG-CC-PVTZ
    Blend: AUG-CC-PVTZ
  Basis Set: (AUG-CC-PVTZ AUX)
    Blend: AUG-CC-PVTZ-JKFIT

    Orbital Energies [Eh]
    ---------------------

    Doubly Occupied:

       1A    -20.543252     2A    -20.542898     3A    -15.641429
       4A    -15.628246     5A    -11.416136     6A    -11.382477
       7A    -11.333089     8A    -11.288374     9A    -11.255014
      10A     -1.429045    11A     -1.389735    12A     -1.312527
      13A     -1.247812    14A     -1.095164    15A     -0.989414
      16A     -0.928793    17A     -0.877407    18A     -0.771926
      19A     -0.748469    20A     -0.699070    21A     -0.685848
      22A     -0.657111    23A     -0.644391    24A     -0.615806
      25A     -0.605220    26A     -0.603169    27A     -0.566715
      28A     -0.554725    29A     -0.500441    30A     -0.479399
      31A     -0.448547    32A     -0.434367    33A     -0.362961

  @DF-RHF Final Energy:  -451.65831582719107

   => Energetics <=

    Nuclear Repulsion Energy =            442.0419538336621486
    One-Electron Energy =               -1492.0425812734740703
    Two-Electron Energy =                 598.3423116126209607
    Total Energy =                       -451.6583158271910179
  Basis Set: (AUG-CC-PVTZ AUX)
    Blend: AUG-CC-PVTZ-RI
    Molecular point group: c1

    Geometry (in Angstrom), charge = 0, multiplicity = 1:

       Center              X                  Y                   Z               Mass
    ------------   -----------------  -----------------  -----------------  -----------------
         O           -1.440978618262     1.817605419932     0.000017785657    15.994914619570
         O            2.861758381738     0.237165419932    -0.000063214343    15.994914619570
         N           -1.136011618262    -0.478626580068     0.000193785657    14.003074004430
         N            0.671118081738     0.943403319932     0.000285685657    14.003074004430
         C           -0.695421618262     0.842060419932    -0.000310214343    12.000000000000
         C           -0.250628618262    -1.539117580068     0.000038785657    12.000000000000
         C           -2.574650618262    -0.734309580068    -0.000076214343    12.000000000000
         C            1.069403881738    -1.371235480068     0.000082685657    12.000000000000
         C            1.663956381738    -0.043283580068    -0.000222214343    12.000000000000
         H           -0.722722618262    -2.517338580068     0.000173785657     1.007825032230
         H           -2.857794618262    -1.295319580068     0.893629785657     1.007825032230
         H           -2.857181618262    -1.296399580068    -0.893346214343     1.007825032230
         H           -3.075143618262     0.231166419932    -0.000821214343     1.007825032230
         H            1.027850381738     1.920155419932     0.000313785657     1.007825032230
         H            1.770309381738    -2.225264580068    -0.000090214343     1.007825032230

  Basis Set: AUG-CC-PVTZ
    Blend: AUG-CC-PVTZ
  Basis Set: (AUG-CC-PVTZ AUX)
    Blend: AUG-CC-PVTZ-JKFIT
	 Reference Energy          =    -451.6583158271910747 [Eh]
	 Singles Energy            =      -0.0000000000000000 [Eh]
	 Same-Spin Energy          =      -0.4583805169988526 [Eh]
	 Opposite-Spin Energy      =      -1.3850378182134269 [Eh]
	 Correlation Energy        =      -1.8434183352122795 [Eh]
	 Total Energy              =    -453.5017341624033520 [Eh]

	 ================> DF-SCS-MP2 Energies <==================
	-----------------------------------------------------------
	 SCS Same-Spin Scale       =       0.3333333333333333 [-]
	 SCS Opposite-Spin Scale   =       1.2000000000000000 [-]
	 SCS Same-Spin Energy      =      -0.1527935056662842 [Eh]
	 SCS Opposite-Spin Energy  =      -1.6620453818561123 [Eh]
	 SCS Correlation Energy    =      -1.8148388875223964 [Eh]
	 SCS Total Energy          =    -453.4731547147134734 [Eh]
	-----------------------------------------------------------

  Dipole Moment: [D]
     X:    -3.1041      Y:    -3.5320      Z:    -0.0009     Total:     4.7022

*** Psi4 exiting successfully. Buy a developer a beer!
