                               Psi4 1.3.2 release

  ==> Input File <==

--------------------------------------------------------------------------
#psi4
#
memory 32 gb

molecule  {
0 1
  O       -1.3945310     1.8555980     0.0000210
  O        2.9082060     0.2751580    -0.0000600
  N       -1.1079373    -0.4562476     0.0001945
  N        0.7349370     0.9985730     0.0002800
  C       -0.6489740     0.8800530    -0.0003070
  C       -0.2041810    -1.5011250     0.0000420
  C       -2.5282030    -0.6963170    -0.0000730
  C        1.1416658    -1.3668848     0.0000705
  C        1.7104040    -0.0052910    -0.0002190
  H       -0.6762750    -2.4793460     0.0001770
  H       -2.8113470    -1.2573270     0.8936330
  H       -2.8107340    -1.2584070    -0.8933430
  H       -3.0286960     0.2691590    -0.0008180
  H        1.0742980     1.9581480     0.0003170
  H        1.8167570    -2.1872720    -0.0000870
units angstrom
no_reorient  #important for SAPT in psi4, default
symmetry c1  #important for SAPT in psi4, default
}

set PROPERTIES_ORIGIN ["COM"]
properties('MP2/aug-cc-pvtz', properties = ['dipole'])
--------------------------------------------------------------------------

    Molecular point group: c1
  Charge       = 0
  Multiplicity = 1
  Basis Set: AUG-CC-PVTZ
    Blend: AUG-CC-PVTZ
  Basis Set: (AUG-CC-PVTZ AUX)
    Blend: AUG-CC-PVTZ-JKFIT

    Orbital Energies [Eh]
    ---------------------

    Doubly Occupied:

       1A    -20.548392     2A    -20.540077     3A    -15.644247
       4A    -15.628874     5A    -11.421434     6A    -11.381789
       7A    -11.335693     8A    -11.287617     9A    -11.256073
      10A     -1.428268    11A     -1.388882    12A     -1.311790
      13A     -1.247776    14A     -1.090134    15A     -0.988162
      16A     -0.925800    17A     -0.873783    18A     -0.770777
      19A     -0.753409    20A     -0.697729    21A     -0.684881
      22A     -0.661624    23A     -0.645397    24A     -0.615592
      25A     -0.615334    26A     -0.602811    27A     -0.571056
      28A     -0.553556    29A     -0.498467    30A     -0.480182
      31A     -0.446215    32A     -0.434294    33A     -0.359699

  @DF-RHF Final Energy:  -451.65908383511726

   => Energetics <=

    Nuclear Repulsion Energy =            440.4711442406082824
    One-Electron Energy =               -1488.8808308332181696
    Two-Electron Energy =                 596.7506027574926293
    Total Energy =                       -451.6590838351172579
  Basis Set: (AUG-CC-PVTZ AUX)
    Blend: AUG-CC-PVTZ-RI
    Molecular point group: c1

    Geometry (in Angstrom), charge = 0, multiplicity = 1:

       Center              X                  Y                   Z               Mass
    ------------   -----------------  -----------------  -----------------  -----------------
         O           -1.443324965858     1.820634618012     0.000020518338    15.994914619570
         O            2.859412034142     0.240194618012    -0.000060481662    15.994914619570
         N           -1.156731265858    -0.491210981988     0.000194018338    14.003074004430
         N            0.686143034142     0.963609618012     0.000279518338    14.003074004430
         C           -0.697767965858     0.845089618012    -0.000307481662    12.000000000000
         C           -0.252974965858    -1.536088381988     0.000041518338    12.000000000000
         C           -2.576996965858    -0.731280381988    -0.000073481662    12.000000000000
         C            1.092871834142    -1.401848181988     0.000070018338    12.000000000000
         C            1.661610034142    -0.040254381988    -0.000219481662    12.000000000000
         H           -0.725068965858    -2.514309381988     0.000176518338     1.007825032230
         H           -2.860140965858    -1.292290381988     0.893632518338     1.007825032230
         H           -2.859527965858    -1.293370381988    -0.893343481662     1.007825032230
         H           -3.077489965858     0.234195618012    -0.000818481662     1.007825032230
         H            1.025504034142     1.923184618012     0.000316518338     1.007825032230
         H            1.767963034142    -2.222235381988    -0.000087481662     1.007825032230

  Basis Set: AUG-CC-PVTZ
    Blend: AUG-CC-PVTZ
  Basis Set: (AUG-CC-PVTZ AUX)
    Blend: AUG-CC-PVTZ-JKFIT
	 Reference Energy          =    -451.6590838351172579 [Eh]
	 Singles Energy            =      -0.0000000000000000 [Eh]
	 Same-Spin Energy          =      -0.4579019388792456 [Eh]
	 Opposite-Spin Energy      =      -1.3848326106811484 [Eh]
	 Correlation Energy        =      -1.8427345495603940 [Eh]
	 Total Energy              =    -453.5018183846776765 [Eh]

	 ================> DF-SCS-MP2 Energies <==================
	-----------------------------------------------------------
	 SCS Same-Spin Scale       =       0.3333333333333333 [-]
	 SCS Opposite-Spin Scale   =       1.2000000000000000 [-]
	 SCS Same-Spin Energy      =      -0.1526339796264152 [Eh]
	 SCS Opposite-Spin Energy  =      -1.6617991328173780 [Eh]
	 SCS Correlation Energy    =      -1.8144331124437931 [Eh]
	 SCS Total Energy          =    -453.4735169475610519 [Eh]
	-----------------------------------------------------------

  Dipole Moment: [D]
     X:    -3.1630      Y:    -3.3955      Z:    -0.0009     Total:     4.6404

*** Psi4 exiting successfully. Buy a developer a beer!
