                               Psi4 1.3.2 release

  ==> Input File <==

--------------------------------------------------------------------------
#psi4
#
memory 32 gb

molecule  {
0 1
  O       -1.3945310     1.8555980     0.0000210
  O        2.9082060     0.2751580    -0.0000600
  N       -1.0895640    -0.4406340     0.0001970
  N        0.7526054     1.0154444     0.0002709
  C       -0.6489740     0.8800530    -0.0003070
  C       -0.2041810    -1.5011250     0.0000420
  C       -2.5282030    -0.6963170    -0.0000730
  C        1.1625585    -1.3531835     0.0000620
  C        1.7104040    -0.0052910    -0.0002190
  H       -0.6762750    -2.4793460     0.0001770
  H       -2.8113470    -1.2573270     0.8936330
  H       -2.8107340    -1.2584070    -0.8933430
  H       -3.0286960     0.2691590    -0.0008180
  H        1.0742980     1.9581480     0.0003170
  H        1.8167570    -2.1872720    -0.0000870
units angstrom
no_reorient  #important for SAPT in psi4, default
symmetry c1  #important for SAPT in psi4, default
}

set PROPERTIES_ORIGIN ["COM"]
properties('MP2/aug-cc-pvtz', properties = ['dipole'])
--------------------------------------------------------------------------

    Molecular point group: c1
  Charge       = 0
  Multiplicity = 1
  Basis Set: AUG-CC-PVTZ
    Blend: AUG-CC-PVTZ
  Basis Set: (AUG-CC-PVTZ AUX)
    Blend: AUG-CC-PVTZ-JKFIT

    Orbital Energies [Eh]
    ---------------------

    Doubly Occupied:

       1A    -20.547788     2A    -20.534793     3A    -15.647542
       4A    -15.624894     5A    -11.420925     6A    -11.377458
       7A    -11.341178     8A    -11.291618     9A    -11.257375
      10A     -1.427940    11A     -1.386590    12A     -1.312477
      13A     -1.243447    14A     -1.087428    15A     -0.990131
      16A     -0.932812    17A     -0.867315    18A     -0.773412
      19A     -0.754922    20A     -0.700620    21A     -0.684848
      22A     -0.659144    23A     -0.643917    24A     -0.616794
      25A     -0.614026    26A     -0.599532    27A     -0.576079
      28A     -0.553863    29A     -0.498625    30A     -0.480484
      31A     -0.443484    32A     -0.431758    33A     -0.358261

  @DF-RHF Final Energy:  -451.65872129719941

   => Energetics <=

    Nuclear Repulsion Energy =            440.3330205479549591
    One-Electron Energy =               -1488.6205222122655414
    Two-Electron Energy =                 596.6287803671111760
    Total Energy =                       -451.6587212971994632
  Basis Set: (AUG-CC-PVTZ AUX)
    Blend: AUG-CC-PVTZ-RI
    Molecular point group: c1

    Geometry (in Angstrom), charge = 0, multiplicity = 1:

       Center              X                  Y                   Z               Mass
    ------------   -----------------  -----------------  -----------------  -----------------
         O           -1.449318217583     1.815721169304     0.000022060830    15.994914619570
         O            2.853418782417     0.235281169304    -0.000058939170    15.994914619570
         N           -1.144351217583    -0.480510830696     0.000198060830    14.003074004430
         N            0.697818182417     0.975567569304     0.000271960830    14.003074004430
         C           -0.703761217583     0.840176169304    -0.000305939170    12.000000000000
         C           -0.258968217583    -1.541001830696     0.000043060830    12.000000000000
         C           -2.582990217583    -0.736193830696    -0.000071939170    12.000000000000
         C            1.107771282417    -1.393060330696     0.000063060830    12.000000000000
         C            1.655616782417    -0.045167830696    -0.000217939170    12.000000000000
         H           -0.731062217583    -2.519222830696     0.000178060830     1.007825032230
         H           -2.866134217583    -1.297203830696     0.893634060830     1.007825032230
         H           -2.865521217583    -1.298283830696    -0.893341939170     1.007825032230
         H           -3.083483217583     0.229282169304    -0.000816939170     1.007825032230
         H            1.019510782417     1.918271169304     0.000318060830     1.007825032230
         H            1.761969782417    -2.227148830696    -0.000085939170     1.007825032230

  Basis Set: AUG-CC-PVTZ
    Blend: AUG-CC-PVTZ
  Basis Set: (AUG-CC-PVTZ AUX)
    Blend: AUG-CC-PVTZ-JKFIT
	 Reference Energy          =    -451.6587212971994063 [Eh]
	 Singles Energy            =      -0.0000000000000000 [Eh]
	 Same-Spin Energy          =      -0.4578249944587867 [Eh]
	 Opposite-Spin Energy      =      -1.3848348524810294 [Eh]
	 Correlation Energy        =      -1.8426598469398161 [Eh]
	 Total Energy              =    -453.5013811441392022 [Eh]

	 ================> DF-SCS-MP2 Energies <==================
	-----------------------------------------------------------
	 SCS Same-Spin Scale       =       0.3333333333333333 [-]
	 SCS Opposite-Spin Scale   =       1.2000000000000000 [-]
	 SCS Same-Spin Energy      =      -0.1526083314862622 [Eh]
	 SCS Opposite-Spin Energy  =      -1.6618018229772353 [Eh]
	 SCS Correlation Energy    =      -1.8144101544634976 [Eh]
	 SCS Total Energy          =    -453.4731314516628800 [Eh]
	-----------------------------------------------------------

  Dipole Moment: [D]
     X:    -3.3657      Y:    -3.5471      Z:    -0.0008     Total:     4.8898

*** Psi4 exiting successfully. Buy a developer a beer!
