                               Psi4 1.4a3.dev225

  ==> Input File <==

--------------------------------------------------------------------------
#psi4
#
memory 32 gb

molecule  {
0 1
  O       -1.4350980    -1.8086910     0.0000000
  O        2.9075840    -0.3082450     0.0000000
  N       -1.0785060     0.4619330     0.0000000
  N        0.7249750    -1.0056720    -0.0000010
  C       -0.6517050    -0.8641080     0.0000000
  C       -0.1841290     1.5083600     0.0000000
  C       -2.5245930     0.6731660     0.0000000
  C        1.1582900     1.3329580     0.0000000
  C        1.7241733    -0.0266125     0.0000000
  H       -0.6338540     2.4967290    -0.0000010
  H       -2.9690000     0.2175100    -0.8862740
  H       -2.7140630     1.7465080     0.0000000
  H       -2.9689990     0.2175090     0.8862740
  H        1.0585810    -1.9665760     0.0000000
  H        1.8360540     2.1766110     0.0000000
units angstrom
no_reorient  #important for SAPT in psi4, default
symmetry c1  #important for SAPT in psi4, default
}

set PROPERTIES_ORIGIN ["COM"]
properties('MP2/aug-cc-pvtz', properties = ['dipole'])
--------------------------------------------------------------------------

    Molecular point group: c1
  Charge       = 0
  Multiplicity = 1
  Basis Set: AUG-CC-PVTZ
    Blend: AUG-CC-PVTZ
  Basis Set: (AUG-CC-PVTZ AUX)
    Blend: AUG-CC-PVTZ-JKFIT

    Orbital Energies [Eh]
    ---------------------

    Doubly Occupied:

       1A    -20.546193     2A    -20.540732     3A    -15.643327
       4A    -15.627040     5A    -11.416760     6A    -11.379798
       7A    -11.335263     8A    -11.291803     9A    -11.253367
      10A     -1.429878    11A     -1.396361    12A     -1.311510
      13A     -1.249012    14A     -1.087300    15A     -0.988437
      16A     -0.927850    17A     -0.874414    18A     -0.772347
      19A     -0.749294    20A     -0.700092    21A     -0.685656
      22A     -0.659852    23A     -0.644629    24A     -0.611996
      25A     -0.607482    26A     -0.603132    27A     -0.577642
      28A     -0.552789    29A     -0.502466    30A     -0.479927
      31A     -0.446964    32A     -0.435010    33A     -0.357176

  @DF-RHF Final Energy:  -451.66212147515142

   => Energetics <=

    Nuclear Repulsion Energy =            441.5965224931451303
    One-Electron Energy =               -1491.1462872013348715
    Two-Electron Energy =                 597.8876432330383750
    Total Energy =                       -451.6621214751513662
  Basis Set: (AUG-CC-PVTZ AUX)
    Blend: AUG-CC-PVTZ-RI
    Molecular point group: c1

    Geometry (in Angstrom), charge = 0, multiplicity = 1:

       Center              X                  Y                   Z               Mass
    ------------   -----------------  -----------------  -----------------  -----------------
         O           -1.486071980399    -1.768525922123     0.000000119094    15.994914619570
         O            2.856610019601    -0.268079922123     0.000000119094    15.994914619570
         N           -1.129479980399     0.502098077877     0.000000119094    14.003074004430
         N            0.674001019601    -0.965506922123    -0.000000880906    14.003074004430
         C           -0.702678980399    -0.823942922123     0.000000119094    12.000000000000
         C           -0.235102980399     1.548525077877     0.000000119094    12.000000000000
         C           -2.575566980399     0.713331077877     0.000000119094    12.000000000000
         C            1.107316019601     1.373123077877     0.000000119094    12.000000000000
         C            1.673199319601     0.013552577877     0.000000119094    12.000000000000
         H           -0.684827980399     2.536894077877    -0.000000880906     1.007825032230
         H           -3.019973980399     0.257675077877    -0.886273880906     1.007825032230
         H           -2.765036980399     1.786673077877     0.000000119094     1.007825032230
         H           -3.019972980399     0.257674077877     0.886274119094     1.007825032230
         H            1.007607019601    -1.926410922123     0.000000119094     1.007825032230
         H            1.785080019601     2.216776077877     0.000000119094     1.007825032230

  Basis Set: AUG-CC-PVTZ
    Blend: AUG-CC-PVTZ
  Basis Set: (AUG-CC-PVTZ AUX)
    Blend: AUG-CC-PVTZ-JKFIT
	 Reference Energy          =    -451.6621214751514231 [Eh]
	 Singles Energy            =      -0.0000000000000000 [Eh]
	 Same-Spin Energy          =      -0.4575920525858936 [Eh]
	 Opposite-Spin Energy      =      -1.3839658141134801 [Eh]
	 Correlation Energy        =      -1.8415578666993737 [Eh]
	 Total Energy              =    -453.5036793418507841 [Eh]

	 ================> DF-SCS-MP2 Energies <==================
	-----------------------------------------------------------
	 SCS Same-Spin Scale       =       0.3333333333333333 [-]
	 SCS Opposite-Spin Scale   =       1.2000000000000000 [-]
	 SCS Same-Spin Energy      =      -0.1525306841952979 [Eh]
	 SCS Opposite-Spin Energy  =      -1.6607589769361761 [Eh]
	 SCS Correlation Energy    =      -1.8132896611314739 [Eh]
	 SCS Total Energy          =    -453.4754111362829008 [Eh]
	-----------------------------------------------------------

  Dipole Moment: [D]
     X:    -3.1231      Y:     3.4581      Z:     0.0000     Total:     4.6596

*** Psi4 exiting successfully. Buy a developer a beer!
