                               Psi4 1.4a3.dev225

  ==> Input File <==

--------------------------------------------------------------------------
#psi4
#
memory 32 gb

molecule  {
0 1
  O       -1.4350980    -1.8086910     0.0000000
  O        2.9075840    -0.3082450     0.0000000
  N       -1.0785060     0.4619330     0.0000000
  N        0.7249750    -1.0056720    -0.0000010
  C       -0.6363859    -0.9117034     0.0000000
  C       -0.1841290     1.5083600     0.0000000
  C       -2.5245930     0.6731660     0.0000000
  C        1.1582900     1.3329580     0.0000000
  C        1.7164880    -0.0081480     0.0000000
  H       -0.6338540     2.4967290    -0.0000010
  H       -2.9690000     0.2175100    -0.8862740
  H       -2.7140630     1.7465080     0.0000000
  H       -2.9689990     0.2175090     0.8862740
  H        1.0585810    -1.9665760     0.0000000
  H        1.8360540     2.1766110     0.0000000
units angstrom
no_reorient  #important for SAPT in psi4, default
symmetry c1  #important for SAPT in psi4, default
}

set PROPERTIES_ORIGIN ["COM"]
properties('MP2/aug-cc-pvtz', properties = ['dipole'])
--------------------------------------------------------------------------

    Molecular point group: c1
  Charge       = 0
  Multiplicity = 1
  Basis Set: AUG-CC-PVTZ
    Blend: AUG-CC-PVTZ
  Basis Set: (AUG-CC-PVTZ AUX)
    Blend: AUG-CC-PVTZ-JKFIT

    Orbital Energies [Eh]
    ---------------------

    Doubly Occupied:

       1A    -20.553750     2A    -20.538918     3A    -15.638038
       4A    -15.628670     5A    -11.417968     6A    -11.380866
       7A    -11.335297     8A    -11.289124     9A    -11.248261
      10A     -1.441793    11A     -1.391747    12A     -1.308014
      13A     -1.250355    14A     -1.087207    15A     -0.981529
      16A     -0.922894    17A     -0.878502    18A     -0.767030
      19A     -0.750559    20A     -0.700312    21A     -0.682497
      22A     -0.666691    23A     -0.643542    24A     -0.612424
      25A     -0.605052    26A     -0.601939    27A     -0.574543
      28A     -0.556363    29A     -0.501285    30A     -0.483352
      31A     -0.448403    32A     -0.438204    33A     -0.353183

  @DF-RHF Final Energy:  -451.65940660775965

   => Energetics <=

    Nuclear Repulsion Energy =            441.3569076505983730
    One-Electron Energy =               -1490.6760033147058948
    Two-Electron Energy =                 597.6596890563477018
    Total Energy =                       -451.6594066077597063
  Basis Set: (AUG-CC-PVTZ AUX)
    Blend: AUG-CC-PVTZ-RI
    Molecular point group: c1

    Geometry (in Angstrom), charge = 0, multiplicity = 1:

       Center              X                  Y                   Z               Mass
    ------------   -----------------  -----------------  -----------------  -----------------
         O           -1.486798761361    -1.765752495584     0.000000119094    15.994914619570
         O            2.855883238639    -0.265306495584     0.000000119094    15.994914619570
         N           -1.130206761361     0.504871504416     0.000000119094    14.003074004430
         N            0.673274238639    -0.962733495584    -0.000000880906    14.003074004430
         C           -0.688086661361    -0.868764895584     0.000000119094    12.000000000000
         C           -0.235829761361     1.551298504416     0.000000119094    12.000000000000
         C           -2.576293761361     0.716104504416     0.000000119094    12.000000000000
         C            1.106589238639     1.375896504416     0.000000119094    12.000000000000
         C            1.664787238639     0.034790504416     0.000000119094    12.000000000000
         H           -0.685554761361     2.539667504416    -0.000000880906     1.007825032230
         H           -3.020700761361     0.260448504416    -0.886273880906     1.007825032230
         H           -2.765763761361     1.789446504416     0.000000119094     1.007825032230
         H           -3.020699761361     0.260447504416     0.886274119094     1.007825032230
         H            1.006880238639    -1.923637495584     0.000000119094     1.007825032230
         H            1.784353238639     2.219549504416     0.000000119094     1.007825032230

  Basis Set: AUG-CC-PVTZ
    Blend: AUG-CC-PVTZ
  Basis Set: (AUG-CC-PVTZ AUX)
    Blend: AUG-CC-PVTZ-JKFIT
	 Reference Energy          =    -451.6594066077596494 [Eh]
	 Singles Energy            =      -0.0000000000000000 [Eh]
	 Same-Spin Energy          =      -0.4578273081398958 [Eh]
	 Opposite-Spin Energy      =      -1.3841157848425507 [Eh]
	 Correlation Energy        =      -1.8419430929824465 [Eh]
	 Total Energy              =    -453.5013497007420824 [Eh]

	 ================> DF-SCS-MP2 Energies <==================
	-----------------------------------------------------------
	 SCS Same-Spin Scale       =       0.3333333333333333 [-]
	 SCS Opposite-Spin Scale   =       1.2000000000000000 [-]
	 SCS Same-Spin Energy      =      -0.1526091027132986 [Eh]
	 SCS Opposite-Spin Energy  =      -1.6609389418110607 [Eh]
	 SCS Correlation Energy    =      -1.8135480445243592 [Eh]
	 SCS Total Energy          =    -453.4729546522839883 [Eh]
	-----------------------------------------------------------

  Dipole Moment: [D]
     X:    -3.2301      Y:     3.1570      Z:     0.0000     Total:     4.5166

*** Psi4 exiting successfully. Buy a developer a beer!
