                               Psi4 1.4a3.dev225

  ==> Input File <==

--------------------------------------------------------------------------
#psi4
#
memory 32 gb

molecule  {
0 1
  O       -1.4350980    -1.8086910     0.0000000
  O        2.9075840    -0.3082450     0.0000000
  N       -1.0785060     0.4619330     0.0000000
  N        0.7249750    -1.0056720    -0.0000010
  C       -0.6517050    -0.8641080     0.0000000
  C       -0.1841290     1.5083600     0.0000000
  C       -2.5245930     0.6731660     0.0000000
  C        1.1582900     1.3329580     0.0000000
  C        1.7358819    -0.0130343     0.0000000
  H       -0.6338540     2.4967290    -0.0000010
  H       -2.9690000     0.2175100    -0.8862740
  H       -2.7140630     1.7465080     0.0000000
  H       -2.9689990     0.2175090     0.8862740
  H        1.0585810    -1.9665760     0.0000000
  H        1.8360540     2.1766110     0.0000000
units angstrom
no_reorient  #important for SAPT in psi4, default
symmetry c1  #important for SAPT in psi4, default
}

set PROPERTIES_ORIGIN ["COM"]
properties('MP2/aug-cc-pvtz', properties = ['dipole'])
--------------------------------------------------------------------------

    Molecular point group: c1
  Charge       = 0
  Multiplicity = 1
  Basis Set: AUG-CC-PVTZ
    Blend: AUG-CC-PVTZ
  Basis Set: (AUG-CC-PVTZ AUX)
    Blend: AUG-CC-PVTZ-JKFIT

    Orbital Energies [Eh]
    ---------------------

    Doubly Occupied:

       1A    -20.544400     2A    -20.543105     3A    -15.642973
       4A    -15.623995     5A    -11.414869     6A    -11.380099
       7A    -11.336566     8A    -11.291467     9A    -11.252992
      10A     -1.428638    11A     -1.401187    12A     -1.310718
      13A     -1.244301    14A     -1.088293    15A     -0.987485
      16A     -0.928594    17A     -0.869929    18A     -0.770838
      19A     -0.749227    20A     -0.700212    21A     -0.684482
      22A     -0.659541    23A     -0.645133    24A     -0.610873
      25A     -0.606937    26A     -0.605771    27A     -0.577134
      28A     -0.554263    29A     -0.502007    30A     -0.479790
      31A     -0.447537    32A     -0.434100    33A     -0.357725

  @DF-RHF Final Energy:  -451.66224103455886

   => Energetics <=

    Nuclear Repulsion Energy =            441.4846123283754196
    One-Electron Energy =               -1490.9433417446380190
    Two-Electron Energy =                 597.7964883817036252
    Total Energy =                       -451.6622410345588605
  Basis Set: (AUG-CC-PVTZ AUX)
    Blend: AUG-CC-PVTZ-RI
    Molecular point group: c1

    Geometry (in Angstrom), charge = 0, multiplicity = 1:

       Center              X                  Y                   Z               Mass
    ------------   -----------------  -----------------  -----------------  -----------------
         O           -1.487186705381    -1.769818643605     0.000000119094    15.994914619570
         O            2.855495294619    -0.269372643605     0.000000119094    15.994914619570
         N           -1.130594705381     0.500805356395     0.000000119094    14.003074004430
         N            0.672886294619    -0.966799643605    -0.000000880906    14.003074004430
         C           -0.703793705381    -0.825235643605     0.000000119094    12.000000000000
         C           -0.236217705381     1.547232356395     0.000000119094    12.000000000000
         C           -2.576681705381     0.712038356395     0.000000119094    12.000000000000
         C            1.106201294619     1.371830356395     0.000000119094    12.000000000000
         C            1.683793194619     0.025838056395     0.000000119094    12.000000000000
         H           -0.685942705381     2.535601356395    -0.000000880906     1.007825032230
         H           -3.021088705381     0.256382356395    -0.886273880906     1.007825032230
         H           -2.766151705381     1.785380356395     0.000000119094     1.007825032230
         H           -3.021087705381     0.256381356395     0.886274119094     1.007825032230
         H            1.006492294619    -1.927703643605     0.000000119094     1.007825032230
         H            1.783965294619     2.215483356395     0.000000119094     1.007825032230

  Basis Set: AUG-CC-PVTZ
    Blend: AUG-CC-PVTZ
  Basis Set: (AUG-CC-PVTZ AUX)
    Blend: AUG-CC-PVTZ-JKFIT
	 Reference Energy          =    -451.6622410345588605 [Eh]
	 Singles Energy            =      -0.0000000000000000 [Eh]
	 Same-Spin Energy          =      -0.4575227695143846 [Eh]
	 Opposite-Spin Energy      =      -1.3838008613308028 [Eh]
	 Correlation Energy        =      -1.8413236308451875 [Eh]
	 Total Energy              =    -453.5035646654040420 [Eh]

	 ================> DF-SCS-MP2 Energies <==================
	-----------------------------------------------------------
	 SCS Same-Spin Scale       =       0.3333333333333333 [-]
	 SCS Opposite-Spin Scale   =       1.2000000000000000 [-]
	 SCS Same-Spin Energy      =      -0.1525075898381282 [Eh]
	 SCS Opposite-Spin Energy  =      -1.6605610335969634 [Eh]
	 SCS Correlation Energy    =      -1.8130686234350917 [Eh]
	 SCS Total Energy          =    -453.4753096579939324 [Eh]
	-----------------------------------------------------------

  Dipole Moment: [D]
     X:    -3.0239      Y:     3.5248      Z:     0.0000     Total:     4.6441

*** Psi4 exiting successfully. Buy a developer a beer!
