                               Psi4 1.3.2 release

  ==> Input File <==

--------------------------------------------------------------------------
#psi4
#
memory 32 gb

molecule  {
0 1
  O       -1.3945310     1.8555980     0.0000210
  O        2.9082060     0.2751580    -0.0000600
  N       -1.0895640    -0.4406340     0.0001970
  N        0.7349370     0.9985730     0.0002800
  C       -0.6489740     0.8800530    -0.0003070
  C       -0.2041810    -1.5011250     0.0000420
  C       -2.3312887    -0.6613203    -0.0000360
  C        1.1391180    -1.3434170     0.0000740
  C        1.7104040    -0.0052910    -0.0002190
  H       -0.6762750    -2.4793460     0.0001770
  H       -2.8113470    -1.2573270     0.8936330
  H       -2.8107340    -1.2584070    -0.8933430
  H       -3.0286960     0.2691590    -0.0008180
  H        1.0742980     1.9581480     0.0003170
  H        1.8167570    -2.1872720    -0.0000870
units angstrom
no_reorient  #important for SAPT in psi4, default
symmetry c1  #important for SAPT in psi4, default
}

set PROPERTIES_ORIGIN ["COM"]
properties('MP2/aug-cc-pvtz', properties = ['dipole'])
--------------------------------------------------------------------------

    Molecular point group: c1
  Charge       = 0
  Multiplicity = 1
  Basis Set: AUG-CC-PVTZ
    Blend: AUG-CC-PVTZ
  Basis Set: (AUG-CC-PVTZ AUX)
    Blend: AUG-CC-PVTZ-JKFIT

    Orbital Energies [Eh]
    ---------------------

    Doubly Occupied:

       1A    -20.552552     2A    -20.545954     3A    -15.647240
       4A    -15.632546     5A    -11.425171     6A    -11.386386
       7A    -11.341855     8A    -11.289232     9A    -11.265075
      10A     -1.443984    11A     -1.395364    12A     -1.350197
      13A     -1.261135    14A     -1.107340    15A     -0.991333
      16A     -0.944625    17A     -0.871437    18A     -0.784017
      19A     -0.770242    20A     -0.707592    21A     -0.702643
      22A     -0.681860    23A     -0.656781    24A     -0.621795
      25A     -0.609223    26A     -0.609101    27A     -0.553078
      28A     -0.523628    29A     -0.486662    30A     -0.474604
      31A     -0.452715    32A     -0.437877    33A     -0.362290

  @DF-RHF Final Energy:  -451.61043029178308

   => Energetics <=

    Nuclear Repulsion Energy =            445.6162545245010733
    One-Electron Energy =               -1498.6823021124730531
    Two-Electron Energy =                 601.4556172961889615
    Total Energy =                       -451.6104302917830182
  Basis Set: (AUG-CC-PVTZ AUX)
    Blend: AUG-CC-PVTZ-RI
    Molecular point group: c1

    Geometry (in Angstrom), charge = 0, multiplicity = 1:

       Center              X                  Y                   Z               Mass
    ------------   -----------------  -----------------  -----------------  -----------------
         O           -1.463870987219     1.813333832360     0.000016384764    15.994914619570
         O            2.838866012781     0.232893832360    -0.000064615236    15.994914619570
         N           -1.158903987219    -0.482898167640     0.000192384764    14.003074004430
         N            0.665597012781     0.956308832360     0.000275384764    14.003074004430
         C           -0.718313987219     0.837788832360    -0.000311615236    12.000000000000
         C           -0.273520987219    -1.543389167640     0.000037384764    12.000000000000
         C           -2.400628687219    -0.703584467640    -0.000040615236    12.000000000000
         C            1.069778012781    -1.385681167640     0.000069384764    12.000000000000
         C            1.641064012781    -0.047555167640    -0.000223615236    12.000000000000
         H           -0.745614987219    -2.521610167640     0.000172384764     1.007825032230
         H           -2.880686987219    -1.299591167640     0.893628384764     1.007825032230
         H           -2.880073987219    -1.300671167640    -0.893347615236     1.007825032230
         H           -3.098035987219     0.226894832360    -0.000822615236     1.007825032230
         H            1.004958012781     1.915883832360     0.000312384764     1.007825032230
         H            1.747417012781    -2.229536167640    -0.000091615236     1.007825032230

  Basis Set: AUG-CC-PVTZ
    Blend: AUG-CC-PVTZ
  Basis Set: (AUG-CC-PVTZ AUX)
    Blend: AUG-CC-PVTZ-JKFIT
	 Reference Energy          =    -451.6104302917830751 [Eh]
	 Singles Energy            =      -0.0000000000000000 [Eh]
	 Same-Spin Energy          =      -0.4609053998232431 [Eh]
	 Opposite-Spin Energy      =      -1.3883114606855236 [Eh]
	 Correlation Energy        =      -1.8492168605087667 [Eh]
	 Total Energy              =    -453.4596471522918364 [Eh]

	 ================> DF-SCS-MP2 Energies <==================
	-----------------------------------------------------------
	 SCS Same-Spin Scale       =       0.3333333333333333 [-]
	 SCS Opposite-Spin Scale   =       1.2000000000000000 [-]
	 SCS Same-Spin Energy      =      -0.1536351332744144 [Eh]
	 SCS Opposite-Spin Energy  =      -1.6659737528226282 [Eh]
	 SCS Correlation Energy    =      -1.8196088860970425 [Eh]
	 SCS Total Energy          =    -453.4300391778801327 [Eh]
	-----------------------------------------------------------

  Dipole Moment: [D]
     X:    -2.4473      Y:    -3.2555      Z:    -0.0009     Total:     4.0727

*** Psi4 exiting successfully. Buy a developer a beer!
