                               Psi4 1.3.2 release

  ==> Input File <==

--------------------------------------------------------------------------
#psi4
#
memory 32 gb

molecule  {
0 1
  O       -1.3945310     1.8555980     0.0000210
  O        2.9082060     0.2751580    -0.0000600
  N       -1.0895640    -0.4406340     0.0001970
  N        0.7349370     0.9985730     0.0002800
  C       -0.6489740     0.8800530    -0.0003070
  C       -0.2041810    -1.5011250     0.0000420
  C       -2.5282030    -0.6963170    -0.0000730
  C        1.1391180    -1.3434170     0.0000740
  C        1.7104040    -0.0052910    -0.0002190
  H       -0.6762750    -2.4793460     0.0001770
  H       -2.8113470    -1.2573270     0.8936330
  H       -2.8327332    -1.2291328    -0.9039916
  H       -3.0450717     0.2598984    -0.0337868
  H        1.0742980     1.9581480     0.0003170
  H        1.8167570    -2.1872720    -0.0000870
units angstrom
no_reorient  #important for SAPT in psi4, default
symmetry c1  #important for SAPT in psi4, default
}

set PROPERTIES_ORIGIN ["COM"]
properties('MP2/aug-cc-pvtz', properties = ['dipole'])
--------------------------------------------------------------------------

    Molecular point group: c1
  Charge       = 0
  Multiplicity = 1
  Basis Set: AUG-CC-PVTZ
    Blend: AUG-CC-PVTZ
  Basis Set: (AUG-CC-PVTZ AUX)
    Blend: AUG-CC-PVTZ-JKFIT

    Orbital Energies [Eh]
    ---------------------

    Doubly Occupied:

       1A    -20.545337     2A    -20.538816     3A    -15.644961
       4A    -15.626553     5A    -11.418495     6A    -11.379844
       7A    -11.337226     8A    -11.289902     9A    -11.256155
      10A     -1.428215    11A     -1.388094    12A     -1.312288
      13A     -1.245571    14A     -1.091123    15A     -0.989643
      16A     -0.930626    17A     -0.872613    18A     -0.771676
      19A     -0.752900    20A     -0.700058    21A     -0.685594
      22A     -0.658046    23A     -0.644579    24A     -0.616148
      25A     -0.607832    26A     -0.602523    27A     -0.569644
      28A     -0.554182    29A     -0.499956    30A     -0.479878
      31A     -0.446102    32A     -0.432975    33A     -0.360815

  @DF-RHF Final Energy:  -451.66017370959912

   => Energetics <=

    Nuclear Repulsion Energy =            441.1026247016172874
    One-Electron Energy =               -1490.1688564506355306
    Two-Electron Energy =                 597.4060580394191220
    Total Energy =                       -451.6601737095991211
  Basis Set: (AUG-CC-PVTZ AUX)
    Blend: AUG-CC-PVTZ-RI
    Molecular point group: c1

    Geometry (in Angstrom), charge = 0, multiplicity = 1:

       Center              X                  Y                   Z               Mass
    ------------   -----------------  -----------------  -----------------  -----------------
         O           -1.444816790101     1.816505689766     0.000368667185    15.994914619570
         O            2.857920209899     0.236065689766     0.000287667185    15.994914619570
         N           -1.139849790101    -0.479726310234     0.000544667185    14.003074004430
         N            0.684651209899     0.959480689766     0.000627667185    14.003074004430
         C           -0.699259790101     0.840960689766     0.000040667185    12.000000000000
         C           -0.254466790101    -1.540217310234     0.000389667185    12.000000000000
         C           -2.578488790101    -0.735409310234     0.000274667185    12.000000000000
         C            1.088832209899    -1.382509310234     0.000421667185    12.000000000000
         C            1.660118209899    -0.044383310234     0.000128667185    12.000000000000
         H           -0.726560790101    -2.518438310234     0.000524667185     1.007825032230
         H           -2.861632790101    -1.296419310234     0.893980667185     1.007825032230
         H           -2.883018990101    -1.268225110234    -0.903643932815     1.007825032230
         H           -3.095357490101     0.220806089766    -0.033439132815     1.007825032230
         H            1.024012209899     1.919055689766     0.000664667185     1.007825032230
         H            1.766471209899    -2.226364310234     0.000260667185     1.007825032230

  Basis Set: AUG-CC-PVTZ
    Blend: AUG-CC-PVTZ
  Basis Set: (AUG-CC-PVTZ AUX)
    Blend: AUG-CC-PVTZ-JKFIT
	 Reference Energy          =    -451.6601737095991211 [Eh]
	 Singles Energy            =      -0.0000000000000000 [Eh]
	 Same-Spin Energy          =      -0.4580323839769317 [Eh]
	 Opposite-Spin Energy      =      -1.3847948121440969 [Eh]
	 Correlation Energy        =      -1.8428271961210285 [Eh]
	 Total Energy              =    -453.5030009057201710 [Eh]

	 ================> DF-SCS-MP2 Energies <==================
	-----------------------------------------------------------
	 SCS Same-Spin Scale       =       0.3333333333333333 [-]
	 SCS Opposite-Spin Scale   =       1.2000000000000000 [-]
	 SCS Same-Spin Energy      =      -0.1526774613256439 [Eh]
	 SCS Opposite-Spin Energy  =      -1.6617537745729163 [Eh]
	 SCS Correlation Energy    =      -1.8144312358985601 [Eh]
	 SCS Total Energy          =    -453.4746049454976742 [Eh]
	-----------------------------------------------------------

  Dipole Moment: [D]
     X:    -3.2506      Y:    -3.5294      Z:    -0.0228     Total:     4.7983

*** Psi4 exiting successfully. Buy a developer a beer!
