                               Psi4 1.3.2 release

  ==> Input File <==

--------------------------------------------------------------------------
#psi4
#
memory 32 gb

molecule  {
0 1
  O       -1.3945310     1.8555980     0.0000210
  O        2.9082060     0.2751580    -0.0000600
  N       -1.0895640    -0.4406340     0.0001970
  N        0.7349370     0.9985730     0.0002800
  C       -0.6031511     0.8638721    -0.0003240
  C       -0.1677098    -1.4695796     0.0000182
  C       -2.5282030    -0.6963170    -0.0000730
  C        1.1391180    -1.3434170     0.0000740
  C        1.7104040    -0.0052910    -0.0002190
  H       -0.6762750    -2.4793460     0.0001770
  H       -2.8113470    -1.2573270     0.8936330
  H       -2.8107340    -1.2584070    -0.8933430
  H       -3.0286960     0.2691590    -0.0008180
  H        1.0742980     1.9581480     0.0003170
  H        1.8167570    -2.1872720    -0.0000870
units angstrom
no_reorient  #important for SAPT in psi4, default
symmetry c1  #important for SAPT in psi4, default
}

set PROPERTIES_ORIGIN ["COM"]
properties('MP2/aug-cc-pvtz', properties = ['dipole'])
--------------------------------------------------------------------------

    Molecular point group: c1
  Charge       = 0
  Multiplicity = 1
  Basis Set: AUG-CC-PVTZ
    Blend: AUG-CC-PVTZ
  Basis Set: (AUG-CC-PVTZ AUX)
    Blend: AUG-CC-PVTZ-JKFIT

    Orbital Energies [Eh]
    ---------------------

    Doubly Occupied:

       1A    -20.544718     2A    -20.533576     3A    -15.644967
       4A    -15.634318     5A    -11.415912     6A    -11.384737
       7A    -11.334999     8A    -11.290539     9A    -11.254365
      10A     -1.420813    11A     -1.385488    12A     -1.302296
      13A     -1.258313    14A     -1.102287    15A     -0.992726
      16A     -0.925967    17A     -0.884570    18A     -0.779084
      19A     -0.758243    20A     -0.689952    21A     -0.686339
      22A     -0.659363    23A     -0.636721    24A     -0.618829
      25A     -0.612832    26A     -0.601742    27A     -0.567484
      28A     -0.548688    29A     -0.502180    30A     -0.469029
      31A     -0.448208    32A     -0.433077    33A     -0.367092

  @DF-RHF Final Energy:  -451.65307000552372

   => Energetics <=

    Nuclear Repulsion Energy =            442.1119242724230958
    One-Electron Energy =               -1492.1510831427581252
    Two-Electron Energy =                 598.3860888648113132
    Total Energy =                       -451.6530700055237730
  Basis Set: (AUG-CC-PVTZ AUX)
    Blend: AUG-CC-PVTZ-RI
    Molecular point group: c1

    Geometry (in Angstrom), charge = 0, multiplicity = 1:

       Center              X                  Y                   Z               Mass
    ------------   -----------------  -----------------  -----------------  -----------------
         O           -1.452958495516     1.815202928903     0.000023791765    15.994914619570
         O            2.849778504484     0.234762928903    -0.000057208235    15.994914619570
         N           -1.147991495516    -0.481029071097     0.000199791765    14.003074004430
         N            0.676509504484     0.958177928903     0.000282791765    14.003074004430
         C           -0.661578595516     0.823477028903    -0.000321208235    12.000000000000
         C           -0.226137295516    -1.509974671097     0.000020991765    12.000000000000
         C           -2.586630495516    -0.736712071097    -0.000070208235    12.000000000000
         C            1.080690504484    -1.383812071097     0.000076791765    12.000000000000
         C            1.651976504484    -0.045686071097    -0.000216208235    12.000000000000
         H           -0.734702495516    -2.519741071097     0.000179791765     1.007825032230
         H           -2.869774495516    -1.297722071097     0.893635791765     1.007825032230
         H           -2.869161495516    -1.298802071097    -0.893340208235     1.007825032230
         H           -3.087123495516     0.228763928903    -0.000815208235     1.007825032230
         H            1.015870504484     1.917752928903     0.000319791765     1.007825032230
         H            1.758329504484    -2.227667071097    -0.000084208235     1.007825032230

  Basis Set: AUG-CC-PVTZ
    Blend: AUG-CC-PVTZ
  Basis Set: (AUG-CC-PVTZ AUX)
    Blend: AUG-CC-PVTZ-JKFIT
	 Reference Energy          =    -451.6530700055237162 [Eh]
	 Singles Energy            =      -0.0000000000000000 [Eh]
	 Same-Spin Energy          =      -0.4583254041849077 [Eh]
	 Opposite-Spin Energy      =      -1.3850622588019375 [Eh]
	 Correlation Energy        =      -1.8433876629868453 [Eh]
	 Total Energy              =    -453.4964576685105726 [Eh]

	 ================> DF-SCS-MP2 Energies <==================
	-----------------------------------------------------------
	 SCS Same-Spin Scale       =       0.3333333333333333 [-]
	 SCS Opposite-Spin Scale   =       1.2000000000000000 [-]
	 SCS Same-Spin Energy      =      -0.1527751347283026 [Eh]
	 SCS Opposite-Spin Energy  =      -1.6620747105623248 [Eh]
	 SCS Correlation Energy    =      -1.8148498452906274 [Eh]
	 SCS Total Energy          =    -453.4679198508143259 [Eh]
	-----------------------------------------------------------

  Dipole Moment: [D]
     X:    -2.8163      Y:    -3.7327      Z:    -0.0008     Total:     4.6760

*** Psi4 exiting successfully. Buy a developer a beer!
