                               Psi4 1.3.2 release

  ==> Input File <==

--------------------------------------------------------------------------
#psi4
#
memory 32 gb

molecule  {
0 1
  O       -1.3945310     1.8555980     0.0000210
  O        2.8918869     0.3374618    -0.0000284
  N       -1.0895640    -0.4406340     0.0001970
  N        0.7888120     1.0482492     0.0003061
  C       -0.6489740     0.8800530    -0.0003070
  C       -0.2041810    -1.5011250     0.0000420
  C       -2.5282030    -0.6963170    -0.0000730
  C        1.1391180    -1.3434170     0.0000740
  C        1.7104040    -0.0052910    -0.0002190
  H       -0.6762750    -2.4793460     0.0001770
  H       -2.8113470    -1.2573270     0.8936330
  H       -2.8107340    -1.2584070    -0.8933430
  H       -3.0286960     0.2691590    -0.0008180
  H        1.0742980     1.9581480     0.0003170
  H        1.8167570    -2.1872720    -0.0000870
units angstrom
no_reorient  #important for SAPT in psi4, default
symmetry c1  #important for SAPT in psi4, default
}

set PROPERTIES_ORIGIN ["COM"]
properties('MP2/aug-cc-pvtz', properties = ['dipole'])
--------------------------------------------------------------------------

    Molecular point group: c1
  Charge       = 0
  Multiplicity = 1
  Basis Set: AUG-CC-PVTZ
    Blend: AUG-CC-PVTZ
  Basis Set: (AUG-CC-PVTZ AUX)
    Blend: AUG-CC-PVTZ-JKFIT

    Orbital Energies [Eh]
    ---------------------

    Doubly Occupied:

       1A    -20.548948     2A    -20.531931     3A    -15.648226
       4A    -15.617105     5A    -11.421830     6A    -11.376352
       7A    -11.340676     8A    -11.292454     9A    -11.260462
      10A     -1.425457    11A     -1.386993    12A     -1.312380
      13A     -1.235725    14A     -1.093660    15A     -0.988962
      16A     -0.936370    17A     -0.857833    18A     -0.775198
      19A     -0.758641    20A     -0.706676    21A     -0.683372
      22A     -0.657111    23A     -0.643944    24A     -0.614670
      25A     -0.611254    26A     -0.601299    27A     -0.576244
      28A     -0.553696    29A     -0.500967    30A     -0.481150
      31A     -0.439912    32A     -0.426613    33A     -0.363102

  @DF-RHF Final Energy:  -451.65225656218900

   => Energetics <=

    Nuclear Repulsion Energy =            440.0837642767118041
    One-Electron Energy =               -1488.1336204980302682
    Two-Electron Energy =                 596.3975996591293551
    Total Energy =                       -451.6522565621889953
  Basis Set: (AUG-CC-PVTZ AUX)
    Blend: AUG-CC-PVTZ-RI
    Molecular point group: c1

    Geometry (in Angstrom), charge = 0, multiplicity = 1:

       Center              X                  Y                   Z               Mass
    ------------   -----------------  -----------------  -----------------  -----------------
         O           -1.449038115299     1.803240421391     0.000012997668    15.994914619570
         O            2.837379784701     0.285104221391    -0.000036402332    15.994914619570
         N           -1.144071115299    -0.492991578609     0.000188997668    14.003074004430
         N            0.734304884701     0.995891621391     0.000298097668    14.003074004430
         C           -0.703481115299     0.827695421391    -0.000315002332    12.000000000000
         C           -0.258688115299    -1.553482578609     0.000033997668    12.000000000000
         C           -2.582710115299    -0.748674578609    -0.000081002332    12.000000000000
         C            1.084610884701    -1.395774578609     0.000065997668    12.000000000000
         C            1.655896884701    -0.057648578609    -0.000227002332    12.000000000000
         H           -0.730782115299    -2.531703578609     0.000168997668     1.007825032230
         H           -2.865854115299    -1.309684578609     0.893624997668     1.007825032230
         H           -2.865241115299    -1.310764578609    -0.893351002332     1.007825032230
         H           -3.083203115299     0.216801421391    -0.000826002332     1.007825032230
         H            1.019790884701     1.905790421391     0.000308997668     1.007825032230
         H            1.762249884701    -2.239629578609    -0.000095002332     1.007825032230

  Basis Set: AUG-CC-PVTZ
    Blend: AUG-CC-PVTZ
  Basis Set: (AUG-CC-PVTZ AUX)
    Blend: AUG-CC-PVTZ-JKFIT
	 Reference Energy          =    -451.6522565621889953 [Eh]
	 Singles Energy            =      -0.0000000000000000 [Eh]
	 Same-Spin Energy          =      -0.4572667365835799 [Eh]
	 Opposite-Spin Energy      =      -1.3843324170580344 [Eh]
	 Correlation Energy        =      -1.8415991536416143 [Eh]
	 Total Energy              =    -453.4938557158305912 [Eh]

	 ================> DF-SCS-MP2 Energies <==================
	-----------------------------------------------------------
	 SCS Same-Spin Scale       =       0.3333333333333333 [-]
	 SCS Opposite-Spin Scale   =       1.2000000000000000 [-]
	 SCS Same-Spin Energy      =      -0.1524222455278599 [Eh]
	 SCS Opposite-Spin Energy  =      -1.6611989004696412 [Eh]
	 SCS Correlation Energy    =      -1.8136211459975011 [Eh]
	 SCS Total Energy          =    -453.4658777081864969 [Eh]
	-----------------------------------------------------------

  Dipole Moment: [D]
     X:    -3.4667      Y:    -3.7424      Z:    -0.0010     Total:     5.1013

*** Psi4 exiting successfully. Buy a developer a beer!
