                               Psi4 1.4a3.dev225

  ==> Input File <==

--------------------------------------------------------------------------
#psi4
#
memory 32 gb

molecule  {
0 1
  O       -1.4350980    -1.8086910     0.0000000
  O        2.9075840    -0.3082450     0.0000000
  N       -1.0785060     0.4619330     0.0000000
  N        0.7249750    -1.0056720    -0.0000010
  C       -0.6670241    -0.8165126     0.0000000
  C       -0.1841290     1.5083600     0.0000000
  C       -2.5245930     0.6731660     0.0000000
  C        1.1582900     1.3329580     0.0000000
  C        1.7164880    -0.0081480     0.0000000
  H       -0.6338540     2.4967290    -0.0000010
  H       -2.9690000     0.2175100    -0.8862740
  H       -2.7140630     1.7465080     0.0000000
  H       -2.9689990     0.2175090     0.8862740
  H        1.0585810    -1.9665760     0.0000000
  H        1.8360540     2.1766110     0.0000000
units angstrom
no_reorient  #important for SAPT in psi4, default
symmetry c1  #important for SAPT in psi4, default
}

set PROPERTIES_ORIGIN ["COM"]
properties('MP2/aug-cc-pvtz', properties = ['dipole'])
--------------------------------------------------------------------------

    Molecular point group: c1
  Charge       = 0
  Multiplicity = 1
  Basis Set: AUG-CC-PVTZ
    Blend: AUG-CC-PVTZ
  Basis Set: (AUG-CC-PVTZ AUX)
    Blend: AUG-CC-PVTZ-JKFIT

    Orbital Energies [Eh]
    ---------------------

    Doubly Occupied:

       1A    -20.538178     2A    -20.537921     3A    -15.651306
       4A    -15.624828     5A    -11.414462     6A    -11.378680
       7A    -11.341105     8A    -11.296360     9A    -11.259100
      10A     -1.421824    11A     -1.385928    12A     -1.314206
      13A     -1.240780    14A     -1.095487    15A     -0.998184
      16A     -0.939637    17A     -0.865771    18A     -0.778361
      19A     -0.752754    20A     -0.702714    21A     -0.691484
      22A     -0.654985    23A     -0.639594    24A     -0.609806
      25A     -0.609059    26A     -0.602574    27A     -0.582332
      28A     -0.547069    29A     -0.502672    30A     -0.475147
      31A     -0.442944    32A     -0.427734    33A     -0.363896

  @DF-RHF Final Energy:  -451.65691094972181

   => Energetics <=

    Nuclear Repulsion Energy =            441.8590174768879706
    One-Electron Energy =               -1491.6580938029364916
    Two-Electron Energy =                 598.1421653763268296
    Total Energy =                       -451.6569109497218051
  Basis Set: (AUG-CC-PVTZ AUX)
    Blend: AUG-CC-PVTZ-RI
    Molecular point group: c1

    Geometry (in Angstrom), charge = 0, multiplicity = 1:

       Center              X                  Y                   Z               Mass
    ------------   -----------------  -----------------  -----------------  -----------------
         O           -1.483881831332    -1.774815198452     0.000000119094    15.994914619570
         O            2.858800168668    -0.274369198452     0.000000119094    15.994914619570
         N           -1.127289831332     0.495808801548     0.000000119094    14.003074004430
         N            0.676191168668    -0.971796198452    -0.000000880906    14.003074004430
         C           -0.715807931332    -0.782636798452     0.000000119094    12.000000000000
         C           -0.232912831332     1.542235801548     0.000000119094    12.000000000000
         C           -2.573376831332     0.707041801548     0.000000119094    12.000000000000
         C            1.109506168668     1.366833801548     0.000000119094    12.000000000000
         C            1.667704168668     0.025727801548     0.000000119094    12.000000000000
         H           -0.682637831332     2.530604801548    -0.000000880906     1.007825032230
         H           -3.017783831332     0.251385801548    -0.886273880906     1.007825032230
         H           -2.762846831332     1.780383801548     0.000000119094     1.007825032230
         H           -3.017782831332     0.251384801548     0.886274119094     1.007825032230
         H            1.009797168668    -1.932700198452     0.000000119094     1.007825032230
         H            1.787270168668     2.210486801548     0.000000119094     1.007825032230

  Basis Set: AUG-CC-PVTZ
    Blend: AUG-CC-PVTZ
  Basis Set: (AUG-CC-PVTZ AUX)
    Blend: AUG-CC-PVTZ-JKFIT
	 Reference Energy          =    -451.6569109497218051 [Eh]
	 Singles Energy            =      -0.0000000000000000 [Eh]
	 Same-Spin Energy          =      -0.4583828287796434 [Eh]
	 Opposite-Spin Energy      =      -1.3855407996368250 [Eh]
	 Correlation Energy        =      -1.8439236284164684 [Eh]
	 Total Energy              =    -453.5008345781382673 [Eh]

	 ================> DF-SCS-MP2 Energies <==================
	-----------------------------------------------------------
	 SCS Same-Spin Scale       =       0.3333333333333333 [-]
	 SCS Opposite-Spin Scale   =       1.2000000000000000 [-]
	 SCS Same-Spin Energy      =      -0.1527942762598811 [Eh]
	 SCS Opposite-Spin Energy  =      -1.6626489595641900 [Eh]
	 SCS Correlation Energy    =      -1.8154432358240711 [Eh]
	 SCS Total Energy          =    -453.4723541855458961 [Eh]
	-----------------------------------------------------------

  Dipole Moment: [D]
     X:    -3.2114      Y:     3.9375      Z:     0.0000     Total:     5.0810

*** Psi4 exiting successfully. Buy a developer a beer!
