                               Psi4 1.3.2 release

  ==> Input File <==

--------------------------------------------------------------------------
#psi4
#
memory 32 gb

molecule  {
0 1
  O       -1.3945310     1.8555980     0.0000210
  O        2.9082060     0.2751580    -0.0000600
  N       -1.0780222    -0.4444285     0.0002045
  N        0.7359186     0.9864917     0.0002870
  C       -0.6489740     0.8800530    -0.0003070
  C       -0.2041810    -1.5011250     0.0000420
  C       -2.5282030    -0.6963170    -0.0000730
  C        1.1391180    -1.3434170     0.0000740
  C        1.7104040    -0.0052910    -0.0002190
  H       -0.6762750    -2.4793460     0.0001770
  H       -2.8113470    -1.2573270     0.8936330
  H       -2.8107340    -1.2584070    -0.8933430
  H       -3.0286960     0.2691590    -0.0008180
  H        1.0742980     1.9581480     0.0003170
  H        1.8167570    -2.1872720    -0.0000870
units angstrom
no_reorient  #important for SAPT in psi4, default
symmetry c1  #important for SAPT in psi4, default
}

set PROPERTIES_ORIGIN ["COM"]
properties('MP2/aug-cc-pvtz', properties = ['dipole'])
--------------------------------------------------------------------------

    Molecular point group: c1
  Charge       = 0
  Multiplicity = 1
  Basis Set: AUG-CC-PVTZ
    Blend: AUG-CC-PVTZ
  Basis Set: (AUG-CC-PVTZ AUX)
    Blend: AUG-CC-PVTZ-JKFIT

    Orbital Energies [Eh]
    ---------------------

    Doubly Occupied:

       1A    -20.547445     2A    -20.536992     3A    -15.644748
       4A    -15.627349     5A    -11.419721     6A    -11.378199
       7A    -11.335863     8A    -11.291285     9A    -11.254324
      10A     -1.429375    11A     -1.387549    12A     -1.314570
      13A     -1.246048    14A     -1.090180    15A     -0.989885
      16A     -0.931250    17A     -0.875291    18A     -0.771013
      19A     -0.750547    20A     -0.699850    21A     -0.685712
      22A     -0.657896    23A     -0.643490    24A     -0.615502
      25A     -0.609130    26A     -0.599334    27A     -0.573047
      28A     -0.554563    29A     -0.501593    30A     -0.480736
      31A     -0.445676    32A     -0.433180    33A     -0.359403

  @DF-RHF Final Energy:  -451.65963511038518

   => Energetics <=

    Nuclear Repulsion Energy =            441.4675945647949220
    One-Electron Energy =               -1490.8929643260153171
    Two-Electron Energy =                 597.7657346508351566
    Total Energy =                       -451.6596351103851248
  Basis Set: (AUG-CC-PVTZ AUX)
    Blend: AUG-CC-PVTZ-RI
    Molecular point group: c1

    Geometry (in Angstrom), charge = 0, multiplicity = 1:

       Center              X                  Y                   Z               Mass
    ------------   -----------------  -----------------  -----------------  -----------------
         O           -1.446514951879     1.818429480448     0.000018296458    15.994914619570
         O            2.856222048121     0.237989480448    -0.000062703542    15.994914619570
         N           -1.130006151879    -0.481597019552     0.000201796458    14.003074004430
         N            0.683934648121     0.949323180448     0.000284296458    14.003074004430
         C           -0.700957951879     0.842884480448    -0.000309703542    12.000000000000
         C           -0.256164951879    -1.538293519552     0.000039296458    12.000000000000
         C           -2.580186951879    -0.733485519552    -0.000075703542    12.000000000000
         C            1.087134048121    -1.380585519552     0.000071296458    12.000000000000
         C            1.658420048121    -0.042459519552    -0.000221703542    12.000000000000
         H           -0.728258951879    -2.516514519552     0.000174296458     1.007825032230
         H           -2.863330951879    -1.294495519552     0.893630296458     1.007825032230
         H           -2.862717951879    -1.295575519552    -0.893345703542     1.007825032230
         H           -3.080679951879     0.231990480448    -0.000820703542     1.007825032230
         H            1.022314048121     1.920979480448     0.000314296458     1.007825032230
         H            1.764773048121    -2.224440519552    -0.000089703542     1.007825032230

  Basis Set: AUG-CC-PVTZ
    Blend: AUG-CC-PVTZ
  Basis Set: (AUG-CC-PVTZ AUX)
    Blend: AUG-CC-PVTZ-JKFIT
	 Reference Energy          =    -451.6596351103851816 [Eh]
	 Singles Energy            =      -0.0000000000000000 [Eh]
	 Same-Spin Energy          =      -0.4583320693667647 [Eh]
	 Opposite-Spin Energy      =      -1.3850987621442901 [Eh]
	 Correlation Energy        =      -1.8434308315110548 [Eh]
	 Total Energy              =    -453.5030659418962387 [Eh]

	 ================> DF-SCS-MP2 Energies <==================
	-----------------------------------------------------------
	 SCS Same-Spin Scale       =       0.3333333333333333 [-]
	 SCS Opposite-Spin Scale   =       1.2000000000000000 [-]
	 SCS Same-Spin Energy      =      -0.1527773564555882 [Eh]
	 SCS Opposite-Spin Energy  =      -1.6621185145731481 [Eh]
	 SCS Correlation Energy    =      -1.8148958710287364 [Eh]
	 SCS Total Energy          =    -453.4745309814139205 [Eh]
	-----------------------------------------------------------

  Dipole Moment: [D]
     X:    -3.3371      Y:    -3.4965      Z:    -0.0009     Total:     4.8334

*** Psi4 exiting successfully. Buy a developer a beer!
