                               Psi4 1.4a3.dev225

  ==> Input File <==

--------------------------------------------------------------------------
#psi4
#
memory 32 gb

molecule  {
0 1
  O       -1.4350980    -1.8086910     0.0000000
  O        2.9075840    -0.3082450     0.0000000
  N       -1.0785060     0.4619330     0.0000000
  N        0.7249750    -1.0056720    -0.0000010
  C       -0.6517050    -0.8641080     0.0000000
  C       -0.1841290     1.5083600     0.0000000
  C       -2.5245930     0.6731660     0.0000000
  C        1.1582900     1.3329580     0.0000000
  C        1.7164880    -0.0081480     0.0000000
  H       -0.6131461     2.4512188    -0.0000010
  H       -2.9690000     0.2175100    -0.8862740
  H       -2.7140630     1.7465080     0.0000000
  H       -2.9689990     0.2175090     0.8862740
  H        1.0585810    -1.9665760     0.0000000
  H        1.8360540     2.1766110     0.0000000
units angstrom
no_reorient  #important for SAPT in psi4, default
symmetry c1  #important for SAPT in psi4, default
}

set PROPERTIES_ORIGIN ["COM"]
properties('MP2/aug-cc-pvtz', properties = ['dipole'])
--------------------------------------------------------------------------

    Molecular point group: c1
  Charge       = 0
  Multiplicity = 1
  Basis Set: AUG-CC-PVTZ
    Blend: AUG-CC-PVTZ
  Basis Set: (AUG-CC-PVTZ AUX)
    Blend: AUG-CC-PVTZ-JKFIT

    Orbital Energies [Eh]
    ---------------------

    Doubly Occupied:

       1A    -20.545761     2A    -20.538467     3A    -15.644585
       4A    -15.626584     5A    -11.415989     6A    -11.379583
       7A    -11.332862     8A    -11.292800     9A    -11.253452
      10A     -1.428956    11A     -1.388752    12A     -1.312264
      13A     -1.246261    14A     -1.092443    15A     -0.989065
      16A     -0.935648    17A     -0.872351    18A     -0.773212
      19A     -0.752225    20A     -0.709658    21A     -0.685979
      22A     -0.658351    23A     -0.644167    24A     -0.610642
      25A     -0.609242    26A     -0.603950    27A     -0.578460
      28A     -0.550554    29A     -0.503140    30A     -0.480402
      31A     -0.446085    32A     -0.432840    33A     -0.358491

  @DF-RHF Final Energy:  -451.66065749248992

   => Energetics <=

    Nuclear Repulsion Energy =            441.8675157251299765
    One-Electron Energy =               -1491.6699060139262656
    Two-Electron Energy =                 598.1417327963063144
    Total Energy =                       -451.6606574924899178
  Basis Set: (AUG-CC-PVTZ AUX)
    Blend: AUG-CC-PVTZ-RI
    Molecular point group: c1

    Geometry (in Angstrom), charge = 0, multiplicity = 1:

       Center              X                  Y                   Z               Mass
    ------------   -----------------  -----------------  -----------------  -----------------
         O           -1.485505874379    -1.769919952591     0.000000119094    15.994914619570
         O            2.857176125621    -0.269473952591     0.000000119094    15.994914619570
         N           -1.128913874379     0.500704047409     0.000000119094    14.003074004430
         N            0.674567125621    -0.966900952591    -0.000000880906    14.003074004430
         C           -0.702112874379    -0.825336952591     0.000000119094    12.000000000000
         C           -0.234536874379     1.547131047409     0.000000119094    12.000000000000
         C           -2.575000874379     0.711937047409     0.000000119094    12.000000000000
         C            1.107882125621     1.371729047409     0.000000119094    12.000000000000
         C            1.666080125621     0.030623047409     0.000000119094    12.000000000000
         H           -0.663553974379     2.489989847409    -0.000000880906     1.007825032230
         H           -3.019407874379     0.256281047409    -0.886273880906     1.007825032230
         H           -2.764470874379     1.785279047409     0.000000119094     1.007825032230
         H           -3.019406874379     0.256280047409     0.886274119094     1.007825032230
         H            1.008173125621    -1.927804952591     0.000000119094     1.007825032230
         H            1.785646125621     2.215382047409     0.000000119094     1.007825032230

  Basis Set: AUG-CC-PVTZ
    Blend: AUG-CC-PVTZ
  Basis Set: (AUG-CC-PVTZ AUX)
    Blend: AUG-CC-PVTZ-JKFIT
	 Reference Energy          =    -451.6606574924899178 [Eh]
	 Singles Energy            =      -0.0000000000000000 [Eh]
	 Same-Spin Energy          =      -0.4578760039873464 [Eh]
	 Opposite-Spin Energy      =      -1.3842963037760114 [Eh]
	 Correlation Energy        =      -1.8421723077633578 [Eh]
	 Total Energy              =    -453.5028298002532665 [Eh]

	 ================> DF-SCS-MP2 Energies <==================
	-----------------------------------------------------------
	 SCS Same-Spin Scale       =       0.3333333333333333 [-]
	 SCS Opposite-Spin Scale   =       1.2000000000000000 [-]
	 SCS Same-Spin Energy      =      -0.1526253346624488 [Eh]
	 SCS Opposite-Spin Energy  =      -1.6611555645312137 [Eh]
	 SCS Correlation Energy    =      -1.8137808991936626 [Eh]
	 SCS Total Energy          =    -453.4744383916835773 [Eh]
	-----------------------------------------------------------

  Dipole Moment: [D]
     X:    -3.2185      Y:     3.5531      Z:     0.0000     Total:     4.7941

*** Psi4 exiting successfully. Buy a developer a beer!
