                               Psi4 1.3.2 release

  ==> Input File <==

--------------------------------------------------------------------------
#psi4
#
memory 32 gb

molecule  {
0 1
  O       -1.3945310     1.8555980     0.0000210
  O        2.9082060     0.2751580    -0.0000600
  N       -1.0895640    -0.4406340     0.0001970
  N        0.7349370     0.9985730     0.0002800
  C       -0.6489740     0.8800530    -0.0003070
  C       -0.2041810    -1.5011250     0.0000420
  C       -2.5282030    -0.6963170    -0.0000730
  C        1.1438036    -1.3903935     0.0000816
  C        1.7104040    -0.0052910    -0.0002190
  H       -0.6418480    -2.4952259     0.0001810
  H       -2.8113470    -1.2573270     0.8936330
  H       -2.8107340    -1.2584070    -0.8933430
  H       -3.0286960     0.2691590    -0.0008180
  H        1.0742980     1.9581480     0.0003170
  H        1.8167570    -2.1872720    -0.0000870
units angstrom
no_reorient  #important for SAPT in psi4, default
symmetry c1  #important for SAPT in psi4, default
}

set PROPERTIES_ORIGIN ["COM"]
properties('MP2/aug-cc-pvtz', properties = ['dipole'])
--------------------------------------------------------------------------

    Molecular point group: c1
  Charge       = 0
  Multiplicity = 1
  Basis Set: AUG-CC-PVTZ
    Blend: AUG-CC-PVTZ
  Basis Set: (AUG-CC-PVTZ AUX)
    Blend: AUG-CC-PVTZ-JKFIT

    Orbital Energies [Eh]
    ---------------------

    Doubly Occupied:

       1A    -20.546235     2A    -20.540251     3A    -15.644775
       4A    -15.627708     5A    -11.419159     6A    -11.382577
       7A    -11.334379     8A    -11.289620     9A    -11.256561
      10A     -1.428476    11A     -1.388397    12A     -1.311365
      13A     -1.245667    14A     -1.088988    15A     -0.988813
      16A     -0.924488    17A     -0.874000    18A     -0.771981
      19A     -0.753539    20A     -0.696436    21A     -0.684710
      22A     -0.661130    23A     -0.644240    24A     -0.618453
      25A     -0.614216    26A     -0.597187    27A     -0.574801
      28A     -0.553280    29A     -0.499272    30A     -0.479047
      31A     -0.444550    32A     -0.433660    33A     -0.360736

  @DF-RHF Final Energy:  -451.65845354980422

   => Energetics <=

    Nuclear Repulsion Energy =            440.3297190053709187
    One-Electron Energy =               -1488.6189499198565045
    Two-Electron Energy =                 596.6307773646814212
    Total Energy =                       -451.6584535498042214
  Basis Set: (AUG-CC-PVTZ AUX)
    Blend: AUG-CC-PVTZ-RI
    Molecular point group: c1

    Geometry (in Angstrom), charge = 0, multiplicity = 1:

       Center              X                  Y                   Z               Mass
    ------------   -----------------  -----------------  -----------------  -----------------
         O           -1.445845001519     1.821265118795     0.000019151827    15.994914619570
         O            2.856891998481     0.240825118795    -0.000061848173    15.994914619570
         N           -1.140878001519    -0.474966881205     0.000195151827    14.003074004430
         N            0.683622998481     0.964240118795     0.000278151827    14.003074004430
         C           -0.700288001519     0.845720118795    -0.000308848173    12.000000000000
         C           -0.255495001519    -1.535457881205     0.000040151827    12.000000000000
         C           -2.579517001519    -0.730649881205    -0.000074848173    12.000000000000
         C            1.092489598481    -1.424726381205     0.000079751827    12.000000000000
         C            1.659089998481    -0.039623881205    -0.000220848173    12.000000000000
         H           -0.693162001519    -2.529558781205     0.000179151827     1.007825032230
         H           -2.862661001519    -1.291659881205     0.893631151827     1.007825032230
         H           -2.862048001519    -1.292739881205    -0.893344848173     1.007825032230
         H           -3.080010001519     0.234826118795    -0.000819848173     1.007825032230
         H            1.022983998481     1.923815118795     0.000315151827     1.007825032230
         H            1.765442998481    -2.221604881205    -0.000088848173     1.007825032230

  Basis Set: AUG-CC-PVTZ
    Blend: AUG-CC-PVTZ
  Basis Set: (AUG-CC-PVTZ AUX)
    Blend: AUG-CC-PVTZ-JKFIT
	 Reference Energy          =    -451.6584535498042214 [Eh]
	 Singles Energy            =      -0.0000000000000000 [Eh]
	 Same-Spin Energy          =      -0.4574608539143999 [Eh]
	 Opposite-Spin Energy      =      -1.3843961059316774 [Eh]
	 Correlation Energy        =      -1.8418569598460772 [Eh]
	 Total Energy              =    -453.5003105096503191 [Eh]

	 ================> DF-SCS-MP2 Energies <==================
	-----------------------------------------------------------
	 SCS Same-Spin Scale       =       0.3333333333333333 [-]
	 SCS Opposite-Spin Scale   =       1.2000000000000000 [-]
	 SCS Same-Spin Energy      =      -0.1524869513048000 [Eh]
	 SCS Opposite-Spin Energy  =      -1.6612753271180127 [Eh]
	 SCS Correlation Energy    =      -1.8137622784228127 [Eh]
	 SCS Total Energy          =    -453.4722158282270357 [Eh]
	-----------------------------------------------------------

  Dipole Moment: [D]
     X:    -3.1431      Y:    -3.4747      Z:    -0.0009     Total:     4.6854

*** Psi4 exiting successfully. Buy a developer a beer!
