                               Psi4 1.3.2 release

  ==> Input File <==

--------------------------------------------------------------------------
#psi4
#
memory 32 gb

molecule  {
0 1
  O       -1.3945310     1.8555980     0.0000210
  O        2.9082060     0.2751580    -0.0000600
  N       -1.0895640    -0.4406340     0.0001970
  N        0.7349370     0.9985730     0.0002800
  C       -0.6489740     0.8800530    -0.0003070
  C       -0.2041810    -1.5011250     0.0000420
  C       -2.5282030    -0.6963170    -0.0000730
  C        1.1391180    -1.3434170     0.0000740
  C        1.7191271     0.0032597    -0.0002206
  H       -0.6762750    -2.4793460     0.0001770
  H       -2.8113470    -1.2573270     0.8936330
  H       -2.8107340    -1.2584070    -0.8933430
  H       -3.0286960     0.2691590    -0.0008180
  H        1.0826588     1.9551500     0.0003136
  H        1.8167570    -2.1872720    -0.0000870
units angstrom
no_reorient  #important for SAPT in psi4, default
symmetry c1  #important for SAPT in psi4, default
}

set PROPERTIES_ORIGIN ["COM"]
properties('MP2/aug-cc-pvtz', properties = ['dipole'])
--------------------------------------------------------------------------

    Molecular point group: c1
  Charge       = 0
  Multiplicity = 1
  Basis Set: AUG-CC-PVTZ
    Blend: AUG-CC-PVTZ
  Basis Set: (AUG-CC-PVTZ AUX)
    Blend: AUG-CC-PVTZ-JKFIT

    Orbital Energies [Eh]
    ---------------------

    Doubly Occupied:

       1A    -20.545112     2A    -20.540990     3A    -15.643373
       4A    -15.625956     5A    -11.418469     6A    -11.379846
       7A    -11.335448     8A    -11.289336     9A    -11.255895
      10A     -1.428417    11A     -1.394607    12A     -1.311722
      13A     -1.246193    14A     -1.088748    15A     -0.989074
      16A     -0.928435    17A     -0.872467    18A     -0.771594
      19A     -0.750429    20A     -0.699197    21A     -0.684598
      22A     -0.658619    23A     -0.645223    24A     -0.615295
      25A     -0.609524    26A     -0.603621    27A     -0.571087
      28A     -0.556203    29A     -0.498740    30A     -0.479788
      31A     -0.446919    32A     -0.434320    33A     -0.359883

  @DF-RHF Final Energy:  -451.66126831926601

   => Energetics <=

    Nuclear Repulsion Energy =            441.1435140332640117
    One-Electron Energy =               -1490.2513079136981560
    Two-Electron Energy =                 597.4465255611681869
    Total Energy =                       -451.6612683192660143
  Basis Set: (AUG-CC-PVTZ AUX)
    Blend: AUG-CC-PVTZ-RI
    Molecular point group: c1

    Geometry (in Angstrom), charge = 0, multiplicity = 1:

       Center              X                  Y                   Z               Mass
    ------------   -----------------  -----------------  -----------------  -----------------
         O           -1.446020971973     1.815875612894     0.000020086889    15.994914619570
         O            2.856716028027     0.235435612894    -0.000060913111    15.994914619570
         N           -1.141053971973    -0.480356387106     0.000196086889    14.003074004430
         N            0.683447028027     0.958850612894     0.000279086889    14.003074004430
         C           -0.700463971973     0.840330612894    -0.000307913111    12.000000000000
         C           -0.255670971973    -1.540847387106     0.000041086889    12.000000000000
         C           -2.579692971973    -0.736039387106    -0.000073913111    12.000000000000
         C            1.087628028027    -1.383139387106     0.000073086889    12.000000000000
         C            1.667637128027    -0.036462687106    -0.000221513111    12.000000000000
         H           -0.727764971973    -2.519068387106     0.000176086889     1.007825032230
         H           -2.862836971973    -1.297049387106     0.893632086889     1.007825032230
         H           -2.862223971973    -1.298129387106    -0.893343913111     1.007825032230
         H           -3.080185971973     0.229436612894    -0.000818913111     1.007825032230
         H            1.031168828027     1.915427612894     0.000312686889     1.007825032230
         H            1.765267028027    -2.226994387106    -0.000087913111     1.007825032230

  Basis Set: AUG-CC-PVTZ
    Blend: AUG-CC-PVTZ
  Basis Set: (AUG-CC-PVTZ AUX)
    Blend: AUG-CC-PVTZ-JKFIT
	 Reference Energy          =    -451.6612683192660143 [Eh]
	 Singles Energy            =      -0.0000000000000000 [Eh]
	 Same-Spin Energy          =      -0.4577365610469230 [Eh]
	 Opposite-Spin Energy      =      -1.3843060186856804 [Eh]
	 Correlation Energy        =      -1.8420425797326034 [Eh]
	 Total Energy              =    -453.5033108989986204 [Eh]

	 ================> DF-SCS-MP2 Energies <==================
	-----------------------------------------------------------
	 SCS Same-Spin Scale       =       0.3333333333333333 [-]
	 SCS Opposite-Spin Scale   =       1.2000000000000000 [-]
	 SCS Same-Spin Energy      =      -0.1525788536823076 [Eh]
	 SCS Opposite-Spin Energy  =      -1.6611672224228164 [Eh]
	 SCS Correlation Energy    =      -1.8137460761051241 [Eh]
	 SCS Total Energy          =    -453.4750143953711472 [Eh]
	-----------------------------------------------------------

  Dipole Moment: [D]
     X:    -3.1392      Y:    -3.4999      Z:    -0.0009     Total:     4.7015

*** Psi4 exiting successfully. Buy a developer a beer!
