                               Psi4 1.3.2 release

  ==> Input File <==

--------------------------------------------------------------------------
#psi4
#
memory 32 gb

molecule  {
0 1
  O       -1.3945310     1.8555980     0.0000210
  O        2.9082060     0.2751580    -0.0000600
  N       -1.0895640    -0.4406340     0.0001970
  N        0.7349370     0.9985730     0.0002800
  C       -0.6489740     0.8800530    -0.0003070
  C       -0.2041810    -1.5011250     0.0000420
  C       -2.5282030    -0.6963170    -0.0000730
  C        1.1391180    -1.3434170     0.0000740
  C        1.7104040    -0.0052910    -0.0002190
  H       -0.6762750    -2.4793460     0.0001770
  H       -2.8113470    -1.2573270     0.8936330
  H       -2.8107340    -1.2584070    -0.8933430
  H       -3.0286960     0.2691590    -0.0008180
  H        1.0742980     1.9581480     0.0003170
  H        1.9419837    -2.3432152    -0.0001168
units angstrom
no_reorient  #important for SAPT in psi4, default
symmetry c1  #important for SAPT in psi4, default
}

set PROPERTIES_ORIGIN ["COM"]
properties('MP2/aug-cc-pvtz', properties = ['dipole'])
--------------------------------------------------------------------------

    Molecular point group: c1
  Charge       = 0
  Multiplicity = 1
  Basis Set: AUG-CC-PVTZ
    Blend: AUG-CC-PVTZ
  Basis Set: (AUG-CC-PVTZ AUX)
    Blend: AUG-CC-PVTZ-JKFIT

    Orbital Energies [Eh]
    ---------------------

    Doubly Occupied:

       1A    -20.545921     2A    -20.538922     3A    -15.645119
       4A    -15.627782     5A    -11.419059     6A    -11.381487
       7A    -11.337954     8A    -11.290364     9A    -11.275441
      10A     -1.428896    11A     -1.388272    12A     -1.312923
      13A     -1.246441    14A     -1.087263    15A     -0.989484
      16A     -0.929551    17A     -0.869092    18A     -0.770648
      19A     -0.743195    20A     -0.700120    21A     -0.685798
      22A     -0.654493    23A     -0.643008    24A     -0.615457
      25A     -0.603070    26A     -0.592225    27A     -0.554556
      28A     -0.550046    29A     -0.500043    30A     -0.480353
      31A     -0.446556    32A     -0.433556    33A     -0.361050

  @DF-RHF Final Energy:  -451.63770722012885

   => Energetics <=

    Nuclear Repulsion Energy =            440.2172256974408810
    One-Electron Energy =               -1488.4135747889811228
    Two-Electron Energy =                 596.5586418714113961
    Total Energy =                       -451.6377072201288456
  Basis Set: (AUG-CC-PVTZ AUX)
    Blend: AUG-CC-PVTZ-RI
    Molecular point group: c1

    Geometry (in Angstrom), charge = 0, multiplicity = 1:

       Center              X                  Y                   Z               Mass
    ------------   -----------------  -----------------  -----------------  -----------------
         O           -1.446124930043     1.817912620494     0.000020145651    15.994914619570
         O            2.856612069957     0.237472620494    -0.000060854349    15.994914619570
         N           -1.141157930043    -0.478319379506     0.000196145651    14.003074004430
         N            0.683343069957     0.960887620494     0.000279145651    14.003074004430
         C           -0.700567930043     0.842367620494    -0.000307854349    12.000000000000
         C           -0.255774930043    -1.538810379506     0.000041145651    12.000000000000
         C           -2.579796930043    -0.734002379506    -0.000073854349    12.000000000000
         C            1.087524069957    -1.381102379506     0.000073145651    12.000000000000
         C            1.658810069957    -0.042976379506    -0.000219854349    12.000000000000
         H           -0.727868930043    -2.517031379506     0.000176145651     1.007825032230
         H           -2.862940930043    -1.295012379506     0.893632145651     1.007825032230
         H           -2.862327930043    -1.296092379506    -0.893343854349     1.007825032230
         H           -3.080289930043     0.231473620494    -0.000818854349     1.007825032230
         H            1.022704069957     1.920462620494     0.000316145651     1.007825032230
         H            1.890389769957    -2.380900579506    -0.000117654349     1.007825032230

  Basis Set: AUG-CC-PVTZ
    Blend: AUG-CC-PVTZ
  Basis Set: (AUG-CC-PVTZ AUX)
    Blend: AUG-CC-PVTZ-JKFIT
	 Reference Energy          =    -451.6377072201288456 [Eh]
	 Singles Energy            =      -0.0000000000000000 [Eh]
	 Same-Spin Energy          =      -0.4585574047024731 [Eh]
	 Opposite-Spin Energy      =      -1.3868427701745567 [Eh]
	 Correlation Energy        =      -1.8454001748770299 [Eh]
	 Total Energy              =    -453.4831073950059022 [Eh]

	 ================> DF-SCS-MP2 Energies <==================
	-----------------------------------------------------------
	 SCS Same-Spin Scale       =       0.3333333333333333 [-]
	 SCS Opposite-Spin Scale   =       1.2000000000000000 [-]
	 SCS Same-Spin Energy      =      -0.1528524682341577 [Eh]
	 SCS Opposite-Spin Energy  =      -1.6642113242094680 [Eh]
	 SCS Correlation Energy    =      -1.8170637924436257 [Eh]
	 SCS Total Energy          =    -453.4547710125724507 [Eh]
	-----------------------------------------------------------

  Dipole Moment: [D]
     X:    -3.2014      Y:    -3.5389      Z:    -0.0009     Total:     4.7721

*** Psi4 exiting successfully. Buy a developer a beer!
