                               Psi4 1.3.2 release

  ==> Input File <==

--------------------------------------------------------------------------
#psi4
#
memory 32 gb

molecule  {
0 1
  O       -1.3945310     1.8555980     0.0000210
  O        2.9082060     0.2751580    -0.0000600
  N       -1.0895640    -0.4406340     0.0001970
  N        0.7437344     1.0070472     0.0002755
  C       -0.6489740     0.8800530    -0.0003070
  C       -0.2041810    -1.5011250     0.0000420
  C       -2.5282030    -0.6963170    -0.0000730
  C        1.1508170    -1.3483514     0.0000680
  C        1.7104040    -0.0052910    -0.0002190
  H       -0.6762750    -2.4793460     0.0001770
  H       -2.8113470    -1.2573270     0.8936330
  H       -2.8107340    -1.2584070    -0.8933430
  H       -3.0286960     0.2691590    -0.0008180
  H        1.0742980     1.9581480     0.0003170
  H        1.8167570    -2.1872720    -0.0000870
units angstrom
no_reorient  #important for SAPT in psi4, default
symmetry c1  #important for SAPT in psi4, default
}

set PROPERTIES_ORIGIN ["COM"]
properties('MP2/aug-cc-pvtz', properties = ['dipole'])
--------------------------------------------------------------------------

    Molecular point group: c1
  Charge       = 0
  Multiplicity = 1
  Basis Set: AUG-CC-PVTZ
    Blend: AUG-CC-PVTZ
  Basis Set: (AUG-CC-PVTZ AUX)
    Blend: AUG-CC-PVTZ-JKFIT

    Orbital Energies [Eh]
    ---------------------

    Doubly Occupied:

       1A    -20.546636     2A    -20.536795     3A    -15.646014
       4A    -15.625737     5A    -11.419735     6A    -11.378623
       7A    -11.339161     8A    -11.290808     9A    -11.256759
      10A     -1.428122    11A     -1.387353    12A     -1.312369
      13A     -1.244546    14A     -1.089270    15A     -0.989871
      16A     -0.931731    17A     -0.869819    18A     -0.772495
      19A     -0.753773    20A     -0.700263    21A     -0.685009
      22A     -0.658414    23A     -0.644088    24A     -0.614486
      25A     -0.613438    26A     -0.600987    27A     -0.574080
      28A     -0.554022    29A     -0.499008    30A     -0.480241
      31A     -0.444837    32A     -0.432411    33A     -0.359464

  @DF-RHF Final Energy:  -451.66014053042699

   => Energetics <=

    Nuclear Repulsion Energy =            440.7518718215712852
    One-Electron Energy =               -1489.4632960338121848
    Two-Electron Energy =                 597.0512836818139704
    Total Energy =                       -451.6601405304269292
  Basis Set: (AUG-CC-PVTZ AUX)
    Blend: AUG-CC-PVTZ-RI
    Molecular point group: c1

    Geometry (in Angstrom), charge = 0, multiplicity = 1:

       Center              X                  Y                   Z               Mass
    ------------   -----------------  -----------------  -----------------  -----------------
         O           -1.447214813014     1.816194035289     0.000020978547    15.994914619570
         O            2.855522186986     0.235754035289    -0.000060021453    15.994914619570
         N           -1.142247813014    -0.480037964711     0.000196978547    14.003074004430
         N            0.691050586986     0.967643235289     0.000275478547    14.003074004430
         C           -0.701657813014     0.840649035289    -0.000307021453    12.000000000000
         C           -0.256864813014    -1.540528964711     0.000041978547    12.000000000000
         C           -2.580886813014    -0.735720964711    -0.000073021453    12.000000000000
         C            1.098133186986    -1.387755364711     0.000067978547    12.000000000000
         C            1.657720186986    -0.044694964711    -0.000219021453    12.000000000000
         H           -0.728958813014    -2.518749964711     0.000176978547     1.007825032230
         H           -2.864030813014    -1.296730964711     0.893632978547     1.007825032230
         H           -2.863417813014    -1.297810964711    -0.893343021453     1.007825032230
         H           -3.081379813014     0.229755035289    -0.000818021453     1.007825032230
         H            1.021614186986     1.918744035289     0.000316978547     1.007825032230
         H            1.764073186986    -2.226675964711    -0.000087021453     1.007825032230

  Basis Set: AUG-CC-PVTZ
    Blend: AUG-CC-PVTZ
  Basis Set: (AUG-CC-PVTZ AUX)
    Blend: AUG-CC-PVTZ-JKFIT
	 Reference Energy          =    -451.6601405304269861 [Eh]
	 Singles Energy            =      -0.0000000000000000 [Eh]
	 Same-Spin Energy          =      -0.4579263018071154 [Eh]
	 Opposite-Spin Energy      =      -1.3847964001445177 [Eh]
	 Correlation Energy        =      -1.8427227019516330 [Eh]
	 Total Energy              =    -453.5028632323786155 [Eh]

	 ================> DF-SCS-MP2 Energies <==================
	-----------------------------------------------------------
	 SCS Same-Spin Scale       =       0.3333333333333333 [-]
	 SCS Opposite-Spin Scale   =       1.2000000000000000 [-]
	 SCS Same-Spin Energy      =      -0.1526421006023718 [Eh]
	 SCS Opposite-Spin Energy  =      -1.6617556801734212 [Eh]
	 SCS Correlation Energy    =      -1.8143977807757929 [Eh]
	 SCS Total Energy          =    -453.4745383112027639 [Eh]
	-----------------------------------------------------------

  Dipole Moment: [D]
     X:    -3.3008      Y:    -3.5439      Z:    -0.0009     Total:     4.8430

*** Psi4 exiting successfully. Buy a developer a beer!
