                               Psi4 1.3.2 release

  ==> Input File <==

--------------------------------------------------------------------------
#psi4
#
memory 32 gb

molecule  {
0 1
  O       -1.3945310     1.8555980     0.0000210
  O        2.9082060     0.2751580    -0.0000600
  N       -1.0895640    -0.4406340     0.0001970
  N        0.7349370     0.9985730     0.0002800
  C       -0.6489740     0.8800530    -0.0003070
  C       -0.2041810    -1.5011250     0.0000420
  C       -2.5282030    -0.6963170    -0.0000730
  C        1.1361610    -1.3199972     0.0000702
  C        1.7104040    -0.0052910    -0.0002190
  H       -0.6932754    -2.4709578     0.0001749
  H       -2.8113470    -1.2573270     0.8936330
  H       -2.8107340    -1.2584070    -0.8933430
  H       -3.0286960     0.2691590    -0.0008180
  H        1.0742980     1.9581480     0.0003170
  H        1.8167570    -2.1872720    -0.0000870
units angstrom
no_reorient  #important for SAPT in psi4, default
symmetry c1  #important for SAPT in psi4, default
}

set PROPERTIES_ORIGIN ["COM"]
properties('MP2/aug-cc-pvtz', properties = ['dipole'])
--------------------------------------------------------------------------

    Molecular point group: c1
  Charge       = 0
  Multiplicity = 1
  Basis Set: AUG-CC-PVTZ
    Blend: AUG-CC-PVTZ
  Basis Set: (AUG-CC-PVTZ AUX)
    Blend: AUG-CC-PVTZ-JKFIT

    Orbital Energies [Eh]
    ---------------------

    Doubly Occupied:

       1A    -20.545148     2A    -20.538002     3A    -15.644453
       4A    -15.625973     5A    -11.418253     6A    -11.378278
       7A    -11.338763     8A    -11.290245     9A    -11.256070
      10A     -1.428355    11A     -1.387940    12A     -1.312929
      13A     -1.245676    14A     -1.092466    15A     -0.990253
      16A     -0.934060    17A     -0.871531    18A     -0.772388
      19A     -0.751759    20A     -0.701699    21A     -0.685564
      22A     -0.656557    23A     -0.644212    24A     -0.615362
      25A     -0.607718    26A     -0.603046    27A     -0.569285
      28A     -0.554719    29A     -0.499580    30A     -0.480405
      31A     -0.446585    32A     -0.432736    33A     -0.360697

  @DF-RHF Final Energy:  -451.65917528250020

   => Energetics <=

    Nuclear Repulsion Energy =            441.6130014383685420
    One-Electron Energy =               -1491.1829337767860579
    Two-Electron Energy =                 597.9107570559172018
    Total Energy =                       -451.6591752825002004
  Basis Set: (AUG-CC-PVTZ AUX)
    Blend: AUG-CC-PVTZ-RI
    Molecular point group: c1

    Geometry (in Angstrom), charge = 0, multiplicity = 1:

       Center              X                  Y                   Z               Mass
    ------------   -----------------  -----------------  -----------------  -----------------
         O           -1.444706175058     1.814368947655     0.000020285947    15.994914619570
         O            2.858030824942     0.233928947655    -0.000060714053    15.994914619570
         N           -1.139739175058    -0.481863052345     0.000196285947    14.003074004430
         N            0.684761824942     0.957343947655     0.000279285947    14.003074004430
         C           -0.699149175058     0.838823947655    -0.000307714053    12.000000000000
         C           -0.254356175058    -1.542354052345     0.000041285947    12.000000000000
         C           -2.578378175058    -0.737546052345    -0.000073714053    12.000000000000
         C            1.085985824942    -1.361226252345     0.000069485947    12.000000000000
         C            1.660228824942    -0.046520052345    -0.000219714053    12.000000000000
         H           -0.743450575058    -2.512186852345     0.000174185947     1.007825032230
         H           -2.861522175058    -1.298556052345     0.893632285947     1.007825032230
         H           -2.860909175058    -1.299636052345    -0.893343714053     1.007825032230
         H           -3.078871175058     0.227929947655    -0.000818714053     1.007825032230
         H            1.024122824942     1.916918947655     0.000316285947     1.007825032230
         H            1.766581824942    -2.228501052345    -0.000087714053     1.007825032230

  Basis Set: AUG-CC-PVTZ
    Blend: AUG-CC-PVTZ
  Basis Set: (AUG-CC-PVTZ AUX)
    Blend: AUG-CC-PVTZ-JKFIT
	 Reference Energy          =    -451.6591752825002004 [Eh]
	 Singles Energy            =      -0.0000000000000000 [Eh]
	 Same-Spin Energy          =      -0.4584270545286742 [Eh]
	 Opposite-Spin Energy      =      -1.3851923589987729 [Eh]
	 Correlation Energy        =      -1.8436194135274471 [Eh]
	 Total Energy              =    -453.5027946960276495 [Eh]

	 ================> DF-SCS-MP2 Energies <==================
	-----------------------------------------------------------
	 SCS Same-Spin Scale       =       0.3333333333333333 [-]
	 SCS Opposite-Spin Scale   =       1.2000000000000000 [-]
	 SCS Same-Spin Energy      =      -0.1528090181762247 [Eh]
	 SCS Opposite-Spin Energy  =      -1.6622308307985274 [Eh]
	 SCS Correlation Energy    =      -1.8150398489747521 [Eh]
	 SCS Total Energy          =    -453.4742151314749776 [Eh]
	-----------------------------------------------------------

  Dipole Moment: [D]
     X:    -3.2853      Y:    -3.5719      Z:    -0.0009     Total:     4.8530

*** Psi4 exiting successfully. Buy a developer a beer!
