                               Psi4 1.3.2 release

  ==> Input File <==

--------------------------------------------------------------------------
#psi4
#
memory 32 gb

molecule  {
0 1
  O       -1.3773918     1.8684612     0.0000353
  O        2.9082060     0.2751580    -0.0000600
  N       -1.0895640    -0.4406340     0.0001970
  N        0.7326578     1.0227075     0.0002941
  C       -0.6489740     0.8800530    -0.0003070
  C       -0.2041810    -1.5011250     0.0000420
  C       -2.5282030    -0.6963170    -0.0000730
  C        1.1391180    -1.3434170     0.0000740
  C        1.7104040    -0.0052910    -0.0002190
  H       -0.6762750    -2.4793460     0.0001770
  H       -2.8113470    -1.2573270     0.8936330
  H       -2.8107340    -1.2584070    -0.8933430
  H       -3.0286960     0.2691590    -0.0008180
  H        1.0742980     1.9581480     0.0003170
  H        1.8167570    -2.1872720    -0.0000870
units angstrom
no_reorient  #important for SAPT in psi4, default
symmetry c1  #important for SAPT in psi4, default
}

set PROPERTIES_ORIGIN ["COM"]
properties('MP2/aug-cc-pvtz', properties = ['dipole'])
--------------------------------------------------------------------------

    Molecular point group: c1
  Charge       = 0
  Multiplicity = 1
  Basis Set: AUG-CC-PVTZ
    Blend: AUG-CC-PVTZ
  Basis Set: (AUG-CC-PVTZ AUX)
    Blend: AUG-CC-PVTZ-JKFIT

    Orbital Energies [Eh]
    ---------------------

    Doubly Occupied:

       1A    -20.543202     2A    -20.540241     3A    -15.645748
       4A    -15.623009     5A    -11.417017     6A    -11.381159
       7A    -11.338341     8A    -11.291004     9A    -11.257348
      10A     -1.426941    11A     -1.387646    12A     -1.312237
      13A     -1.242828    14A     -1.092003    15A     -0.989121
      16A     -0.932453    17A     -0.866837    18A     -0.774492
      19A     -0.753678    20A     -0.701941    21A     -0.684729
      22A     -0.657536    23A     -0.643493    24A     -0.613580
      25A     -0.610696    26A     -0.604193    27A     -0.573455
      28A     -0.553362    29A     -0.500081    30A     -0.479464
      31A     -0.445022    32A     -0.431403    33A     -0.361404

  @DF-RHF Final Energy:  -451.66030745083049

   => Energetics <=

    Nuclear Repulsion Energy =            440.7408470613393092
    One-Electron Energy =               -1489.4509837071407219
    Two-Electron Energy =                 597.0498291949709255
    Total Energy =                       -451.6603074508304871
  Basis Set: (AUG-CC-PVTZ AUX)
    Blend: AUG-CC-PVTZ-RI
    Molecular point group: c1

    Geometry (in Angstrom), charge = 0, multiplicity = 1:

       Center              X                  Y                   Z               Mass
    ------------   -----------------  -----------------  -----------------  -----------------
         O           -1.429906191300     1.825215282905     0.000030826219    15.994914619570
         O            2.855691608700     0.231912082905    -0.000064473781    15.994914619570
         N           -1.142078391300    -0.483879917095     0.000192526219    14.003074004430
         N            0.680143408700     0.979461582905     0.000289626219    14.003074004430
         C           -0.701488391300     0.836807082905    -0.000311473781    12.000000000000
         C           -0.256695391300    -1.544370917095     0.000037526219    12.000000000000
         C           -2.580717391300    -0.739562917095    -0.000077473781    12.000000000000
         C            1.086603608700    -1.386662917095     0.000069526219    12.000000000000
         C            1.657889608700    -0.048536917095    -0.000223473781    12.000000000000
         H           -0.728789391300    -2.522591917095     0.000172526219     1.007825032230
         H           -2.863861391300    -1.300572917095     0.893628526219     1.007825032230
         H           -2.863248391300    -1.301652917095    -0.893347473781     1.007825032230
         H           -3.081210391300     0.225913082905    -0.000822473781     1.007825032230
         H            1.021783608700     1.914902082905     0.000312526219     1.007825032230
         H            1.764242608700    -2.230517917095    -0.000091473781     1.007825032230

  Basis Set: AUG-CC-PVTZ
    Blend: AUG-CC-PVTZ
  Basis Set: (AUG-CC-PVTZ AUX)
    Blend: AUG-CC-PVTZ-JKFIT
	 Reference Energy          =    -451.6603074508304871 [Eh]
	 Singles Energy            =      -0.0000000000000000 [Eh]
	 Same-Spin Energy          =      -0.4576696336126033 [Eh]
	 Opposite-Spin Energy      =      -1.3844421798051012 [Eh]
	 Correlation Energy        =      -1.8421118134177044 [Eh]
	 Total Energy              =    -453.5024192642482035 [Eh]

	 ================> DF-SCS-MP2 Energies <==================
	-----------------------------------------------------------
	 SCS Same-Spin Scale       =       0.3333333333333333 [-]
	 SCS Opposite-Spin Scale   =       1.2000000000000000 [-]
	 SCS Same-Spin Energy      =      -0.1525565445375344 [Eh]
	 SCS Opposite-Spin Energy  =      -1.6613306157661214 [Eh]
	 SCS Correlation Energy    =      -1.8138871603036559 [Eh]
	 SCS Total Energy          =    -453.4741946111341235 [Eh]
	-----------------------------------------------------------

  Dipole Moment: [D]
     X:    -3.2134      Y:    -3.6421      Z:    -0.0009     Total:     4.8571

*** Psi4 exiting successfully. Buy a developer a beer!
