                               Psi4 1.4a3.dev225

  ==> Input File <==

--------------------------------------------------------------------------
#psi4
#
memory 32 gb

molecule  {
0 1
  O       -1.4350980    -1.8086910     0.0000000
  O        2.9075840    -0.3082450     0.0000000
  N       -1.0785060     0.4619330     0.0000000
  N        0.7249750    -1.0056720    -0.0000010
  C       -0.6455774    -0.8831462     0.0000000
  C       -0.1841290     1.5083600     0.0000000
  C       -2.5245930     0.6731660     0.0000000
  C        1.1582900     1.3329580     0.0000000
  C        1.7164880    -0.0081480     0.0000000
  H       -0.6338540     2.4967290    -0.0000010
  H       -2.9690000     0.2175100    -0.8862740
  H       -2.7140630     1.7465080     0.0000000
  H       -2.9689990     0.2175090     0.8862740
  H        1.0585810    -1.9665760     0.0000000
  H        1.8360540     2.1766110     0.0000000
units angstrom
no_reorient  #important for SAPT in psi4, default
symmetry c1  #important for SAPT in psi4, default
}

set PROPERTIES_ORIGIN ["COM"]
properties('MP2/aug-cc-pvtz', properties = ['dipole'])
--------------------------------------------------------------------------

    Molecular point group: c1
  Charge       = 0
  Multiplicity = 1
  Basis Set: AUG-CC-PVTZ
    Blend: AUG-CC-PVTZ
  Basis Set: (AUG-CC-PVTZ AUX)
    Blend: AUG-CC-PVTZ-JKFIT

    Orbital Energies [Eh]
    ---------------------

    Doubly Occupied:

       1A    -20.549065     2A    -20.538689     3A    -15.642257
       4A    -15.627444     5A    -11.416933     6A    -11.380197
       7A    -11.337111     8A    -11.291265     9A    -11.251393
      10A     -1.433638    11A     -1.390070    12A     -1.310540
      13A     -1.248117    14A     -1.089577    15A     -0.985873
      16A     -0.928000    17A     -0.874788    18A     -0.770537
      19A     -0.751125    20A     -0.700681    21A     -0.684423
      22A     -0.661323    23A     -0.643849    24A     -0.611370
      25A     -0.606958    26A     -0.602351    27A     -0.576866
      28A     -0.552758    29A     -0.502689    30A     -0.481709
      31A     -0.447099    32A     -0.435043    33A     -0.356431

  @DF-RHF Final Energy:  -451.66132756202256

   => Energetics <=

    Nuclear Repulsion Energy =            441.4951018473375939
    One-Electron Energy =               -1490.9525196652857630
    Two-Electron Energy =                 597.7960902559256056
    Total Energy =                       -451.6613275620226204
  Basis Set: (AUG-CC-PVTZ AUX)
    Blend: AUG-CC-PVTZ-RI
    Molecular point group: c1

    Geometry (in Angstrom), charge = 0, multiplicity = 1:

       Center              X                  Y                   Z               Mass
    ------------   -----------------  -----------------  -----------------  -----------------
         O           -1.485923678544    -1.768471302636     0.000000119094    15.994914619570
         O            2.856758321456    -0.268025302636     0.000000119094    15.994914619570
         N           -1.129331678544     0.502152697364     0.000000119094    14.003074004430
         N            0.674149321456    -0.965452302636    -0.000000880906    14.003074004430
         C           -0.696403078544    -0.842926502636     0.000000119094    12.000000000000
         C           -0.234954678544     1.548579697364     0.000000119094    12.000000000000
         C           -2.575418678544     0.713385697364     0.000000119094    12.000000000000
         C            1.107464321456     1.373177697364     0.000000119094    12.000000000000
         C            1.665662321456     0.032071697364     0.000000119094    12.000000000000
         H           -0.684679678544     2.536948697364    -0.000000880906     1.007825032230
         H           -3.019825678544     0.257729697364    -0.886273880906     1.007825032230
         H           -2.764888678544     1.786727697364     0.000000119094     1.007825032230
         H           -3.019824678544     0.257728697364     0.886274119094     1.007825032230
         H            1.007755321456    -1.926356302636     0.000000119094     1.007825032230
         H            1.785228321456     2.216830697364     0.000000119094     1.007825032230

  Basis Set: AUG-CC-PVTZ
    Blend: AUG-CC-PVTZ
  Basis Set: (AUG-CC-PVTZ AUX)
    Blend: AUG-CC-PVTZ-JKFIT
	 Reference Energy          =    -451.6613275620225636 [Eh]
	 Singles Energy            =      -0.0000000000000000 [Eh]
	 Same-Spin Energy          =      -0.4579208004386445 [Eh]
	 Opposite-Spin Energy      =      -1.3843796356370968 [Eh]
	 Correlation Energy        =      -1.8423004360757411 [Eh]
	 Total Energy              =    -453.5036279980982954 [Eh]

	 ================> DF-SCS-MP2 Energies <==================
	-----------------------------------------------------------
	 SCS Same-Spin Scale       =       0.3333333333333333 [-]
	 SCS Opposite-Spin Scale   =       1.2000000000000000 [-]
	 SCS Same-Spin Energy      =      -0.1526402668128815 [Eh]
	 SCS Opposite-Spin Energy  =      -1.6612555627645160 [Eh]
	 SCS Correlation Energy    =      -1.8138958295773975 [Eh]
	 SCS Total Energy          =    -453.4752233915999682 [Eh]
	-----------------------------------------------------------

  Dipole Moment: [D]
     X:    -3.2233      Y:     3.3936      Z:     0.0000     Total:     4.6804

*** Psi4 exiting successfully. Buy a developer a beer!
