                               Psi4 1.3.2 release

  ==> Input File <==

--------------------------------------------------------------------------
#psi4
#
memory 32 gb

molecule  {
0 1
  O       -1.3945310     1.8555980     0.0000210
  O        2.9082060     0.2751580    -0.0000600
  N       -1.0895640    -0.4406340     0.0001970
  N        0.7349370     0.9985730     0.0002800
  C       -0.6489740     0.8800530    -0.0003070
  C       -0.1858077    -1.4855114     0.0000487
  C       -2.5324462    -0.6711703    -0.0000670
  C        1.1391180    -1.3434170     0.0000740
  C        1.7104040    -0.0052910    -0.0002190
  H       -0.6762750    -2.4793460     0.0001770
  H       -2.8113470    -1.2573270     0.8936330
  H       -2.8107340    -1.2584070    -0.8933430
  H       -3.0286960     0.2691590    -0.0008180
  H        1.0742980     1.9581480     0.0003170
  H        1.8167570    -2.1872720    -0.0000870
units angstrom
no_reorient  #important for SAPT in psi4, default
symmetry c1  #important for SAPT in psi4, default
}

set PROPERTIES_ORIGIN ["COM"]
properties('MP2/aug-cc-pvtz', properties = ['dipole'])
--------------------------------------------------------------------------

    Molecular point group: c1
  Charge       = 0
  Multiplicity = 1
  Basis Set: AUG-CC-PVTZ
    Blend: AUG-CC-PVTZ
  Basis Set: (AUG-CC-PVTZ AUX)
    Blend: AUG-CC-PVTZ-JKFIT

    Orbital Energies [Eh]
    ---------------------

    Doubly Occupied:

       1A    -20.545015     2A    -20.539349     3A    -15.643820
       4A    -15.626377     5A    -11.417389     6A    -11.380031
       7A    -11.335848     8A    -11.290633     9A    -11.254545
      10A     -1.428370    11A     -1.388502    12A     -1.312179
      13A     -1.245405    14A     -1.096327    15A     -0.989670
      16A     -0.927820    17A     -0.873361    18A     -0.772809
      19A     -0.753088    20A     -0.694780    21A     -0.683789
      22A     -0.657891    23A     -0.645236    24A     -0.611589
      25A     -0.611505    26A     -0.603990    27A     -0.575888
      28A     -0.553550    29A     -0.499377    30A     -0.479113
      31A     -0.446317    32A     -0.433110    33A     -0.363419

  @DF-RHF Final Energy:  -451.65981715854412

   => Energetics <=

    Nuclear Repulsion Energy =            441.6036974605307250
    One-Electron Energy =               -1491.1668477771991093
    Two-Electron Energy =                 597.9033331581241555
    Total Energy =                       -451.6598171585441150
  Basis Set: (AUG-CC-PVTZ AUX)
    Blend: AUG-CC-PVTZ-RI
    Molecular point group: c1

    Geometry (in Angstrom), charge = 0, multiplicity = 1:

       Center              X                  Y                   Z               Mass
    ------------   -----------------  -----------------  -----------------  -----------------
         O           -1.446468896959     1.812785105022     0.000018698262    15.994914619570
         O            2.856268103041     0.232345105022    -0.000062301738    15.994914619570
         N           -1.141501896959    -0.483446894978     0.000194698262    14.003074004430
         N            0.682999103041     0.955760105022     0.000277698262    14.003074004430
         C           -0.700911896959     0.837240105022    -0.000309301738    12.000000000000
         C           -0.237745596959    -1.528324294978     0.000046398262    12.000000000000
         C           -2.584384096959    -0.713983194978    -0.000069301738    12.000000000000
         C            1.087180103041    -1.386229894978     0.000071698262    12.000000000000
         C            1.658466103041    -0.048103894978    -0.000221301738    12.000000000000
         H           -0.728212896959    -2.522158894978     0.000174698262     1.007825032230
         H           -2.863284896959    -1.300139894978     0.893630698262     1.007825032230
         H           -2.862671896959    -1.301219894978    -0.893345301738     1.007825032230
         H           -3.080633896959     0.226346105022    -0.000820301738     1.007825032230
         H            1.022360103041     1.915335105022     0.000314698262     1.007825032230
         H            1.764819103041    -2.230084894978    -0.000089301738     1.007825032230

  Basis Set: AUG-CC-PVTZ
    Blend: AUG-CC-PVTZ
  Basis Set: (AUG-CC-PVTZ AUX)
    Blend: AUG-CC-PVTZ-JKFIT
	 Reference Energy          =    -451.6598171585441150 [Eh]
	 Singles Energy            =      -0.0000000000000000 [Eh]
	 Same-Spin Energy          =      -0.4578082349547884 [Eh]
	 Opposite-Spin Energy      =      -1.3843292499671347 [Eh]
	 Correlation Energy        =      -1.8421374849219232 [Eh]
	 Total Energy              =    -453.5019546434660356 [Eh]

	 ================> DF-SCS-MP2 Energies <==================
	-----------------------------------------------------------
	 SCS Same-Spin Scale       =       0.3333333333333333 [-]
	 SCS Opposite-Spin Scale   =       1.2000000000000000 [-]
	 SCS Same-Spin Energy      =      -0.1526027449849295 [Eh]
	 SCS Opposite-Spin Energy  =      -1.6611950999605616 [Eh]
	 SCS Correlation Energy    =      -1.8137978449454910 [Eh]
	 SCS Total Energy          =    -453.4736150034896127 [Eh]
	-----------------------------------------------------------

  Dipole Moment: [D]
     X:    -3.2025      Y:    -3.5298      Z:    -0.0009     Total:     4.7661

*** Psi4 exiting successfully. Buy a developer a beer!
