                               Psi4 1.3.2 release

  ==> Input File <==

--------------------------------------------------------------------------
#psi4
#
memory 32 gb

molecule  {
0 1
  O       -1.3945310     1.8555980     0.0000210
  O        2.9082060     0.2751580    -0.0000600
  N       -1.0895640    -0.4406340     0.0001970
  N        0.7349370     0.9985730     0.0002800
  C       -0.6489740     0.8800530    -0.0003070
  C       -0.2041810    -1.5011250     0.0000420
  C       -2.5282030    -0.6963170    -0.0000730
  C        1.1391180    -1.3434170     0.0000740
  C        1.7016066    -0.0137652    -0.0002173
  H       -0.6762750    -2.4793460     0.0001770
  H       -2.8113470    -1.2573270     0.8936330
  H       -2.8107340    -1.2584070    -0.8933430
  H       -3.0286960     0.2691590    -0.0008180
  H        1.0659113     1.9610729     0.0003204
  H        1.8167570    -2.1872720    -0.0000870
units angstrom
no_reorient  #important for SAPT in psi4, default
symmetry c1  #important for SAPT in psi4, default
}

set PROPERTIES_ORIGIN ["COM"]
properties('MP2/aug-cc-pvtz', properties = ['dipole'])
--------------------------------------------------------------------------

    Molecular point group: c1
  Charge       = 0
  Multiplicity = 1
  Basis Set: AUG-CC-PVTZ
    Blend: AUG-CC-PVTZ
  Basis Set: (AUG-CC-PVTZ AUX)
    Blend: AUG-CC-PVTZ-JKFIT

    Orbital Energies [Eh]
    ---------------------

    Doubly Occupied:

       1A    -20.545887     2A    -20.536606     3A    -15.645618
       4A    -15.627211     5A    -11.418616     6A    -11.379821
       7A    -11.338843     8A    -11.290670     9A    -11.256368
      10A     -1.428527    11A     -1.381692    12A     -1.312904
      13A     -1.245013    14A     -1.093645    15A     -0.990270
      16A     -0.932944    17A     -0.872264    18A     -0.772376
      19A     -0.754111    20A     -0.700642    21A     -0.685880
      22A     -0.657455    23A     -0.643083    24A     -0.614697
      25A     -0.610949    26A     -0.600567    27A     -0.572688
      28A     -0.552325    29A     -0.500111    30A     -0.480113
      31A     -0.445127    32A     -0.431779    33A     -0.361360

  @DF-RHF Final Energy:  -451.65929031707617

   => Energetics <=

    Nuclear Repulsion Energy =            441.2134121921556584
    One-Electron Energy =               -1490.3850759216979895
    Two-Electron Energy =                 597.5123734124662178
    Total Energy =                       -451.6592903170761701
  Basis Set: (AUG-CC-PVTZ AUX)
    Blend: AUG-CC-PVTZ-RI
    Molecular point group: c1

    Geometry (in Angstrom), charge = 0, multiplicity = 1:

       Center              X                  Y                   Z               Mass
    ------------   -----------------  -----------------  -----------------  -----------------
         O           -1.444219010099     1.817449120881     0.000019718338    15.994914619570
         O            2.858517989901     0.237009120881    -0.000061281662    15.994914619570
         N           -1.139252010099    -0.478782879119     0.000195718338    14.003074004430
         N            0.685248989901     0.960424120881     0.000278718338    14.003074004430
         C           -0.698662010099     0.841904120881    -0.000308281662    12.000000000000
         C           -0.253869010099    -1.539273879119     0.000040718338    12.000000000000
         C           -2.577891010099    -0.734465879119    -0.000074281662    12.000000000000
         C            1.089429989901    -1.381565879119     0.000072718338    12.000000000000
         C            1.651918589901    -0.051914079119    -0.000218581662    12.000000000000
         H           -0.725963010099    -2.517494879119     0.000175718338     1.007825032230
         H           -2.861035010099    -1.295475879119     0.893631718338     1.007825032230
         H           -2.860422010099    -1.296555879119    -0.893344281662     1.007825032230
         H           -3.078384010099     0.231010120881    -0.000819281662     1.007825032230
         H            1.016223289901     1.922924020881     0.000319118338     1.007825032230
         H            1.767068989901    -2.225420879119    -0.000088281662     1.007825032230

  Basis Set: AUG-CC-PVTZ
    Blend: AUG-CC-PVTZ
  Basis Set: (AUG-CC-PVTZ AUX)
    Blend: AUG-CC-PVTZ-JKFIT
	 Reference Energy          =    -451.6592903170761701 [Eh]
	 Singles Energy            =      -0.0000000000000000 [Eh]
	 Same-Spin Energy          =      -0.4583829976889741 [Eh]
	 Opposite-Spin Energy      =      -1.3853539077003834 [Eh]
	 Correlation Energy        =      -1.8437369053893575 [Eh]
	 Total Energy              =    -453.5030272224655050 [Eh]

	 ================> DF-SCS-MP2 Energies <==================
	-----------------------------------------------------------
	 SCS Same-Spin Scale       =       0.3333333333333333 [-]
	 SCS Opposite-Spin Scale   =       1.2000000000000000 [-]
	 SCS Same-Spin Energy      =      -0.1527943325629914 [Eh]
	 SCS Opposite-Spin Energy  =      -1.6624246892404599 [Eh]
	 SCS Correlation Energy    =      -1.8152190218034514 [Eh]
	 SCS Total Energy          =    -453.4745093388796136 [Eh]
	-----------------------------------------------------------

  Dipole Moment: [D]
     X:    -3.3312      Y:    -3.5797      Z:    -0.0008     Total:     4.8899

*** Psi4 exiting successfully. Buy a developer a beer!
