                               Psi4 1.3.2 release

  ==> Input File <==

--------------------------------------------------------------------------
#psi4
#
memory 32 gb

molecule  {
0 1
  O       -1.3945310     1.8555980     0.0000210
  O        2.9082060     0.2751580    -0.0000600
  N       -1.0895640    -0.4406340     0.0001970
  N        0.7349370     0.9985730     0.0002800
  C       -0.6489740     0.8800530    -0.0003070
  C       -0.2041810    -1.5011250     0.0000420
  C       -2.5282030    -0.6963170    -0.0000730
  C        1.1391180    -1.3434170     0.0000740
  C        1.7104040    -0.0052910    -0.0002190
  H       -0.6762750    -2.4793460     0.0001770
  H       -2.8113470    -1.2573270     0.8936330
  H       -2.8435954    -1.2142500    -0.9089037
  H       -3.0530246     0.2548305    -0.0502583
  H        1.0742980     1.9581480     0.0003170
  H        1.8167570    -2.1872720    -0.0000870
units angstrom
no_reorient  #important for SAPT in psi4, default
symmetry c1  #important for SAPT in psi4, default
}

set PROPERTIES_ORIGIN ["COM"]
properties('MP2/aug-cc-pvtz', properties = ['dipole'])
--------------------------------------------------------------------------

    Molecular point group: c1
  Charge       = 0
  Multiplicity = 1
  Basis Set: AUG-CC-PVTZ
    Blend: AUG-CC-PVTZ
  Basis Set: (AUG-CC-PVTZ AUX)
    Blend: AUG-CC-PVTZ-JKFIT

    Orbital Energies [Eh]
    ---------------------

    Doubly Occupied:

       1A    -20.545260     2A    -20.538817     3A    -15.645201
       4A    -15.626541     5A    -11.418472     6A    -11.379841
       7A    -11.337267     8A    -11.289862     9A    -11.256153
      10A     -1.428141    11A     -1.388075    12A     -1.312266
      13A     -1.245536    14A     -1.091102    15A     -0.989681
      16A     -0.930596    17A     -0.872753    18A     -0.771535
      19A     -0.753257    20A     -0.700171    21A     -0.685822
      22A     -0.658170    23A     -0.644768    24A     -0.616937
      25A     -0.606677    26A     -0.602600    27A     -0.568303
      28A     -0.554038    29A     -0.500143    30A     -0.479814
      31A     -0.446084    32A     -0.432931    33A     -0.360892

  @DF-RHF Final Energy:  -451.65963519335526

   => Energetics <=

    Nuclear Repulsion Energy =            441.0670201012706571
    One-Electron Energy =               -1490.0979048185117790
    Two-Electron Energy =                 597.3712495238859219
    Total Energy =                       -451.6596351933552569
  Basis Set: (AUG-CC-PVTZ AUX)
    Blend: AUG-CC-PVTZ-RI
    Molecular point group: c1

    Geometry (in Angstrom), charge = 0, multiplicity = 1:

       Center              X                  Y                   Z               Mass
    ------------   -----------------  -----------------  -----------------  -----------------
         O           -1.444666346683     1.816427210933     0.000539648039    15.994914619570
         O            2.858070653317     0.235987210933     0.000458648039    15.994914619570
         N           -1.139699346683    -0.479804789067     0.000715648039    14.003074004430
         N            0.684801653317     0.959402210933     0.000798648039    14.003074004430
         C           -0.699109346683     0.840882210933     0.000211648039    12.000000000000
         C           -0.254316346683    -1.540295789067     0.000560648039    12.000000000000
         C           -2.578338346683    -0.735487789067     0.000445648039    12.000000000000
         C            1.088982653317    -1.382587789067     0.000592648039    12.000000000000
         C            1.660268653317    -0.044461789067     0.000299648039    12.000000000000
         H           -0.726410346683    -2.518516789067     0.000695648039     1.007825032230
         H           -2.861482346683    -1.296497789067     0.894151648039     1.007825032230
         H           -2.893730746683    -1.253420789067    -0.908385051961     1.007825032230
         H           -3.103159946683     0.215659710933    -0.049739651961     1.007825032230
         H            1.024162653317     1.918977210933     0.000835648039     1.007825032230
         H            1.766621653317    -2.226442789067     0.000431648039     1.007825032230

  Basis Set: AUG-CC-PVTZ
    Blend: AUG-CC-PVTZ
  Basis Set: (AUG-CC-PVTZ AUX)
    Blend: AUG-CC-PVTZ-JKFIT
	 Reference Energy          =    -451.6596351933552569 [Eh]
	 Singles Energy            =      -0.0000000000000000 [Eh]
	 Same-Spin Energy          =      -0.4580382396966511 [Eh]
	 Opposite-Spin Energy      =      -1.3848047453309960 [Eh]
	 Correlation Energy        =      -1.8428429850276471 [Eh]
	 Total Energy              =    -453.5024781783828871 [Eh]

	 ================> DF-SCS-MP2 Energies <==================
	-----------------------------------------------------------
	 SCS Same-Spin Scale       =       0.3333333333333333 [-]
	 SCS Opposite-Spin Scale   =       1.2000000000000000 [-]
	 SCS Same-Spin Energy      =      -0.1526794132322170 [Eh]
	 SCS Opposite-Spin Energy  =      -1.6617656943971950 [Eh]
	 SCS Correlation Energy    =      -1.8144451076294121 [Eh]
	 SCS Total Energy          =    -453.4740803009846672 [Eh]
	-----------------------------------------------------------

  Dipole Moment: [D]
     X:    -3.2581      Y:    -3.5238      Z:    -0.0338     Total:     4.7993

*** Psi4 exiting successfully. Buy a developer a beer!
