                               Psi4 1.3.2 release

  ==> Input File <==

--------------------------------------------------------------------------
#psi4
#
memory 32 gb

molecule  {
0 1
  O       -1.3945310     1.8555980     0.0000210
  O        2.9082060     0.2751580    -0.0000600
  N       -1.0895640    -0.4406340     0.0001970
  N        0.7349370     0.9985730     0.0002800
  C       -0.6489740     0.8800530    -0.0003070
  C       -0.2041810    -1.5011250     0.0000420
  C       -2.5282030    -0.6963170    -0.0000730
  C        1.0398001    -1.3550773     0.0000716
  C        1.7104040    -0.0052910    -0.0002190
  H       -0.6762750    -2.4793460     0.0001770
  H       -2.8113470    -1.2573270     0.8936330
  H       -2.8107340    -1.2584070    -0.8933430
  H       -3.0286960     0.2691590    -0.0008180
  H        1.0742980     1.9581480     0.0003170
  H        1.8167570    -2.1872720    -0.0000870
units angstrom
no_reorient  #important for SAPT in psi4, default
symmetry c1  #important for SAPT in psi4, default
}

set PROPERTIES_ORIGIN ["COM"]
properties('MP2/aug-cc-pvtz', properties = ['dipole'])
--------------------------------------------------------------------------

    Molecular point group: c1
  Charge       = 0
  Multiplicity = 1
  Basis Set: AUG-CC-PVTZ
    Blend: AUG-CC-PVTZ
  Basis Set: (AUG-CC-PVTZ AUX)
    Blend: AUG-CC-PVTZ-JKFIT

    Orbital Energies [Eh]
    ---------------------

    Doubly Occupied:

       1A    -20.549428     2A    -20.543202     3A    -15.635874
       4A    -15.626266     5A    -11.416286     6A    -11.388822
       7A    -11.315954     8A    -11.286039     9A    -11.254159
      10A     -1.426970    11A     -1.392601    12A     -1.311179
      13A     -1.245521    14A     -1.108298    15A     -0.985249
      16A     -0.921034    17A     -0.875620    18A     -0.774321
      19A     -0.747247    20A     -0.703091    21A     -0.683665
      22A     -0.658775    23A     -0.644374    24A     -0.613372
      25A     -0.610323    26A     -0.594831    27A     -0.559900
      28A     -0.554542    29A     -0.507406    30A     -0.477436
      31A     -0.448314    32A     -0.434334    33A     -0.372579

  @DF-RHF Final Energy:  -451.64671968147547

   => Energetics <=

    Nuclear Repulsion Energy =            442.1659413127208609
    One-Electron Energy =               -1492.2912955639139909
    Two-Electron Energy =                 598.4786345697176557
    Total Energy =                       -451.6467196814754743
  Basis Set: (AUG-CC-PVTZ AUX)
    Blend: AUG-CC-PVTZ-RI
    Molecular point group: c1

    Geometry (in Angstrom), charge = 0, multiplicity = 1:

       Center              X                  Y                   Z               Mass
    ------------   -----------------  -----------------  -----------------  -----------------
         O           -1.435668005329     1.817775842803     0.000020135867    15.994914619570
         O            2.867068994671     0.237335842803    -0.000060864133    15.994914619570
         N           -1.130701005329    -0.478456157197     0.000196135867    14.003074004430
         N            0.693799994671     0.960750842803     0.000279135867    14.003074004430
         C           -0.690111005329     0.842230842803    -0.000307864133    12.000000000000
         C           -0.245318005329    -1.538947157197     0.000041135867    12.000000000000
         C           -2.569340005329    -0.734139157197    -0.000073864133    12.000000000000
         C            0.998663094671    -1.392899457197     0.000070735867    12.000000000000
         C            1.669266994671    -0.043113157197    -0.000219864133    12.000000000000
         H           -0.717412005329    -2.517168157197     0.000176135867     1.007825032230
         H           -2.852484005329    -1.295149157197     0.893632135867     1.007825032230
         H           -2.851871005329    -1.296229157197    -0.893343864133     1.007825032230
         H           -3.069833005329     0.231336842803    -0.000818864133     1.007825032230
         H            1.033160994671     1.920325842803     0.000316135867     1.007825032230
         H            1.775619994671    -2.225094157197    -0.000087864133     1.007825032230

  Basis Set: AUG-CC-PVTZ
    Blend: AUG-CC-PVTZ
  Basis Set: (AUG-CC-PVTZ AUX)
    Blend: AUG-CC-PVTZ-JKFIT
	 Reference Energy          =    -451.6467196814754743 [Eh]
	 Singles Energy            =      -0.0000000000000000 [Eh]
	 Same-Spin Energy          =      -0.4572330736275508 [Eh]
	 Opposite-Spin Energy      =      -1.3835619430630932 [Eh]
	 Correlation Energy        =      -1.8407950166906439 [Eh]
	 Total Energy              =    -453.4875146981661374 [Eh]

	 ================> DF-SCS-MP2 Energies <==================
	-----------------------------------------------------------
	 SCS Same-Spin Scale       =       0.3333333333333333 [-]
	 SCS Opposite-Spin Scale   =       1.2000000000000000 [-]
	 SCS Same-Spin Energy      =      -0.1524110245425169 [Eh]
	 SCS Opposite-Spin Energy  =      -1.6602743316757118 [Eh]
	 SCS Correlation Energy    =      -1.8126853562182288 [Eh]
	 SCS Total Energy          =    -453.4594050376937275 [Eh]
	-----------------------------------------------------------

  Dipole Moment: [D]
     X:    -2.8915      Y:    -3.4684      Z:    -0.0009     Total:     4.5156

*** Psi4 exiting successfully. Buy a developer a beer!
