                               Psi4 1.4a3.dev225

  ==> Input File <==

--------------------------------------------------------------------------
#psi4
#
memory 32 gb

molecule  {
0 1
  O       -1.4350980    -1.8086910     0.0000000
  O        2.9075840    -0.3082450     0.0000000
  N       -1.0785060     0.4619330     0.0000000
  N        0.7249750    -1.0056720    -0.0000010
  C       -0.6644725    -0.8795025     0.0000000
  C       -0.1841290     1.5083600     0.0000000
  C       -2.5245930     0.6731660     0.0000000
  C        1.1582900     1.3329580     0.0000000
  C        1.7164880    -0.0081480     0.0000000
  H       -0.6338540     2.4967290    -0.0000010
  H       -2.9690000     0.2175100    -0.8862740
  H       -2.7140630     1.7465080     0.0000000
  H       -2.9689990     0.2175090     0.8862740
  H        1.0585810    -1.9665760     0.0000000
  H        1.8360540     2.1766110     0.0000000
units angstrom
no_reorient  #important for SAPT in psi4, default
symmetry c1  #important for SAPT in psi4, default
}

set PROPERTIES_ORIGIN ["COM"]
properties('MP2/aug-cc-pvtz', properties = ['dipole'])
--------------------------------------------------------------------------

    Molecular point group: c1
  Charge       = 0
  Multiplicity = 1
  Basis Set: AUG-CC-PVTZ
    Blend: AUG-CC-PVTZ
  Basis Set: (AUG-CC-PVTZ AUX)
    Blend: AUG-CC-PVTZ-JKFIT

    Orbital Energies [Eh]
    ---------------------

    Doubly Occupied:

       1A    -20.551458     2A    -20.536944     3A    -15.642761
       4A    -15.624259     5A    -11.416850     6A    -11.378361
       7A    -11.337072     8A    -11.291873     9A    -11.251634
      10A     -1.438006    11A     -1.389184    12A     -1.313292
      13A     -1.242442    14A     -1.089764    15A     -0.986437
      16A     -0.928994    17A     -0.870069    18A     -0.770025
      19A     -0.749490    20A     -0.701159    21A     -0.685397
      22A     -0.662002    23A     -0.644842    24A     -0.609892
      25A     -0.606799    26A     -0.601804    27A     -0.578192
      28A     -0.554475    29A     -0.503225    30A     -0.484115
      31A     -0.445357    32A     -0.433428    33A     -0.357052

  @DF-RHF Final Energy:  -451.66162562481071

   => Energetics <=

    Nuclear Repulsion Energy =            441.4912168038373466
    One-Electron Energy =               -1490.9523734800584407
    Two-Electron Energy =                 597.7995310514102130
    Total Energy =                       -451.6616256248107675
  Basis Set: (AUG-CC-PVTZ AUX)
    Blend: AUG-CC-PVTZ-RI
    Molecular point group: c1

    Geometry (in Angstrom), charge = 0, multiplicity = 1:

       Center              X                  Y                   Z               Mass
    ------------   -----------------  -----------------  -----------------  -----------------
         O           -1.484124758092    -1.768818203497     0.000000119094    15.994914619570
         O            2.858557241908    -0.268372203497     0.000000119094    15.994914619570
         N           -1.127532758092     0.501805796503     0.000000119094    14.003074004430
         N            0.675948241908    -0.965799203497    -0.000000880906    14.003074004430
         C           -0.713499258092    -0.839629703497     0.000000119094    12.000000000000
         C           -0.233155758092     1.548232796503     0.000000119094    12.000000000000
         C           -2.573619758092     0.713038796503     0.000000119094    12.000000000000
         C            1.109263241908     1.372830796503     0.000000119094    12.000000000000
         C            1.667461241908     0.031724796503     0.000000119094    12.000000000000
         H           -0.682880758092     2.536601796503    -0.000000880906     1.007825032230
         H           -3.018026758092     0.257382796503    -0.886273880906     1.007825032230
         H           -2.763089758092     1.786380796503     0.000000119094     1.007825032230
         H           -3.018025758092     0.257381796503     0.886274119094     1.007825032230
         H            1.009554241908    -1.926703203497     0.000000119094     1.007825032230
         H            1.787027241908     2.216483796503     0.000000119094     1.007825032230

  Basis Set: AUG-CC-PVTZ
    Blend: AUG-CC-PVTZ
  Basis Set: (AUG-CC-PVTZ AUX)
    Blend: AUG-CC-PVTZ-JKFIT
	 Reference Energy          =    -451.6616256248107106 [Eh]
	 Singles Energy            =      -0.0000000000000000 [Eh]
	 Same-Spin Energy          =      -0.4577442408453860 [Eh]
	 Opposite-Spin Energy      =      -1.3841396459041879 [Eh]
	 Correlation Energy        =      -1.8418838867495739 [Eh]
	 Total Energy              =    -453.5035095115603099 [Eh]

	 ================> DF-SCS-MP2 Energies <==================
	-----------------------------------------------------------
	 SCS Same-Spin Scale       =       0.3333333333333333 [-]
	 SCS Opposite-Spin Scale   =       1.2000000000000000 [-]
	 SCS Same-Spin Energy      =      -0.1525814136151286 [Eh]
	 SCS Opposite-Spin Energy  =      -1.6609675750850255 [Eh]
	 SCS Correlation Energy    =      -1.8135489887001541 [Eh]
	 SCS Total Energy          =    -453.4751746135108874 [Eh]
	-----------------------------------------------------------

  Dipole Moment: [D]
     X:    -3.3501      Y:     3.3934      Z:     0.0000     Total:     4.7684

*** Psi4 exiting successfully. Buy a developer a beer!
