                               Psi4 1.3.2 release

  ==> Input File <==

--------------------------------------------------------------------------
#psi4
#
memory 32 gb

molecule  {
0 1
  O       -1.3945310     1.8555980     0.0000210
  O        2.9082060     0.2751580    -0.0000600
  N       -1.0802759    -0.4329481     0.0001982
  N        0.7349370     0.9985730     0.0002800
  C       -0.6489740     0.8800530    -0.0003070
  C       -0.2041810    -1.5011250     0.0000420
  C       -2.5282030    -0.6963170    -0.0000730
  C        1.1376906    -1.3317007     0.0000758
  C        1.7104040    -0.0052910    -0.0002190
  H       -0.6762750    -2.4793460     0.0001770
  H       -2.8113470    -1.2573270     0.8936330
  H       -2.8107340    -1.2584070    -0.8933430
  H       -3.0286960     0.2691590    -0.0008180
  H        1.0742980     1.9581480     0.0003170
  H        1.8167570    -2.1872720    -0.0000870
units angstrom
no_reorient  #important for SAPT in psi4, default
symmetry c1  #important for SAPT in psi4, default
}

set PROPERTIES_ORIGIN ["COM"]
properties('MP2/aug-cc-pvtz', properties = ['dipole'])
--------------------------------------------------------------------------

    Molecular point group: c1
  Charge       = 0
  Multiplicity = 1
  Basis Set: AUG-CC-PVTZ
    Blend: AUG-CC-PVTZ
  Basis Set: (AUG-CC-PVTZ AUX)
    Blend: AUG-CC-PVTZ-JKFIT

    Orbital Energies [Eh]
    ---------------------

    Doubly Occupied:

       1A    -20.544044     2A    -20.538174     3A    -15.644604
       4A    -15.625415     5A    -11.417050     6A    -11.378838
       7A    -11.337952     8A    -11.291205     9A    -11.256260
      10A     -1.428491    11A     -1.387752    12A     -1.312723
      13A     -1.244592    14A     -1.091857    15A     -0.990422
      16A     -0.933194    17A     -0.871654    18A     -0.772770
      19A     -0.751551    20A     -0.701135    21A     -0.685496
      22A     -0.655984    23A     -0.643670    24A     -0.614675
      25A     -0.608624    26A     -0.601266    27A     -0.571525
      28A     -0.554608    29A     -0.499859    30A     -0.479817
      31A     -0.445996    32A     -0.432442    33A     -0.361127

  @DF-RHF Final Energy:  -451.66010141609456

   => Energetics <=

    Nuclear Repulsion Energy =            441.5363660199222977
    One-Electron Energy =               -1491.0433890602619158
    Two-Electron Energy =                 597.8469216242450557
    Total Energy =                       -451.6601014160945624
  Basis Set: (AUG-CC-PVTZ AUX)
    Blend: AUG-CC-PVTZ-RI
    Molecular point group: c1

    Geometry (in Angstrom), charge = 0, multiplicity = 1:

       Center              X                  Y                   Z               Mass
    ------------   -----------------  -----------------  -----------------  -----------------
         O           -1.446019621069     1.814696372702     0.000019602686    15.994914619570
         O            2.856717378931     0.234256372702    -0.000061397314    15.994914619570
         N           -1.131764521069    -0.473849727298     0.000196802686    14.003074004430
         N            0.683448378931     0.957671372702     0.000278602686    14.003074004430
         C           -0.700462621069     0.839151372702    -0.000308397314    12.000000000000
         C           -0.255669621069    -1.542026627298     0.000040602686    12.000000000000
         C           -2.579691621069    -0.737218627298    -0.000074397314    12.000000000000
         C            1.086201978931    -1.372602327298     0.000074402686    12.000000000000
         C            1.658915378931    -0.046192627298    -0.000220397314    12.000000000000
         H           -0.727763621069    -2.520247627298     0.000175602686     1.007825032230
         H           -2.862835621069    -1.298228627298     0.893631602686     1.007825032230
         H           -2.862222621069    -1.299308627298    -0.893344397314     1.007825032230
         H           -3.080184621069     0.228257372702    -0.000819397314     1.007825032230
         H            1.022809378931     1.917246372702     0.000315602686     1.007825032230
         H            1.765268378931    -2.228173627298    -0.000088397314     1.007825032230

  Basis Set: AUG-CC-PVTZ
    Blend: AUG-CC-PVTZ
  Basis Set: (AUG-CC-PVTZ AUX)
    Blend: AUG-CC-PVTZ-JKFIT
	 Reference Energy          =    -451.6601014160945624 [Eh]
	 Singles Energy            =      -0.0000000000000000 [Eh]
	 Same-Spin Energy          =      -0.4581702216612915 [Eh]
	 Opposite-Spin Energy      =      -1.3848991388278979 [Eh]
	 Correlation Energy        =      -1.8430693604891895 [Eh]
	 Total Energy              =    -453.5031707765837723 [Eh]

	 ================> DF-SCS-MP2 Energies <==================
	-----------------------------------------------------------
	 SCS Same-Spin Scale       =       0.3333333333333333 [-]
	 SCS Opposite-Spin Scale   =       1.2000000000000000 [-]
	 SCS Same-Spin Energy      =      -0.1527234072204305 [Eh]
	 SCS Opposite-Spin Energy  =      -1.6618789665934774 [Eh]
	 SCS Correlation Energy    =      -1.8146023738139079 [Eh]
	 SCS Total Energy          =    -453.4747037899084603 [Eh]
	-----------------------------------------------------------

  Dipole Moment: [D]
     X:    -3.2723      Y:    -3.6118      Z:    -0.0009     Total:     4.8737

*** Psi4 exiting successfully. Buy a developer a beer!
