                               Psi4 1.3.2 release

  ==> Input File <==

--------------------------------------------------------------------------
#psi4
#
memory 32 gb

molecule  {
0 1
  O       -1.3945310     1.8555980     0.0000210
  O        2.9082060     0.2751580    -0.0000600
  N       -1.0895640    -0.4406340     0.0001970
  N        0.7349370     0.9985730     0.0002800
  C       -0.6489740     0.8800530    -0.0003070
  C       -0.2041810    -1.5011250     0.0000420
  C       -2.5282030    -0.6963170    -0.0000730
  C        1.1391180    -1.3434170     0.0000740
  C        1.7104040    -0.0052910    -0.0002190
  H       -0.6762750    -2.4793460     0.0001770
  H       -2.8113470    -1.2573270     0.8936330
  H       -2.8107340    -1.2584070    -0.8933430
  H       -3.0286960     0.2691590    -0.0008180
  H        1.0076139     1.7695924     0.0003097
  H        1.8167570    -2.1872720    -0.0000870
units angstrom
no_reorient  #important for SAPT in psi4, default
symmetry c1  #important for SAPT in psi4, default
}

set PROPERTIES_ORIGIN ["COM"]
properties('MP2/aug-cc-pvtz', properties = ['dipole'])
--------------------------------------------------------------------------

    Molecular point group: c1
  Charge       = 0
  Multiplicity = 1
  Basis Set: AUG-CC-PVTZ
    Blend: AUG-CC-PVTZ
  Basis Set: (AUG-CC-PVTZ AUX)
    Blend: AUG-CC-PVTZ-JKFIT

    Orbital Energies [Eh]
    ---------------------

    Doubly Occupied:

       1A    -20.547949     2A    -20.541126     3A    -15.645492
       4A    -15.608579     5A    -11.420531     6A    -11.381579
       7A    -11.338442     8A    -11.290894     9A    -11.256914
      10A     -1.434802    11A     -1.391540    12A     -1.314496
      13A     -1.274031    14A     -1.095195    15A     -0.993956
      16A     -0.947680    17A     -0.875307    18A     -0.805843
      19A     -0.762244    20A     -0.707412    21A     -0.687043
      22A     -0.662762    23A     -0.646573    24A     -0.617495
      25A     -0.613228    26A     -0.606985    27A     -0.574781
      28A     -0.556022    29A     -0.501132    30A     -0.481244
      31A     -0.448223    32A     -0.437961    33A     -0.361751

  @DF-RHF Final Energy:  -451.61750517602655

   => Energetics <=

    Nuclear Repulsion Energy =            442.6398693505284427
    One-Electron Energy =               -1492.8563312023832168
    Two-Electron Energy =                 598.5989566758282763
    Total Energy =                       -451.6175051760264978
  Basis Set: (AUG-CC-PVTZ AUX)
    Blend: AUG-CC-PVTZ-RI
    Molecular point group: c1

    Geometry (in Angstrom), charge = 0, multiplicity = 1:

       Center              X                  Y                   Z               Mass
    ------------   -----------------  -----------------  -----------------  -----------------
         O           -1.444590432931     1.818173385566     0.000019965744    15.994914619570
         O            2.858146567069     0.237733385566    -0.000061034256    15.994914619570
         N           -1.139623432931    -0.478058614434     0.000195965744    14.003074004430
         N            0.684877567069     0.961148385566     0.000278965744    14.003074004430
         C           -0.699033432931     0.842628385566    -0.000308034256    12.000000000000
         C           -0.254240432931    -1.538549614434     0.000040965744    12.000000000000
         C           -2.578262432931    -0.733741614434    -0.000074034256    12.000000000000
         C            1.089058567069    -1.380841614434     0.000072965744    12.000000000000
         C            1.660344567069    -0.042715614434    -0.000220034256    12.000000000000
         H           -0.726334432931    -2.516770614434     0.000175965744     1.007825032230
         H           -2.861406432931    -1.294751614434     0.893631965744     1.007825032230
         H           -2.860793432931    -1.295831614434    -0.893344034256     1.007825032230
         H           -3.078755432931     0.231734385566    -0.000819034256     1.007825032230
         H            0.957554467069     1.732167785566     0.000308665744     1.007825032230
         H            1.766697567069    -2.224696614434    -0.000088034256     1.007825032230

  Basis Set: AUG-CC-PVTZ
    Blend: AUG-CC-PVTZ
  Basis Set: (AUG-CC-PVTZ AUX)
    Blend: AUG-CC-PVTZ-JKFIT
	 Reference Energy          =    -451.6175051760265546 [Eh]
	 Singles Energy            =      -0.0000000000000000 [Eh]
	 Same-Spin Energy          =      -0.4565964884573337 [Eh]
	 Opposite-Spin Energy      =      -1.3823561327066307 [Eh]
	 Correlation Energy        =      -1.8389526211639644 [Eh]
	 Total Energy              =    -453.4564577971905237 [Eh]

	 ================> DF-SCS-MP2 Energies <==================
	-----------------------------------------------------------
	 SCS Same-Spin Scale       =       0.3333333333333333 [-]
	 SCS Opposite-Spin Scale   =       1.2000000000000000 [-]
	 SCS Same-Spin Energy      =      -0.1521988294857779 [Eh]
	 SCS Opposite-Spin Energy  =      -1.6588273592479568 [Eh]
	 SCS Correlation Energy    =      -1.8110261887337347 [Eh]
	 SCS Total Energy          =    -453.4285313647603175 [Eh]
	-----------------------------------------------------------

  Dipole Moment: [D]
     X:    -3.3232      Y:    -3.7693      Z:    -0.0009     Total:     5.0251

*** Psi4 exiting successfully. Buy a developer a beer!
