                               Psi4 1.3.2 release

  ==> Input File <==

--------------------------------------------------------------------------
#psi4
#
memory 32 gb

molecule  {
0 1
  O       -1.3945310     1.8555980     0.0000210
  O        2.9082060     0.2751580    -0.0000600
  N       -1.0895640    -0.4406340     0.0001970
  N        0.7349370     0.9985730     0.0002800
  C       -0.6489740     0.8800530    -0.0003070
  C       -0.2041810    -1.5011250     0.0000420
  C       -2.5282030    -0.6963170    -0.0000730
  C        1.1327958    -1.2966326     0.0000663
  C        1.7104040    -0.0052910    -0.0002190
  H       -0.7101268    -2.4622743     0.0001729
  H       -2.8113470    -1.2573270     0.8936330
  H       -2.8107340    -1.2584070    -0.8933430
  H       -3.0286960     0.2691590    -0.0008180
  H        1.0742980     1.9581480     0.0003170
  H        1.8167570    -2.1872720    -0.0000870
units angstrom
no_reorient  #important for SAPT in psi4, default
symmetry c1  #important for SAPT in psi4, default
}

set PROPERTIES_ORIGIN ["COM"]
properties('MP2/aug-cc-pvtz', properties = ['dipole'])
--------------------------------------------------------------------------

    Molecular point group: c1
  Charge       = 0
  Multiplicity = 1
  Basis Set: AUG-CC-PVTZ
    Blend: AUG-CC-PVTZ
  Basis Set: (AUG-CC-PVTZ AUX)
    Blend: AUG-CC-PVTZ-JKFIT

    Orbital Energies [Eh]
    ---------------------

    Doubly Occupied:

       1A    -20.544821     2A    -20.537132     3A    -15.644502
       4A    -15.625353     5A    -11.417989     6A    -11.376586
       7A    -11.340546     8A    -11.290533     9A    -11.256048
      10A     -1.428381    11A     -1.387713    12A     -1.313592
      13A     -1.245748    14A     -1.093877    15A     -0.990976
      16A     -0.937550    17A     -0.870720    18A     -0.773067
      19A     -0.751316    20A     -0.703528    21A     -0.685958
      22A     -0.655489    23A     -0.644218    24A     -0.615838
      25A     -0.608673    26A     -0.600709    27A     -0.565699
      28A     -0.555249    29A     -0.499762    30A     -0.480798
      31A     -0.446844    32A     -0.432392    33A     -0.360803

  @DF-RHF Final Energy:  -451.65618823606434

   => Energetics <=

    Nuclear Repulsion Energy =            442.0583154394628309
    One-Electron Energy =               -1492.0641902400302570
    Two-Electron Energy =                 598.3496865645030311
    Total Energy =                       -451.6561882360643949
  Basis Set: (AUG-CC-PVTZ AUX)
    Blend: AUG-CC-PVTZ-RI
    Molecular point group: c1

    Geometry (in Angstrom), charge = 0, multiplicity = 1:

       Center              X                  Y                   Z               Mass
    ------------   -----------------  -----------------  -----------------  -----------------
         O           -1.444251047080     1.812075073222     0.000020673241    15.994914619570
         O            2.858485952920     0.231635073222    -0.000060326759    15.994914619570
         N           -1.139284047080    -0.484156926778     0.000196673241    14.003074004430
         N            0.685216952920     0.955050073222     0.000279673241    14.003074004430
         C           -0.698694047080     0.836530073222    -0.000307326759    12.000000000000
         C           -0.253901047080    -1.544647926778     0.000041673241    12.000000000000
         C           -2.577923047080    -0.739839926778    -0.000073326759    12.000000000000
         C            1.083075752920    -1.340155526778     0.000065973241    12.000000000000
         C            1.660683952920    -0.048813926778    -0.000219326759    12.000000000000
         H           -0.759846847080    -2.505797226778     0.000172573241     1.007825032230
         H           -2.861067047080    -1.300849926778     0.893632673241     1.007825032230
         H           -2.860454047080    -1.301929926778    -0.893343326759     1.007825032230
         H           -3.078416047080     0.225636073222    -0.000818326759     1.007825032230
         H            1.024577952920     1.914625073222     0.000316673241     1.007825032230
         H            1.767036952920    -2.230794926778    -0.000087326759     1.007825032230

  Basis Set: AUG-CC-PVTZ
    Blend: AUG-CC-PVTZ
  Basis Set: (AUG-CC-PVTZ AUX)
    Blend: AUG-CC-PVTZ-JKFIT
	 Reference Energy          =    -451.6561882360643381 [Eh]
	 Singles Energy            =      -0.0000000000000000 [Eh]
	 Same-Spin Energy          =      -0.4588532718345824 [Eh]
	 Opposite-Spin Energy      =      -1.3856745274914037 [Eh]
	 Correlation Energy        =      -1.8445277993259861 [Eh]
	 Total Energy              =    -453.5007160353903259 [Eh]

	 ================> DF-SCS-MP2 Energies <==================
	-----------------------------------------------------------
	 SCS Same-Spin Scale       =       0.3333333333333333 [-]
	 SCS Opposite-Spin Scale   =       1.2000000000000000 [-]
	 SCS Same-Spin Energy      =      -0.1529510906115275 [Eh]
	 SCS Opposite-Spin Energy  =      -1.6628094329896845 [Eh]
	 SCS Correlation Energy    =      -1.8157605236012120 [Eh]
	 SCS Total Energy          =    -453.4719487596655654 [Eh]
	-----------------------------------------------------------

  Dipole Moment: [D]
     X:    -3.3373      Y:    -3.6023      Z:    -0.0008     Total:     4.9106

*** Psi4 exiting successfully. Buy a developer a beer!
