                               Psi4 1.3.2 release

  ==> Input File <==

--------------------------------------------------------------------------
#psi4
#
memory 32 gb

molecule  {
0 1
  O       -1.3945310     1.8555980     0.0000210
  O        2.9082060     0.2751580    -0.0000600
  N       -1.0198408    -0.4618827     0.0002412
  N        0.7392432     0.9259823     0.0003211
  C       -0.6489740     0.8800530    -0.0003070
  C       -0.2041810    -1.5011250     0.0000420
  C       -2.5282030    -0.6963170    -0.0000730
  C        1.1391180    -1.3434170     0.0000740
  C        1.7104040    -0.0052910    -0.0002190
  H       -0.6762750    -2.4793460     0.0001770
  H       -2.8113470    -1.2573270     0.8936330
  H       -2.8107340    -1.2584070    -0.8933430
  H       -3.0286960     0.2691590    -0.0008180
  H        1.0742980     1.9581480     0.0003170
  H        1.8167570    -2.1872720    -0.0000870
units angstrom
no_reorient  #important for SAPT in psi4, default
symmetry c1  #important for SAPT in psi4, default
}

set PROPERTIES_ORIGIN ["COM"]
properties('MP2/aug-cc-pvtz', properties = ['dipole'])
--------------------------------------------------------------------------

    Molecular point group: c1
  Charge       = 0
  Multiplicity = 1
  Basis Set: AUG-CC-PVTZ
    Blend: AUG-CC-PVTZ
  Basis Set: (AUG-CC-PVTZ AUX)
    Blend: AUG-CC-PVTZ-JKFIT

    Orbital Energies [Eh]
    ---------------------

    Doubly Occupied:

       1A    -20.557325     2A    -20.527918     3A    -15.646168
       4A    -15.631101     5A    -11.426499     6A    -11.369912
       7A    -11.329363     8A    -11.297704     9A    -11.245266
      10A     -1.435217    11A     -1.385351    12A     -1.326851
      13A     -1.249011    14A     -1.086200    15A     -0.991933
      16A     -0.934634    17A     -0.888809    18A     -0.769161
      19A     -0.741034    20A     -0.698174    21A     -0.689338
      22A     -0.662408    23A     -0.637935    24A     -0.618380
      25A     -0.604782    26A     -0.586029    27A     -0.571808
      28A     -0.556969    29A     -0.512853    30A     -0.484809
      31A     -0.441894    32A     -0.433373    33A     -0.352879

  @DF-RHF Final Energy:  -451.64161596475145

   => Energetics <=

    Nuclear Repulsion Energy =            443.0132995601993571
    One-Electron Energy =               -1493.9276573522515719
    Two-Electron Energy =                 599.2727418273008198
    Total Energy =                       -451.6416159647513950
  Basis Set: (AUG-CC-PVTZ AUX)
    Blend: AUG-CC-PVTZ-RI
    Molecular point group: c1

    Geometry (in Angstrom), charge = 0, multiplicity = 1:

       Center              X                  Y                   Z               Mass
    ------------   -----------------  -----------------  -----------------  -----------------
         O           -1.453348124412     1.827091053791     0.000010430744    15.994914619570
         O            2.849388875588     0.246651053791    -0.000070569256    15.994914619570
         N           -1.078657924412    -0.490389646209     0.000230630744    14.003074004430
         N            0.680426075588     0.897475353791     0.000310530744    14.003074004430
         C           -0.707791124412     0.851546053791    -0.000317569256    12.000000000000
         C           -0.262998124412    -1.529631946209     0.000031430744    12.000000000000
         C           -2.587020124412    -0.724823946209    -0.000083569256    12.000000000000
         C            1.080300875588    -1.371923946209     0.000063430744    12.000000000000
         C            1.651586875588    -0.033797946209    -0.000229569256    12.000000000000
         H           -0.735092124412    -2.507852946209     0.000166430744     1.007825032230
         H           -2.870164124412    -1.285833946209     0.893622430744     1.007825032230
         H           -2.869551124412    -1.286913946209    -0.893353569256     1.007825032230
         H           -3.087513124412     0.240652053791    -0.000828569256     1.007825032230
         H            1.015480875588     1.929641053791     0.000306430744     1.007825032230
         H            1.757939875588    -2.215778946209    -0.000097569256     1.007825032230

  Basis Set: AUG-CC-PVTZ
    Blend: AUG-CC-PVTZ
  Basis Set: (AUG-CC-PVTZ AUX)
    Blend: AUG-CC-PVTZ-JKFIT
	 Reference Energy          =    -451.6416159647514519 [Eh]
	 Singles Energy            =      -0.0000000000000000 [Eh]
	 Same-Spin Energy          =      -0.4601973776185383 [Eh]
	 Opposite-Spin Energy      =      -1.3874944723091982 [Eh]
	 Correlation Energy        =      -1.8476918499277364 [Eh]
	 Total Energy              =    -453.4893078146791936 [Eh]

	 ================> DF-SCS-MP2 Energies <==================
	-----------------------------------------------------------
	 SCS Same-Spin Scale       =       0.3333333333333333 [-]
	 SCS Opposite-Spin Scale   =       1.2000000000000000 [-]
	 SCS Same-Spin Energy      =      -0.1533991258728461 [Eh]
	 SCS Opposite-Spin Energy  =      -1.6649933667710377 [Eh]
	 SCS Correlation Energy    =      -1.8183924926438837 [Eh]
	 SCS Total Energy          =    -453.4600084573953609 [Eh]
	-----------------------------------------------------------

  Dipole Moment: [D]
     X:    -3.8400      Y:    -3.2950      Z:    -0.0009     Total:     5.0599

*** Psi4 exiting successfully. Buy a developer a beer!
