                               Psi4 1.3.2 release

  ==> Input File <==

--------------------------------------------------------------------------
#psi4
#
memory 32 gb

molecule  {
0 1
  O       -1.3945310     1.8555980     0.0000210
  O        2.9082060     0.2751580    -0.0000600
  N       -1.1079373    -0.4562476     0.0002015
  N        0.7349370     0.9985730     0.0002800
  C       -0.6489740     0.8800530    -0.0003070
  C       -0.2041810    -1.5011250     0.0000420
  C       -2.5282030    -0.6963170    -0.0000730
  C        1.1391180    -1.3434170     0.0000740
  C        1.7104040    -0.0052910    -0.0002190
  H       -0.6932754    -2.4709578     0.0001804
  H       -2.8113470    -1.2573270     0.8936330
  H       -2.8107340    -1.2584070    -0.8933430
  H       -3.0286960     0.2691590    -0.0008180
  H        1.0742980     1.9581480     0.0003170
  H        1.8167570    -2.1872720    -0.0000870
units angstrom
no_reorient  #important for SAPT in psi4, default
symmetry c1  #important for SAPT in psi4, default
}

set PROPERTIES_ORIGIN ["COM"]
properties('MP2/aug-cc-pvtz', properties = ['dipole'])
--------------------------------------------------------------------------

    Molecular point group: c1
  Charge       = 0
  Multiplicity = 1
  Basis Set: AUG-CC-PVTZ
    Blend: AUG-CC-PVTZ
  Basis Set: (AUG-CC-PVTZ AUX)
    Blend: AUG-CC-PVTZ-JKFIT

    Orbital Energies [Eh]
    ---------------------

    Doubly Occupied:

       1A    -20.548029     2A    -20.539303     3A    -15.644155
       4A    -15.628271     5A    -11.421129     6A    -11.380336
       7A    -11.337160     8A    -11.287843     9A    -11.255898
      10A     -1.428211    11A     -1.388714    12A     -1.312337
      13A     -1.247768    14A     -1.091315    15A     -0.988743
      16A     -0.928897    17A     -0.872965    18A     -0.770891
      19A     -0.753060    20A     -0.699238    21A     -0.685172
      22A     -0.660352    23A     -0.645263    24A     -0.615968
      25A     -0.610498    26A     -0.605486    27A     -0.569573
      28A     -0.554027    29A     -0.498578    30A     -0.480619
      31A     -0.446889    32A     -0.433977    33A     -0.359702

  @DF-RHF Final Energy:  -451.65922550853134

   => Energetics <=

    Nuclear Repulsion Energy =            440.8992579205421407
    One-Electron Energy =               -1489.7362322293854504
    Two-Electron Energy =                 597.1777488003119743
    Total Energy =                       -451.6592255085313354
  Basis Set: (AUG-CC-PVTZ AUX)
    Blend: AUG-CC-PVTZ-RI
    Molecular point group: c1

    Geometry (in Angstrom), charge = 0, multiplicity = 1:

       Center              X                  Y                   Z               Mass
    ------------   -----------------  -----------------  -----------------  -----------------
         O           -1.442946467599     1.818333279541     0.000019380248    15.994914619570
         O            2.859790532401     0.237893279541    -0.000061619752    15.994914619570
         N           -1.156352767599    -0.493512320459     0.000199880248    14.003074004430
         N            0.686521532401     0.961308279541     0.000278380248    14.003074004430
         C           -0.697389467599     0.842788279541    -0.000308619752    12.000000000000
         C           -0.252596467599    -1.538389720459     0.000040380248    12.000000000000
         C           -2.576618467599    -0.733581720459    -0.000074619752    12.000000000000
         C            1.090702532401    -1.380681720459     0.000072380248    12.000000000000
         C            1.661988532401    -0.042555720459    -0.000220619752    12.000000000000
         H           -0.741690867599    -2.508222520459     0.000178780248     1.007825032230
         H           -2.859762467599    -1.294591720459     0.893631380248     1.007825032230
         H           -2.859149467599    -1.295671720459    -0.893344619752     1.007825032230
         H           -3.077111467599     0.231894279541    -0.000819619752     1.007825032230
         H            1.025882532401     1.920883279541     0.000315380248     1.007825032230
         H            1.768341532401    -2.224536720459    -0.000088619752     1.007825032230

  Basis Set: AUG-CC-PVTZ
    Blend: AUG-CC-PVTZ
  Basis Set: (AUG-CC-PVTZ AUX)
    Blend: AUG-CC-PVTZ-JKFIT
	 Reference Energy          =    -451.6592255085313354 [Eh]
	 Singles Energy            =      -0.0000000000000000 [Eh]
	 Same-Spin Energy          =      -0.4582289666709540 [Eh]
	 Opposite-Spin Energy      =      -1.3851055610463736 [Eh]
	 Correlation Energy        =      -1.8433345277173276 [Eh]
	 Total Energy              =    -453.5025600362486671 [Eh]

	 ================> DF-SCS-MP2 Energies <==================
	-----------------------------------------------------------
	 SCS Same-Spin Scale       =       0.3333333333333333 [-]
	 SCS Opposite-Spin Scale   =       1.2000000000000000 [-]
	 SCS Same-Spin Energy      =      -0.1527429888903180 [Eh]
	 SCS Opposite-Spin Energy  =      -1.6621266732556483 [Eh]
	 SCS Correlation Energy    =      -1.8148696621459663 [Eh]
	 SCS Total Energy          =    -453.4740951706772876 [Eh]
	-----------------------------------------------------------

  Dipole Moment: [D]
     X:    -3.2114      Y:    -3.4285      Z:    -0.0009     Total:     4.6976

*** Psi4 exiting successfully. Buy a developer a beer!
