                               Psi4 1.3.2 release

  ==> Input File <==

--------------------------------------------------------------------------
#psi4
#
memory 32 gb

molecule  {
0 1
  O       -1.3945310     1.8555980     0.0000210
  O        2.9082060     0.2751580    -0.0000600
  N       -1.0895640    -0.4406340     0.0001970
  N        0.7349370     0.9985730     0.0002800
  C       -0.6478870     0.8679808    -0.0003168
  C       -0.2041810    -1.5011250     0.0000420
  C       -2.5282030    -0.6963170    -0.0000730
  C        1.1391180    -1.3434170     0.0000740
  C        1.7016066    -0.0137652    -0.0002292
  H       -0.6762750    -2.4793460     0.0001770
  H       -2.8113470    -1.2573270     0.8936330
  H       -2.8107340    -1.2584070    -0.8933430
  H       -3.0286960     0.2691590    -0.0008180
  H        1.0742980     1.9581480     0.0003170
  H        1.8167570    -2.1872720    -0.0000870
units angstrom
no_reorient  #important for SAPT in psi4, default
symmetry c1  #important for SAPT in psi4, default
}

set PROPERTIES_ORIGIN ["COM"]
properties('MP2/aug-cc-pvtz', properties = ['dipole'])
--------------------------------------------------------------------------

    Molecular point group: c1
  Charge       = 0
  Multiplicity = 1
  Basis Set: AUG-CC-PVTZ
    Blend: AUG-CC-PVTZ
  Basis Set: (AUG-CC-PVTZ AUX)
    Blend: AUG-CC-PVTZ-JKFIT

    Orbital Energies [Eh]
    ---------------------

    Doubly Occupied:

       1A    -20.542890     2A    -20.537048     3A    -15.647388
       4A    -15.627615     5A    -11.418283     6A    -11.379931
       7A    -11.339635     8A    -11.291551     9A    -11.257725
      10A     -1.424815    11A     -1.380982    12A     -1.312933
      13A     -1.245234    14A     -1.094685    15A     -0.992596
      16A     -0.934873    17A     -0.871795    18A     -0.774539
      19A     -0.754627    20A     -0.700981    21A     -0.687027
      22A     -0.655320    23A     -0.642609    24A     -0.614590
      25A     -0.611377    26A     -0.600864    27A     -0.573494
      28A     -0.550814    29A     -0.500104    30A     -0.477948
      31A     -0.444826    32A     -0.430772    33A     -0.362607

  @DF-RHF Final Energy:  -451.65858648233723

   => Energetics <=

    Nuclear Repulsion Energy =            441.2820943105028277
    One-Electron Energy =               -1490.5164066873128377
    Two-Electron Energy =                 597.5757258944728392
    Total Energy =                       -451.6585864823372276
  Basis Set: (AUG-CC-PVTZ AUX)
    Blend: AUG-CC-PVTZ-RI
    Molecular point group: c1

    Geometry (in Angstrom), charge = 0, multiplicity = 1:

       Center              X                  Y                   Z               Mass
    ------------   -----------------  -----------------  -----------------  -----------------
         O           -1.444389557758     1.818621849812     0.000021811487    15.994914619570
         O            2.858347442242     0.238181849812    -0.000059188513    15.994914619570
         N           -1.139422557758    -0.477610150188     0.000197811487    14.003074004430
         N            0.685078442242     0.961596849812     0.000280811487    14.003074004430
         C           -0.697745557758     0.831004649812    -0.000315988513    12.000000000000
         C           -0.254039557758    -1.538101150188     0.000042811487    12.000000000000
         C           -2.578061557758    -0.733293150188    -0.000072188513    12.000000000000
         C            1.089259442242    -1.380393150188     0.000074811487    12.000000000000
         C            1.651748042242    -0.050741350188    -0.000228388513    12.000000000000
         H           -0.726133557758    -2.516322150188     0.000177811487     1.007825032230
         H           -2.861205557758    -1.294303150188     0.893633811487     1.007825032230
         H           -2.860592557758    -1.295383150188    -0.893342188513     1.007825032230
         H           -3.078554557758     0.232182849812    -0.000817188513     1.007825032230
         H            1.024439442242     1.921171849812     0.000317811487     1.007825032230
         H            1.766898442242    -2.224248150188    -0.000086188513     1.007825032230

  Basis Set: AUG-CC-PVTZ
    Blend: AUG-CC-PVTZ
  Basis Set: (AUG-CC-PVTZ AUX)
    Blend: AUG-CC-PVTZ-JKFIT
	 Reference Energy          =    -451.6585864823372276 [Eh]
	 Singles Energy            =      -0.0000000000000000 [Eh]
	 Same-Spin Energy          =      -0.4585045097934050 [Eh]
	 Opposite-Spin Energy      =      -1.3856092887970566 [Eh]
	 Correlation Energy        =      -1.8441137985904617 [Eh]
	 Total Energy              =    -453.5027002809276837 [Eh]

	 ================> DF-SCS-MP2 Energies <==================
	-----------------------------------------------------------
	 SCS Same-Spin Scale       =       0.3333333333333333 [-]
	 SCS Opposite-Spin Scale   =       1.2000000000000000 [-]
	 SCS Same-Spin Energy      =      -0.1528348365978017 [Eh]
	 SCS Opposite-Spin Energy  =      -1.6627311465564678 [Eh]
	 SCS Correlation Energy    =      -1.8155659831542694 [Eh]
	 SCS Total Energy          =    -453.4741524654914997 [Eh]
	-----------------------------------------------------------

  Dipole Moment: [D]
     X:    -3.2910      Y:    -3.6923      Z:    -0.0008     Total:     4.9461

*** Psi4 exiting successfully. Buy a developer a beer!
