                               Psi4 1.3.2 release

  ==> Input File <==

--------------------------------------------------------------------------
#psi4
#
memory 32 gb

molecule  {
0 1
  O       -1.3945310     1.8555980     0.0000210
  O        2.9082060     0.2751580    -0.0000600
  N       -1.0895640    -0.4406340     0.0001970
  N        0.7349370     0.9985730     0.0002800
  C       -0.6489740     0.8800530    -0.0003070
  C       -0.2041810    -1.5011250     0.0000420
  C       -2.5282030    -0.6963170    -0.0000730
  C        1.1391180    -1.3434170     0.0000740
  C        1.9051376     0.0403032    -0.0001932
  H       -0.6762750    -2.4793460     0.0001770
  H       -2.8113470    -1.2573270     0.8936330
  H       -2.8107340    -1.2584070    -0.8933430
  H       -3.0286960     0.2691590    -0.0008180
  H        1.0742980     1.9581480     0.0003170
  H        1.8167570    -2.1872720    -0.0000870
units angstrom
no_reorient  #important for SAPT in psi4, default
symmetry c1  #important for SAPT in psi4, default
}

set PROPERTIES_ORIGIN ["COM"]
properties('MP2/aug-cc-pvtz', properties = ['dipole'])
--------------------------------------------------------------------------

    Molecular point group: c1
  Charge       = 0
  Multiplicity = 1
  Basis Set: AUG-CC-PVTZ
    Blend: AUG-CC-PVTZ
  Basis Set: (AUG-CC-PVTZ AUX)
    Blend: AUG-CC-PVTZ-JKFIT

    Orbital Energies [Eh]
    ---------------------

    Doubly Occupied:

       1A    -20.584729     2A    -20.528507     3A    -15.625373
       4A    -15.595634     5A    -11.402283     6A    -11.379021
       7A    -11.320743     8A    -11.277597     9A    -11.249177
      10A     -1.563705    11A     -1.405568    12A     -1.293835
      13A     -1.213450    14A     -1.063976    15A     -0.972381
      16A     -0.902932    17A     -0.847321    18A     -0.765745
      19A     -0.735518    20A     -0.731104    21A     -0.684021
      22A     -0.670586    23A     -0.655246    24A     -0.636888
      25A     -0.629360    26A     -0.599198    27A     -0.576912
      28A     -0.563791    29A     -0.485315    30A     -0.469309
      31A     -0.430548    32A     -0.428813    33A     -0.348446

  @DF-RHF Final Energy:  -451.58493055812340

   => Energetics <=

    Nuclear Repulsion Energy =            440.7743731437989254
    One-Electron Energy =               -1489.4445381171117333
    Two-Electron Energy =                 597.0852344151893476
    Total Energy =                       -451.5849305581233466
  Basis Set: (AUG-CC-PVTZ AUX)
    Blend: AUG-CC-PVTZ-RI
    Molecular point group: c1

    Geometry (in Angstrom), charge = 0, multiplicity = 1:

       Center              X                  Y                   Z               Mass
    ------------   -----------------  -----------------  -----------------  -----------------
         O           -1.463663372238     1.812324890386     0.000017451068    15.994914619570
         O            2.839073627762     0.231884890386    -0.000063548932    15.994914619570
         N           -1.158696372238    -0.483907109614     0.000193451068    14.003074004430
         N            0.665804627762     0.955299890386     0.000276451068    14.003074004430
         C           -0.718106372238     0.836779890386    -0.000310548932    12.000000000000
         C           -0.273313372238    -1.544398109614     0.000038451068    12.000000000000
         C           -2.597335372238    -0.739590109614    -0.000076548932    12.000000000000
         C            1.069985627762    -1.386690109614     0.000070451068    12.000000000000
         C            1.836005227762    -0.002969909614    -0.000196748932    12.000000000000
         H           -0.745407372238    -2.522619109614     0.000173451068     1.007825032230
         H           -2.880479372238    -1.300600109614     0.893629451068     1.007825032230
         H           -2.879866372238    -1.301680109614    -0.893346548932     1.007825032230
         H           -3.097828372238     0.225885890386    -0.000821548932     1.007825032230
         H            1.005165627762     1.914874890386     0.000313451068     1.007825032230
         H            1.747624627762    -2.230545109614    -0.000090548932     1.007825032230

  Basis Set: AUG-CC-PVTZ
    Blend: AUG-CC-PVTZ
  Basis Set: (AUG-CC-PVTZ AUX)
    Blend: AUG-CC-PVTZ-JKFIT
	 Reference Energy          =    -451.5849305581234034 [Eh]
	 Singles Energy            =      -0.0000000000000000 [Eh]
	 Same-Spin Energy          =      -0.4538803757435404 [Eh]
	 Opposite-Spin Energy      =      -1.3775997657811057 [Eh]
	 Correlation Energy        =      -1.8314801415246460 [Eh]
	 Total Energy              =    -453.4164106996480541 [Eh]

	 ================> DF-SCS-MP2 Energies <==================
	-----------------------------------------------------------
	 SCS Same-Spin Scale       =       0.3333333333333333 [-]
	 SCS Opposite-Spin Scale   =       1.2000000000000000 [-]
	 SCS Same-Spin Energy      =      -0.1512934585811801 [Eh]
	 SCS Opposite-Spin Energy  =      -1.6531197189373268 [Eh]
	 SCS Correlation Energy    =      -1.8044131775185068 [Eh]
	 SCS Total Energy          =    -453.3893437356418872 [Eh]
	-----------------------------------------------------------

  Dipole Moment: [D]
     X:    -1.0197      Y:    -3.2979      Z:    -0.0011     Total:     3.4519

*** Psi4 exiting successfully. Buy a developer a beer!
