                               Psi4 1.4a3.dev225

  ==> Input File <==

--------------------------------------------------------------------------
#psi4
#
memory 32 gb

molecule  {
0 1
  O       -1.4350980    -1.8086910     0.0000000
  O        2.9075840    -0.3082450     0.0000000
  N       -1.0785060     0.4619330     0.0000000
  N        0.7249750    -1.0056720    -0.0000010
  C       -0.6716001    -0.8620622     0.0000000
  C       -0.1841290     1.5083600     0.0000000
  C       -2.5245930     0.6731660     0.0000000
  C        1.1582900     1.3329580     0.0000000
  C        1.7164880    -0.0081480     0.0000000
  H       -0.6338540     2.4967290    -0.0000010
  H       -2.9690000     0.2175100    -0.8862740
  H       -2.7140630     1.7465080     0.0000000
  H       -2.9689990     0.2175090     0.8862740
  H        1.0585810    -1.9665760     0.0000000
  H        1.8360540     2.1766110     0.0000000
units angstrom
no_reorient  #important for SAPT in psi4, default
symmetry c1  #important for SAPT in psi4, default
}

set PROPERTIES_ORIGIN ["COM"]
properties('MP2/aug-cc-pvtz', properties = ['dipole'])
--------------------------------------------------------------------------

    Molecular point group: c1
  Charge       = 0
  Multiplicity = 1
  Basis Set: AUG-CC-PVTZ
    Blend: AUG-CC-PVTZ
  Basis Set: (AUG-CC-PVTZ AUX)
    Blend: AUG-CC-PVTZ-JKFIT

    Orbital Energies [Eh]
    ---------------------

    Doubly Occupied:

       1A    -20.548787     2A    -20.536681     3A    -15.645223
       4A    -15.623288     5A    -11.416298     6A    -11.377825
       7A    -11.338129     8A    -11.293231     9A    -11.253622
      10A     -1.433620    11A     -1.388191    12A     -1.315546
      13A     -1.240235    14A     -1.091322    15A     -0.989512
      16A     -0.932183    17A     -0.867443    18A     -0.771888
      19A     -0.749797    20A     -0.701410    21A     -0.687077
      22A     -0.658670    23A     -0.645327    24A     -0.609072
      25A     -0.607807    26A     -0.601757    27A     -0.579786
      28A     -0.552611    29A     -0.503746    30A     -0.482813
      31A     -0.444359    32A     -0.431470    33A     -0.359077

  @DF-RHF Final Energy:  -451.66141324564177

   => Energetics <=

    Nuclear Repulsion Energy =            441.5773051131986904
    One-Electron Energy =               -1491.1218275447729411
    Two-Electron Energy =                 597.8831091859324260
    Total Energy =                       -451.6614132456418247
  Basis Set: (AUG-CC-PVTZ AUX)
    Blend: AUG-CC-PVTZ-RI
    Molecular point group: c1

    Geometry (in Angstrom), charge = 0, multiplicity = 1:

       Center              X                  Y                   Z               Mass
    ------------   -----------------  -----------------  -----------------  -----------------
         O           -1.483446170235    -1.770478618755     0.000000119094    15.994914619570
         O            2.859235829765    -0.270032618755     0.000000119094    15.994914619570
         N           -1.126854170235     0.500145381245     0.000000119094    14.003074004430
         N            0.676626829765    -0.967459618755    -0.000000880906    14.003074004430
         C           -0.719948270235    -0.823849818755     0.000000119094    12.000000000000
         C           -0.232477170235     1.546572381245     0.000000119094    12.000000000000
         C           -2.572941170235     0.711378381245     0.000000119094    12.000000000000
         C            1.109941829765     1.371170381245     0.000000119094    12.000000000000
         C            1.668139829765     0.030064381245     0.000000119094    12.000000000000
         H           -0.682202170235     2.534941381245    -0.000000880906     1.007825032230
         H           -3.017348170235     0.255722381245    -0.886273880906     1.007825032230
         H           -2.762411170235     1.784720381245     0.000000119094     1.007825032230
         H           -3.017347170235     0.255721381245     0.886274119094     1.007825032230
         H            1.010232829765    -1.928363618755     0.000000119094     1.007825032230
         H            1.787705829765     2.214823381245     0.000000119094     1.007825032230

  Basis Set: AUG-CC-PVTZ
    Blend: AUG-CC-PVTZ
  Basis Set: (AUG-CC-PVTZ AUX)
    Blend: AUG-CC-PVTZ-JKFIT
	 Reference Energy          =    -451.6614132456417678 [Eh]
	 Singles Energy            =      -0.0000000000000000 [Eh]
	 Same-Spin Energy          =      -0.4578460345288671 [Eh]
	 Opposite-Spin Energy      =      -1.3844075820646446 [Eh]
	 Correlation Energy        =      -1.8422536165935117 [Eh]
	 Total Energy              =    -453.5036668622352636 [Eh]

	 ================> DF-SCS-MP2 Energies <==================
	-----------------------------------------------------------
	 SCS Same-Spin Scale       =       0.3333333333333333 [-]
	 SCS Opposite-Spin Scale   =       1.2000000000000000 [-]
	 SCS Same-Spin Energy      =      -0.1526153448429557 [Eh]
	 SCS Opposite-Spin Energy  =      -1.6612890984775734 [Eh]
	 SCS Correlation Energy    =      -1.8139044433205291 [Eh]
	 SCS Total Energy          =    -453.4753176889623205 [Eh]
	-----------------------------------------------------------

  Dipole Moment: [D]
     X:    -3.3568      Y:     3.5357      Z:     0.0000     Total:     4.8754

*** Psi4 exiting successfully. Buy a developer a beer!
