                               Psi4 1.3.2 release

  ==> Input File <==

--------------------------------------------------------------------------
#psi4
#
memory 32 gb

molecule  {
0 1
  O       -1.3945310     1.8555980     0.0000210
  O        2.9082060     0.2751580    -0.0000600
  N       -1.0895640    -0.4406340     0.0001970
  N        0.7349370     0.9985730     0.0002800
  C       -0.6489740     0.8800530    -0.0003070
  C       -0.2041810    -1.5011250     0.0000420
  C       -2.5282030    -0.6963170    -0.0000730
  C        1.1391180    -1.3434170     0.0000740
  C        1.7104040    -0.0052910    -0.0002190
  H       -0.6762750    -2.4793460     0.0001770
  H       -2.8113470    -1.2573270     0.8936330
  H       -2.8107340    -1.2584070    -0.8933430
  H       -3.0286960     0.2691590    -0.0008180
  H        1.1409821     2.1467036     0.0003243
  H        1.8167570    -2.1872720    -0.0000870
units angstrom
no_reorient  #important for SAPT in psi4, default
symmetry c1  #important for SAPT in psi4, default
}

set PROPERTIES_ORIGIN ["COM"]
properties('MP2/aug-cc-pvtz', properties = ['dipole'])
--------------------------------------------------------------------------

    Molecular point group: c1
  Charge       = 0
  Multiplicity = 1
  Basis Set: AUG-CC-PVTZ
    Blend: AUG-CC-PVTZ
  Basis Set: (AUG-CC-PVTZ AUX)
    Blend: AUG-CC-PVTZ-JKFIT

    Orbital Energies [Eh]
    ---------------------

    Doubly Occupied:

       1A    -20.542932     2A    -20.536448     3A    -15.643501
       4A    -15.637950     5A    -11.416541     6A    -11.378146
       7A    -11.335839     8A    -11.289082     9A    -11.255500
      10A     -1.424261    11A     -1.385169    12A     -1.310620
      13A     -1.229703    14A     -1.088316    15A     -0.987243
      16A     -0.920809    17A     -0.869552    18A     -0.763205
      19A     -0.732163    20A     -0.686910    21A     -0.683462
      22A     -0.650021    23A     -0.640004    24A     -0.612505
      25A     -0.607768    26A     -0.593132    27A     -0.565289
      28A     -0.552194    29A     -0.497779    30A     -0.478256
      31A     -0.443881    32A     -0.428651    33A     -0.359502

  @DF-RHF Final Energy:  -451.63065172527678

   => Energetics <=

    Nuclear Repulsion Energy =            440.0384398880361232
    One-Electron Energy =               -1488.2455146829720434
    Two-Electron Energy =                 596.5764230696591994
    Total Energy =                       -451.6306517252768344
  Basis Set: (AUG-CC-PVTZ AUX)
    Blend: AUG-CC-PVTZ-RI
    Molecular point group: c1

    Geometry (in Angstrom), charge = 0, multiplicity = 1:

       Center              X                  Y                   Z               Mass
    ------------   -----------------  -----------------  -----------------  -----------------
         O           -1.445656830016     1.815158046943     0.000019849004    15.994914619570
         O            2.857080169984     0.234718046943    -0.000061150996    15.994914619570
         N           -1.140689830016    -0.481073953057     0.000195849004    14.003074004430
         N            0.683811169984     0.958133046943     0.000278849004    14.003074004430
         C           -0.700099830016     0.839613046943    -0.000308150996    12.000000000000
         C           -0.255306830016    -1.541564953057     0.000040849004    12.000000000000
         C           -2.579328830016    -0.736756953057    -0.000074150996    12.000000000000
         C            1.087992169984    -1.383856953057     0.000072849004    12.000000000000
         C            1.659278169984    -0.045730953057    -0.000220150996    12.000000000000
         H           -0.727400830016    -2.519785953057     0.000175849004     1.007825032230
         H           -2.862472830016    -1.297766953057     0.893631849004     1.007825032230
         H           -2.861859830016    -1.298846953057    -0.893344150996     1.007825032230
         H           -3.079821830016     0.228719046943    -0.000819150996     1.007825032230
         H            1.089856269984     2.106263646943     0.000323149004     1.007825032230
         H            1.765631169984    -2.227711953057    -0.000088150996     1.007825032230

  Basis Set: AUG-CC-PVTZ
    Blend: AUG-CC-PVTZ
  Basis Set: (AUG-CC-PVTZ AUX)
    Blend: AUG-CC-PVTZ-JKFIT
	 Reference Energy          =    -451.6306517252767776 [Eh]
	 Singles Energy            =      -0.0000000000000000 [Eh]
	 Same-Spin Energy          =      -0.4598808568300409 [Eh]
	 Opposite-Spin Energy      =      -1.3890065329670467 [Eh]
	 Correlation Energy        =      -1.8488873897970877 [Eh]
	 Total Energy              =    -453.4795391150738624 [Eh]

	 ================> DF-SCS-MP2 Energies <==================
	-----------------------------------------------------------
	 SCS Same-Spin Scale       =       0.3333333333333333 [-]
	 SCS Opposite-Spin Scale   =       1.2000000000000000 [-]
	 SCS Same-Spin Energy      =      -0.1532936189433470 [Eh]
	 SCS Opposite-Spin Energy  =      -1.6668078395604560 [Eh]
	 SCS Correlation Energy    =      -1.8201014585038029 [Eh]
	 SCS Total Energy          =    -453.4507531837805914 [Eh]
	-----------------------------------------------------------

  Dipole Moment: [D]
     X:    -3.1430      Y:    -3.2999      Z:    -0.0008     Total:     4.5572

*** Psi4 exiting successfully. Buy a developer a beer!
