                               Psi4 1.3.2 release

  ==> Input File <==

--------------------------------------------------------------------------
#psi4
#
memory 32 gb

molecule  {
0 1
  O       -1.3945310     1.8555980     0.0000210
  O        2.9082060     0.2751580    -0.0000600
  N       -1.0895640    -0.4406340     0.0001970
  N        0.7349370     0.9985730     0.0002800
  C       -0.6489740     0.8800530    -0.0003070
  C       -0.2041810    -1.5011250     0.0000420
  C       -2.5282030    -0.6963170    -0.0000730
  C        1.1391180    -1.3434170     0.0000740
  C        1.6130372    -0.0280881    -0.0002319
  H       -0.6762750    -2.4793460     0.0001770
  H       -2.8113470    -1.2573270     0.8936330
  H       -2.8107340    -1.2584070    -0.8933430
  H       -3.0286960     0.2691590    -0.0008180
  H        1.0742980     1.9581480     0.0003170
  H        1.8167570    -2.1872720    -0.0000870
units angstrom
no_reorient  #important for SAPT in psi4, default
symmetry c1  #important for SAPT in psi4, default
}

set PROPERTIES_ORIGIN ["COM"]
properties('MP2/aug-cc-pvtz', properties = ['dipole'])
--------------------------------------------------------------------------

    Molecular point group: c1
  Charge       = 0
  Multiplicity = 1
  Basis Set: AUG-CC-PVTZ
    Blend: AUG-CC-PVTZ
  Basis Set: (AUG-CC-PVTZ AUX)
    Blend: AUG-CC-PVTZ-JKFIT

    Orbital Energies [Eh]
    ---------------------

    Doubly Occupied:

       1A    -20.552567     2A    -20.516054     3A    -15.654203
       4A    -15.638888     5A    -11.424713     6A    -11.376290
       7A    -11.345803     8A    -11.296046     9A    -11.258432
      10A     -1.436295    11A     -1.348945    12A     -1.311405
      13A     -1.243208    14A     -1.105991    15A     -0.996854
      16A     -0.943783    17A     -0.883532    18A     -0.782295
      19A     -0.765633    20A     -0.706575    21A     -0.693542
      22A     -0.663136    23A     -0.638288    24A     -0.619856
      25A     -0.619142    26A     -0.580166    27A     -0.571016
      28A     -0.542907    29A     -0.505777    30A     -0.481356
      31A     -0.429923    32A     -0.422447    33A     -0.362327

  @DF-RHF Final Energy:  -451.63816235959871

   => Energetics <=

    Nuclear Repulsion Energy =            441.9007979607576431
    One-Electron Energy =               -1491.6431254379133406
    Two-Electron Energy =                 598.1041651175569314
    Total Energy =                       -451.6381623595987094
  Basis Set: (AUG-CC-PVTZ AUX)
    Blend: AUG-CC-PVTZ-RI
    Molecular point group: c1

    Geometry (in Angstrom), charge = 0, multiplicity = 1:

       Center              X                  Y                   Z               Mass
    ------------   -----------------  -----------------  -----------------  -----------------
         O           -1.435853761091     1.818836129189     0.000021135527    15.994914619570
         O            2.866883238909     0.238396129189    -0.000059864473    15.994914619570
         N           -1.130886761091    -0.477395870811     0.000197135527    14.003074004430
         N            0.693614238909     0.961811129189     0.000280135527    14.003074004430
         C           -0.690296761091     0.843291129189    -0.000306864473    12.000000000000
         C           -0.245503761091    -1.537886870811     0.000042135527    12.000000000000
         C           -2.569525761091    -0.733078870811    -0.000072864473    12.000000000000
         C            1.097795238909    -1.380178870811     0.000074135527    12.000000000000
         C            1.571714438909    -0.064849970811    -0.000231764473    12.000000000000
         H           -0.717597761091    -2.516107870811     0.000177135527     1.007825032230
         H           -2.852669761091    -1.294088870811     0.893633135527     1.007825032230
         H           -2.852056761091    -1.295168870811    -0.893342864473     1.007825032230
         H           -3.070018761091     0.232397129189    -0.000817864473     1.007825032230
         H            1.032975238909     1.921386129189     0.000317135527     1.007825032230
         H            1.775434238909    -2.224033870811    -0.000086864473     1.007825032230

  Basis Set: AUG-CC-PVTZ
    Blend: AUG-CC-PVTZ
  Basis Set: (AUG-CC-PVTZ AUX)
    Blend: AUG-CC-PVTZ-JKFIT
	 Reference Energy          =    -451.6381623595987094 [Eh]
	 Singles Energy            =      -0.0000000000000000 [Eh]
	 Same-Spin Energy          =      -0.4606881497339229 [Eh]
	 Opposite-Spin Energy      =      -1.3891332336635713 [Eh]
	 Correlation Energy        =      -1.8498213833974941 [Eh]
	 Total Energy              =    -453.4879837429962208 [Eh]

	 ================> DF-SCS-MP2 Energies <==================
	-----------------------------------------------------------
	 SCS Same-Spin Scale       =       0.3333333333333333 [-]
	 SCS Opposite-Spin Scale   =       1.2000000000000000 [-]
	 SCS Same-Spin Energy      =      -0.1535627165779743 [Eh]
	 SCS Opposite-Spin Energy  =      -1.6669598803962855 [Eh]
	 SCS Correlation Energy    =      -1.8205225969742598 [Eh]
	 SCS Total Energy          =    -453.4586849565729949 [Eh]
	-----------------------------------------------------------

  Dipole Moment: [D]
     X:    -4.1058      Y:    -3.6380      Z:    -0.0007     Total:     5.4857

*** Psi4 exiting successfully. Buy a developer a beer!
