                               Psi4 1.3.2 release

  ==> Input File <==

--------------------------------------------------------------------------
#psi4
#
memory 32 gb

molecule  {
0 1
  O       -1.3945310     1.8555980     0.0000210
  O        2.9082060     0.2751580    -0.0000600
  N       -1.0895640    -0.4406340     0.0001970
  N        0.7349370     0.9985730     0.0002800
  C       -0.7186972     0.9013018    -0.0002804
  C       -0.2608962    -1.5460090     0.0000780
  C       -2.5282030    -0.6963170    -0.0000730
  C        1.1391180    -1.3434170     0.0000740
  C        1.7104040    -0.0052910    -0.0002190
  H       -0.6762750    -2.4793460     0.0001770
  H       -2.8113470    -1.2573270     0.8936330
  H       -2.8107340    -1.2584070    -0.8933430
  H       -3.0286960     0.2691590    -0.0008180
  H        1.0742980     1.9581480     0.0003170
  H        1.8167570    -2.1872720    -0.0000870
units angstrom
no_reorient  #important for SAPT in psi4, default
symmetry c1  #important for SAPT in psi4, default
}

set PROPERTIES_ORIGIN ["COM"]
properties('MP2/aug-cc-pvtz', properties = ['dipole'])
--------------------------------------------------------------------------

    Molecular point group: c1
  Charge       = 0
  Multiplicity = 1
  Basis Set: AUG-CC-PVTZ
    Blend: AUG-CC-PVTZ
  Basis Set: (AUG-CC-PVTZ AUX)
    Blend: AUG-CC-PVTZ-JKFIT

    Orbital Energies [Eh]
    ---------------------

    Doubly Occupied:

       1A    -20.563384     2A    -20.530282     3A    -15.644909
       4A    -15.614100     5A    -11.422337     6A    -11.372394
       7A    -11.340759     8A    -11.289613     9A    -11.259505
      10A     -1.462786    11A     -1.383421    12A     -1.319824
      13A     -1.225771    14A     -1.076944    15A     -0.985906
      16A     -0.937757    17A     -0.855588    18A     -0.767972
      19A     -0.744354    20A     -0.715365    21A     -0.687501
      22A     -0.674834    23A     -0.641705    24A     -0.612952
      25A     -0.609457    26A     -0.594952    27A     -0.571332
      28A     -0.563965    29A     -0.498468    30A     -0.494080
      31A     -0.439479    32A     -0.427288    33A     -0.350227

  @DF-RHF Final Energy:  -451.64266840165442

   => Energetics <=

    Nuclear Repulsion Energy =            439.9801470770551077
    One-Electron Energy =               -1487.8872081793904272
    Two-Electron Energy =                 596.2643927006809008
    Total Energy =                       -451.6426684016544186
  Basis Set: (AUG-CC-PVTZ AUX)
    Blend: AUG-CC-PVTZ-RI
    Molecular point group: c1

    Geometry (in Angstrom), charge = 0, multiplicity = 1:

       Center              X                  Y                   Z               Mass
    ------------   -----------------  -----------------  -----------------  -----------------
         O           -1.433085980248     1.818915921052     0.000013947500    15.994914619570
         O            2.869651019752     0.238475921052    -0.000067052500    15.994914619570
         N           -1.128118980248    -0.477316078948     0.000189947500    14.003074004430
         N            0.696382019752     0.961890921052     0.000272947500    14.003074004430
         C           -0.757252180248     0.864619721052    -0.000287452500    12.000000000000
         C           -0.299451180248    -1.582691078948     0.000070947500    12.000000000000
         C           -2.566757980248    -0.732999078948    -0.000080052500    12.000000000000
         C            1.100563019752    -1.380099078948     0.000066947500    12.000000000000
         C            1.671849019752    -0.041973078948    -0.000226052500    12.000000000000
         H           -0.714829980248    -2.516028078948     0.000169947500     1.007825032230
         H           -2.849901980248    -1.294009078948     0.893625947500     1.007825032230
         H           -2.849288980248    -1.295089078948    -0.893350052500     1.007825032230
         H           -3.067250980248     0.232476921052    -0.000825052500     1.007825032230
         H            1.035743019752     1.921465921052     0.000309947500     1.007825032230
         H            1.778202019752    -2.223954078948    -0.000094052500     1.007825032230

  Basis Set: AUG-CC-PVTZ
    Blend: AUG-CC-PVTZ
  Basis Set: (AUG-CC-PVTZ AUX)
    Blend: AUG-CC-PVTZ-JKFIT
	 Reference Energy          =    -451.6426684016544186 [Eh]
	 Singles Energy            =      -0.0000000000000000 [Eh]
	 Same-Spin Energy          =      -0.4582570520610522 [Eh]
	 Opposite-Spin Energy      =      -1.3859607736769721 [Eh]
	 Correlation Energy        =      -1.8442178257380242 [Eh]
	 Total Energy              =    -453.4868862273924606 [Eh]

	 ================> DF-SCS-MP2 Energies <==================
	-----------------------------------------------------------
	 SCS Same-Spin Scale       =       0.3333333333333333 [-]
	 SCS Opposite-Spin Scale   =       1.2000000000000000 [-]
	 SCS Same-Spin Energy      =      -0.1527523506870174 [Eh]
	 SCS Opposite-Spin Energy  =      -1.6631529284123665 [Eh]
	 SCS Correlation Energy    =      -1.8159052790993839 [Eh]
	 SCS Total Energy          =    -453.4585736807538296 [Eh]
	-----------------------------------------------------------

  Dipole Moment: [D]
     X:    -3.8535      Y:    -3.2272      Z:    -0.0009     Total:     5.0263

*** Psi4 exiting successfully. Buy a developer a beer!
