                               Psi4 1.4a3.dev225

  ==> Input File <==

--------------------------------------------------------------------------
#psi4
#
memory 32 gb

molecule  {
0 1
  O       -1.4350980    -1.8086910     0.0000000
  O        2.9075840    -0.3082450     0.0000000
  N       -1.0785060     0.4619330     0.0000000
  N        0.7249750    -1.0056720    -0.0000010
  C       -0.6517050    -0.8641080     0.0000000
  C       -0.1841290     1.5083600     0.0000000
  C       -2.5245930     0.6731660     0.0000000
  C        1.1582900     1.3329580     0.0000000
  C        1.6970941    -0.0032617     0.0000000
  H       -0.6338540     2.4967290    -0.0000010
  H       -2.9690000     0.2175100    -0.8862740
  H       -2.7140630     1.7465080     0.0000000
  H       -2.9689990     0.2175090     0.8862740
  H        1.0585810    -1.9665760     0.0000000
  H        1.8360540     2.1766110     0.0000000
units angstrom
no_reorient  #important for SAPT in psi4, default
symmetry c1  #important for SAPT in psi4, default
}

set PROPERTIES_ORIGIN ["COM"]
properties('MP2/aug-cc-pvtz', properties = ['dipole'])
--------------------------------------------------------------------------

    Molecular point group: c1
  Charge       = 0
  Multiplicity = 1
  Basis Set: AUG-CC-PVTZ
    Blend: AUG-CC-PVTZ
  Basis Set: (AUG-CC-PVTZ AUX)
    Blend: AUG-CC-PVTZ-JKFIT

    Orbital Energies [Eh]
    ---------------------

    Doubly Occupied:

       1A    -20.547419     2A    -20.533958     3A    -15.646926
       4A    -15.629268     5A    -11.417606     6A    -11.379290
       7A    -11.340014     8A    -11.293934     9A    -11.254046
      10A     -1.430360    11A     -1.377059    12A     -1.313246
      13A     -1.247671    14A     -1.094160    15A     -0.990638
      16A     -0.934133    17A     -0.874509    18A     -0.774901
      19A     -0.754006    20A     -0.702337    21A     -0.687729
      22A     -0.658298    23A     -0.641502    24A     -0.610972
      25A     -0.609372    26A     -0.598332    27A     -0.580000
      28A     -0.547441    29A     -0.504396    30A     -0.480502
      31A     -0.443934    32A     -0.431416    33A     -0.359305

  @DF-RHF Final Energy:  -451.65922970864523

   => Energetics <=

    Nuclear Repulsion Energy =            441.7130291070749308
    One-Electron Energy =               -1491.3671566549426188
    Two-Electron Energy =                 597.9948978392224035
    Total Energy =                       -451.6592297086451708
  Basis Set: (AUG-CC-PVTZ AUX)
    Blend: AUG-CC-PVTZ-RI
    Molecular point group: c1

    Geometry (in Angstrom), charge = 0, multiplicity = 1:

       Center              X                  Y                   Z               Mass
    ------------   -----------------  -----------------  -----------------  -----------------
         O           -1.483493887311    -1.770749050431     0.000000119094    15.994914619570
         O            2.859188112689    -0.270303050431     0.000000119094    15.994914619570
         N           -1.126901887311     0.499874949569     0.000000119094    14.003074004430
         N            0.676579112689    -0.967730050431    -0.000000880906    14.003074004430
         C           -0.700100887311    -0.826166050431     0.000000119094    12.000000000000
         C           -0.232524887311     1.546301949569     0.000000119094    12.000000000000
         C           -2.572988887311     0.711107949569     0.000000119094    12.000000000000
         C            1.109894112689     1.370899949569     0.000000119094    12.000000000000
         C            1.648698212689     0.034680249569     0.000000119094    12.000000000000
         H           -0.682249887311     2.534670949569    -0.000000880906     1.007825032230
         H           -3.017395887311     0.255451949569    -0.886273880906     1.007825032230
         H           -2.762458887311     1.784449949569     0.000000119094     1.007825032230
         H           -3.017394887311     0.255450949569     0.886274119094     1.007825032230
         H            1.010185112689    -1.928634050431     0.000000119094     1.007825032230
         H            1.787658112689     2.214552949569     0.000000119094     1.007825032230

  Basis Set: AUG-CC-PVTZ
    Blend: AUG-CC-PVTZ
  Basis Set: (AUG-CC-PVTZ AUX)
    Blend: AUG-CC-PVTZ-JKFIT
	 Reference Energy          =    -451.6592297086452277 [Eh]
	 Singles Energy            =      -0.0000000000000000 [Eh]
	 Same-Spin Energy          =      -0.4585331498055592 [Eh]
	 Opposite-Spin Energy      =      -1.3854894510153541 [Eh]
	 Correlation Energy        =      -1.8440226008209133 [Eh]
	 Total Energy              =    -453.5032523094661201 [Eh]

	 ================> DF-SCS-MP2 Energies <==================
	-----------------------------------------------------------
	 SCS Same-Spin Scale       =       0.3333333333333333 [-]
	 SCS Opposite-Spin Scale   =       1.2000000000000000 [-]
	 SCS Same-Spin Energy      =      -0.1528443832685197 [Eh]
	 SCS Opposite-Spin Energy  =      -1.6625873412184249 [Eh]
	 SCS Correlation Energy    =      -1.8154317244869447 [Eh]
	 SCS Total Energy          =    -453.4746614331321553 [Eh]
	-----------------------------------------------------------

  Dipole Moment: [D]
     X:    -3.4080      Y:     3.5743      Z:     0.0000     Total:     4.9386

*** Psi4 exiting successfully. Buy a developer a beer!
