                               Psi4 1.3.2 release

  ==> Input File <==

--------------------------------------------------------------------------
#psi4
#
memory 32 gb

molecule  {
0 1
  O       -1.3945310     1.8555980     0.0000210
  O        2.9082060     0.2751580    -0.0000600
  N       -1.0895640    -0.4406340     0.0001970
  N        0.7349370     0.9985730     0.0002800
  C       -0.6489740     0.8800530    -0.0003070
  C       -0.2041810    -1.5011250     0.0000420
  C       -2.5282030    -0.6963170    -0.0000730
  C        1.1391180    -1.3434170     0.0000740
  C        1.7104040    -0.0052910    -0.0002190
  H       -0.7197387    -2.5694066     0.0001894
  H       -2.8113470    -1.2573270     0.8936330
  H       -2.8107340    -1.2584070    -0.8933430
  H       -3.0286960     0.2691590    -0.0008180
  H        1.0742980     1.9581480     0.0003170
  H        1.8167570    -2.1872720    -0.0000870
units angstrom
no_reorient  #important for SAPT in psi4, default
symmetry c1  #important for SAPT in psi4, default
}

set PROPERTIES_ORIGIN ["COM"]
properties('MP2/aug-cc-pvtz', properties = ['dipole'])
--------------------------------------------------------------------------

    Molecular point group: c1
  Charge       = 0
  Multiplicity = 1
  Basis Set: AUG-CC-PVTZ
    Blend: AUG-CC-PVTZ
  Basis Set: (AUG-CC-PVTZ AUX)
    Blend: AUG-CC-PVTZ-JKFIT

    Orbital Energies [Eh]
    ---------------------

    Doubly Occupied:

       1A    -20.545873     2A    -20.539061     3A    -15.645315
       4A    -15.626819     5A    -11.419118     6A    -11.380323
       7A    -11.347318     8A    -11.289871     9A    -11.256504
      10A     -1.428722    11A     -1.388396    12A     -1.312302
      13A     -1.245766    14A     -1.089577    15A     -0.989711
      16A     -0.924096    17A     -0.872319    18A     -0.771628
      19A     -0.751644    20A     -0.685461    21A     -0.684798
      22A     -0.657085    23A     -0.642547    24A     -0.614987
      25A     -0.609036    26A     -0.597420    27A     -0.571428
      28A     -0.554488    29A     -0.499697    30A     -0.479295
      31A     -0.446232    32A     -0.433332    33A     -0.360916

  @DF-RHF Final Energy:  -451.65297389876559

   => Energetics <=

    Nuclear Repulsion Energy =            440.6703343711220100
    One-Electron Energy =               -1489.3244420551345684
    Two-Electron Energy =                 597.0011337852470206
    Total Energy =                       -451.6529738987655946
  Basis Set: (AUG-CC-PVTZ AUX)
    Blend: AUG-CC-PVTZ-RI
    Molecular point group: c1

    Geometry (in Angstrom), charge = 0, multiplicity = 1:

       Center              X                  Y                   Z               Mass
    ------------   -----------------  -----------------  -----------------  -----------------
         O           -1.444776100630     1.817385830655     0.000019808225    15.994914619570
         O            2.857960899370     0.236945830655    -0.000061191775    15.994914619570
         N           -1.139809100630    -0.478846169345     0.000195808225    14.003074004430
         N            0.684691899370     0.960360830655     0.000278808225    14.003074004430
         C           -0.699219100630     0.841840830655    -0.000308191775    12.000000000000
         C           -0.254426100630    -1.539337169345     0.000040808225    12.000000000000
         C           -2.578448100630    -0.734529169345    -0.000074191775    12.000000000000
         C            1.088872899370    -1.381629169345     0.000072808225    12.000000000000
         C            1.660158899370    -0.043503169345    -0.000220191775    12.000000000000
         H           -0.769983800630    -2.607618769345     0.000188208225     1.007825032230
         H           -2.861592100630    -1.295539169345     0.893631808225     1.007825032230
         H           -2.860979100630    -1.296619169345    -0.893344191775     1.007825032230
         H           -3.078941100630     0.230946830655    -0.000819191775     1.007825032230
         H            1.024052899370     1.919935830655     0.000315808225     1.007825032230
         H            1.766511899370    -2.225484169345    -0.000088191775     1.007825032230

  Basis Set: AUG-CC-PVTZ
    Blend: AUG-CC-PVTZ
  Basis Set: (AUG-CC-PVTZ AUX)
    Blend: AUG-CC-PVTZ-JKFIT
	 Reference Energy          =    -451.6529738987655946 [Eh]
	 Singles Energy            =      -0.0000000000000000 [Eh]
	 Same-Spin Energy          =      -0.4583948374407972 [Eh]
	 Opposite-Spin Energy      =      -1.3858190509664270 [Eh]
	 Correlation Energy        =      -1.8442138884072241 [Eh]
	 Total Energy              =    -453.4971877871728339 [Eh]

	 ================> DF-SCS-MP2 Energies <==================
	-----------------------------------------------------------
	 SCS Same-Spin Scale       =       0.3333333333333333 [-]
	 SCS Opposite-Spin Scale   =       1.2000000000000000 [-]
	 SCS Same-Spin Energy      =      -0.1527982791469324 [Eh]
	 SCS Opposite-Spin Energy  =      -1.6629828611597124 [Eh]
	 SCS Correlation Energy    =      -1.8157811403066448 [Eh]
	 SCS Total Energy          =    -453.4687550390722208 [Eh]
	-----------------------------------------------------------

  Dipole Moment: [D]
     X:    -3.2342      Y:    -3.5274      Z:    -0.0009     Total:     4.7857

*** Psi4 exiting successfully. Buy a developer a beer!
