                               Psi4 1.3.2 release

  ==> Input File <==

--------------------------------------------------------------------------
#psi4
#
memory 32 gb

molecule  {
0 1
  O       -1.3945310     1.8555980     0.0000210
  O        2.9082060     0.2751580    -0.0000600
  N       -1.0895640    -0.4406340     0.0001970
  N        0.7349370     0.9985730     0.0002800
  C       -0.6489740     0.8800530    -0.0003070
  C       -0.2041810    -1.5011250     0.0000420
  C       -2.5282030    -0.6963170    -0.0000730
  C        1.1391180    -1.3434170     0.0000740
  C        1.7104040    -0.0052910    -0.0002190
  H       -0.7632023    -2.6594672     0.0002019
  H       -2.8113470    -1.2573270     0.8936330
  H       -2.8107340    -1.2584070    -0.8933430
  H       -3.0286960     0.2691590    -0.0008180
  H        1.0742980     1.9581480     0.0003170
  H        1.8167570    -2.1872720    -0.0000870
units angstrom
no_reorient  #important for SAPT in psi4, default
symmetry c1  #important for SAPT in psi4, default
}

set PROPERTIES_ORIGIN ["COM"]
properties('MP2/aug-cc-pvtz', properties = ['dipole'])
--------------------------------------------------------------------------

    Molecular point group: c1
  Charge       = 0
  Multiplicity = 1
  Basis Set: AUG-CC-PVTZ
    Blend: AUG-CC-PVTZ
  Basis Set: (AUG-CC-PVTZ AUX)
    Blend: AUG-CC-PVTZ-JKFIT

    Orbital Energies [Eh]
    ---------------------

    Doubly Occupied:

       1A    -20.546336     2A    -20.539450     3A    -15.646278
       4A    -15.627169     5A    -11.419808     6A    -11.380957
       7A    -11.356449     8A    -11.289729     9A    -11.257078
      10A     -1.429178    11A     -1.388783    12A     -1.312512
      13A     -1.246036    14A     -1.088772    15A     -0.989802
      16A     -0.919625    17A     -0.872416    18A     -0.771643
      19A     -0.751526    20A     -0.685764    21A     -0.674807
      22A     -0.656010    23A     -0.640090    24A     -0.615075
      25A     -0.608702    26A     -0.589546    27A     -0.570071
      28A     -0.554849    29A     -0.500090    30A     -0.478346
      31A     -0.446403    32A     -0.433694    33A     -0.361303

  @DF-RHF Final Energy:  -451.63781286019520

   => Energetics <=

    Nuclear Repulsion Energy =            440.2128148440712039
    One-Electron Energy =               -1488.4046645679925405
    Two-Electron Energy =                 596.5540368637260826
    Total Energy =                       -451.6378128601951403
  Basis Set: (AUG-CC-PVTZ AUX)
    Blend: AUG-CC-PVTZ-RI
    Molecular point group: c1

    Geometry (in Angstrom), charge = 0, multiplicity = 1:

       Center              X                  Y                   Z               Mass
    ------------   -----------------  -----------------  -----------------  -----------------
         O           -1.444428570586     1.818105945055     0.000019708276    15.994914619570
         O            2.858308429414     0.237665945055    -0.000061291724    15.994914619570
         N           -1.139461570586    -0.478126054945     0.000195708276    14.003074004430
         N            0.685039429414     0.961080945055     0.000278708276    14.003074004430
         C           -0.698871570586     0.842560945055    -0.000308291724    12.000000000000
         C           -0.254078570586    -1.538617054945     0.000040708276    12.000000000000
         C           -2.578100570586    -0.733809054945    -0.000074291724    12.000000000000
         C            1.089220429414    -1.380909054945     0.000072708276    12.000000000000
         C            1.660506429414    -0.042783054945    -0.000220291724    12.000000000000
         H           -0.813099870586    -2.696959254945     0.000200608276     1.007825032230
         H           -2.861244570586    -1.294819054945     0.893631708276     1.007825032230
         H           -2.860631570586    -1.295899054945    -0.893344291724     1.007825032230
         H           -3.078593570586     0.231666945055    -0.000819291724     1.007825032230
         H            1.024400429414     1.920655945055     0.000315708276     1.007825032230
         H            1.766859429414    -2.224764054945    -0.000088291724     1.007825032230

  Basis Set: AUG-CC-PVTZ
    Blend: AUG-CC-PVTZ
  Basis Set: (AUG-CC-PVTZ AUX)
    Blend: AUG-CC-PVTZ-JKFIT
	 Reference Energy          =    -451.6378128601951971 [Eh]
	 Singles Energy            =      -0.0000000000000000 [Eh]
	 Same-Spin Energy          =      -0.4588097808673233 [Eh]
	 Opposite-Spin Energy      =      -1.3871851965614761 [Eh]
	 Correlation Energy        =      -1.8459949774287994 [Eh]
	 Total Energy              =    -453.4838078376239991 [Eh]

	 ================> DF-SCS-MP2 Energies <==================
	-----------------------------------------------------------
	 SCS Same-Spin Scale       =       0.3333333333333333 [-]
	 SCS Opposite-Spin Scale   =       1.2000000000000000 [-]
	 SCS Same-Spin Energy      =      -0.1529365936224411 [Eh]
	 SCS Opposite-Spin Energy  =      -1.6646222358737712 [Eh]
	 SCS Correlation Energy    =      -1.8175588294962124 [Eh]
	 SCS Total Energy          =    -453.4553716896913897 [Eh]
	-----------------------------------------------------------

  Dipole Moment: [D]
     X:    -3.2271      Y:    -3.5030      Z:    -0.0009     Total:     4.7628

*** Psi4 exiting successfully. Buy a developer a beer!
