                               Psi4 1.3.2 release

  ==> Input File <==

--------------------------------------------------------------------------
#psi4
#
memory 32 gb

molecule  {
0 1
  O       -1.3945310     1.8555980     0.0000210
  O        2.9082060     0.2751580    -0.0000600
  N       -1.0895640    -0.4406340     0.0001970
  N        0.7349370     0.9985730     0.0002800
  C       -0.6499556     0.8921343    -0.0003088
  C       -0.2041810    -1.5011250     0.0000420
  C       -2.5282030    -0.6963170    -0.0000730
  C        1.1391180    -1.3434170     0.0000740
  C        1.7104040    -0.0052910    -0.0002190
  H       -0.6762750    -2.4793460     0.0001770
  H       -2.8113470    -1.2573270     0.8936330
  H       -2.8107340    -1.2584070    -0.8933430
  H       -3.0286960     0.2691590    -0.0008180
  H        1.0659113     1.9610729     0.0003130
  H        1.8167570    -2.1872720    -0.0000870
units angstrom
no_reorient  #important for SAPT in psi4, default
symmetry c1  #important for SAPT in psi4, default
}

set PROPERTIES_ORIGIN ["COM"]
properties('MP2/aug-cc-pvtz', properties = ['dipole'])
--------------------------------------------------------------------------

    Molecular point group: c1
  Charge       = 0
  Multiplicity = 1
  Basis Set: AUG-CC-PVTZ
    Blend: AUG-CC-PVTZ
  Basis Set: (AUG-CC-PVTZ AUX)
    Blend: AUG-CC-PVTZ-JKFIT

    Orbital Energies [Eh]
    ---------------------

    Doubly Occupied:

       1A    -20.548488     2A    -20.538386     3A    -15.642667
       4A    -15.626203     5A    -11.418844     6A    -11.379747
       7A    -11.336332     8A    -11.289111     9A    -11.254809
      10A     -1.432718    11A     -1.388798    12A     -1.311966
      13A     -1.245347    14A     -1.090122    15A     -0.987382
      16A     -0.928750    17A     -0.872828    18A     -0.769873
      19A     -0.751727    20A     -0.699748    21A     -0.684196
      22A     -0.660165    23A     -0.644673    24A     -0.615068
      25A     -0.609558    26A     -0.601934    27A     -0.570990
      28A     -0.555892    29A     -0.499331    30A     -0.482009
      31A     -0.446397    32A     -0.434042    33A     -0.359367

  @DF-RHF Final Energy:  -451.66078231062835

   => Energetics <=

    Nuclear Repulsion Energy =            441.1113014365122353
    One-Electron Energy =               -1490.1892361283798891
    Two-Electron Energy =                 597.4171523812391342
    Total Energy =                       -451.6607823106284059
  Basis Set: (AUG-CC-PVTZ AUX)
    Blend: AUG-CC-PVTZ-RI
    Molecular point group: c1

    Geometry (in Angstrom), charge = 0, multiplicity = 1:

       Center              X                  Y                   Z               Mass
    ------------   -----------------  -----------------  -----------------  -----------------
         O           -1.444963118491     1.815492120953     0.000020110728    15.994914619570
         O            2.857773881509     0.235052120953    -0.000060889272    15.994914619570
         N           -1.139996118491    -0.480739879047     0.000196110728    14.003074004430
         N            0.684504881509     0.958467120953     0.000279110728    14.003074004430
         C           -0.700387718491     0.852028420953    -0.000309689272    12.000000000000
         C           -0.254613118491    -1.541230879047     0.000041110728    12.000000000000
         C           -2.578635118491    -0.736422879047    -0.000073889272    12.000000000000
         C            1.088685881509    -1.383522879047     0.000073110728    12.000000000000
         C            1.659971881509    -0.045396879047    -0.000219889272    12.000000000000
         H           -0.726707118491    -2.519451879047     0.000176110728     1.007825032230
         H           -2.861779118491    -1.297432879047     0.893632110728     1.007825032230
         H           -2.861166118491    -1.298512879047    -0.893343889272     1.007825032230
         H           -3.079128118491     0.229053120953    -0.000818889272     1.007825032230
         H            1.015479181509     1.920967020953     0.000312110728     1.007825032230
         H            1.766324881509    -2.227377879047    -0.000087889272     1.007825032230

  Basis Set: AUG-CC-PVTZ
    Blend: AUG-CC-PVTZ
  Basis Set: (AUG-CC-PVTZ AUX)
    Blend: AUG-CC-PVTZ-JKFIT
	 Reference Energy          =    -451.6607823106283490 [Eh]
	 Singles Energy            =      -0.0000000000000000 [Eh]
	 Same-Spin Energy          =      -0.4579366801751882 [Eh]
	 Opposite-Spin Energy      =      -1.3845755298494242 [Eh]
	 Correlation Energy        =      -1.8425122100246125 [Eh]
	 Total Energy              =    -453.5032945206529575 [Eh]

	 ================> DF-SCS-MP2 Energies <==================
	-----------------------------------------------------------
	 SCS Same-Spin Scale       =       0.3333333333333333 [-]
	 SCS Opposite-Spin Scale   =       1.2000000000000000 [-]
	 SCS Same-Spin Energy      =      -0.1526455600583961 [Eh]
	 SCS Opposite-Spin Energy  =      -1.6614906358193091 [Eh]
	 SCS Correlation Energy    =      -1.8141361958777051 [Eh]
	 SCS Total Energy          =    -453.4749185065060715 [Eh]
	-----------------------------------------------------------

  Dipole Moment: [D]
     X:    -3.2749      Y:    -3.4264      Z:    -0.0009     Total:     4.7398

*** Psi4 exiting successfully. Buy a developer a beer!
