                               Psi4 1.4a3.dev225

  ==> Input File <==

--------------------------------------------------------------------------
#psi4
#
memory 32 gb

molecule  {
0 1
  O       -1.4350980    -1.8086910     0.0000000
  O        2.9075840    -0.3082450     0.0000000
  N       -1.0785060     0.4619330     0.0000000
  N        0.7249750    -1.0056720    -0.0000010
  C       -0.6517050    -0.8641080     0.0000000
  C       -0.1841290     1.5083600     0.0000000
  C       -2.5245930     0.6731660     0.0000000
  C        1.1582900     1.3329580     0.0000000
  C        1.7164880    -0.0081480     0.0000000
  H       -0.6338540     2.4967290    -0.0000010
  H       -2.9690000     0.2175100    -0.8862740
  H       -2.7140630     1.7465080     0.0000000
  H       -2.9689990     0.2175090     0.8862740
  H        1.0421822    -1.9193417    -0.0000000
  H        1.8360540     2.1766110     0.0000000
units angstrom
no_reorient  #important for SAPT in psi4, default
symmetry c1  #important for SAPT in psi4, default
}

set PROPERTIES_ORIGIN ["COM"]
properties('MP2/aug-cc-pvtz', properties = ['dipole'])
--------------------------------------------------------------------------

    Molecular point group: c1
  Charge       = 0
  Multiplicity = 1
  Basis Set: AUG-CC-PVTZ
    Blend: AUG-CC-PVTZ
  Basis Set: (AUG-CC-PVTZ AUX)
    Blend: AUG-CC-PVTZ-JKFIT

    Orbital Energies [Eh]
    ---------------------

    Doubly Occupied:

       1A    -20.546565     2A    -20.539113     3A    -15.645189
       4A    -15.622709     5A    -11.416764     6A    -11.380173
       7A    -11.338606     8A    -11.292923     9A    -11.253712
      10A     -1.430359    11A     -1.389629    12A     -1.312610
      13A     -1.251972    14A     -1.092065    15A     -0.989849
      16A     -0.934926    17A     -0.872937    18A     -0.779255
      19A     -0.755546    20A     -0.703601    21A     -0.686546
      22A     -0.659734    23A     -0.644170    24A     -0.611312
      25A     -0.608596    26A     -0.604167    27A     -0.579499
      28A     -0.551119    29A     -0.503627    30A     -0.480524
      31A     -0.446620    32A     -0.434124    33A     -0.358859

  @DF-RHF Final Energy:  -451.66104010101560

   => Energetics <=

    Nuclear Repulsion Energy =            441.9211301737848885
    One-Electron Energy =               -1491.7295393971892281
    Two-Electron Energy =                 598.1473691223887954
    Total Energy =                       -451.6610401010156011
  Basis Set: (AUG-CC-PVTZ AUX)
    Blend: AUG-CC-PVTZ-RI
    Molecular point group: c1

    Geometry (in Angstrom), charge = 0, multiplicity = 1:

       Center              X                  Y                   Z               Mass
    ------------   -----------------  -----------------  -----------------  -----------------
         O           -1.485209173391    -1.770661527153     0.000000119094    15.994914619570
         O            2.857472826609    -0.270215527153     0.000000119094    15.994914619570
         N           -1.128617173391     0.499962472847     0.000000119094    14.003074004430
         N            0.674863826609    -0.967642527153    -0.000000880906    14.003074004430
         C           -0.701816173391    -0.826078527153     0.000000119094    12.000000000000
         C           -0.234240173391     1.546389472847     0.000000119094    12.000000000000
         C           -2.574704173391     0.711195472847     0.000000119094    12.000000000000
         C            1.108178826609     1.370987472847     0.000000119094    12.000000000000
         C            1.666376826609     0.029881472847     0.000000119094    12.000000000000
         H           -0.683965173391     2.534758472847    -0.000000880906     1.007825032230
         H           -3.019111173391     0.255539472847    -0.886273880906     1.007825032230
         H           -2.764174173391     1.784537472847     0.000000119094     1.007825032230
         H           -3.019110173391     0.255538472847     0.886274119094     1.007825032230
         H            0.992071026609    -1.881312227153     0.000000119094     1.007825032230
         H            1.785942826609     2.214640472847     0.000000119094     1.007825032230

  Basis Set: AUG-CC-PVTZ
    Blend: AUG-CC-PVTZ
  Basis Set: (AUG-CC-PVTZ AUX)
    Blend: AUG-CC-PVTZ-JKFIT
	 Reference Energy          =    -451.6610401010156011 [Eh]
	 Singles Energy            =      -0.0000000000000000 [Eh]
	 Same-Spin Energy          =      -0.4576065207646000 [Eh]
	 Opposite-Spin Energy      =      -1.3838253152150350 [Eh]
	 Correlation Energy        =      -1.8414318359796351 [Eh]
	 Total Energy              =    -453.5024719369952209 [Eh]

	 ================> DF-SCS-MP2 Energies <==================
	-----------------------------------------------------------
	 SCS Same-Spin Scale       =       0.3333333333333333 [-]
	 SCS Opposite-Spin Scale   =       1.2000000000000000 [-]
	 SCS Same-Spin Energy      =      -0.1525355069215333 [Eh]
	 SCS Opposite-Spin Energy  =      -1.6605903782580420 [Eh]
	 SCS Correlation Energy    =      -1.8131258851795753 [Eh]
	 SCS Total Energy          =    -453.4741659861952030 [Eh]
	-----------------------------------------------------------

  Dipole Moment: [D]
     X:    -3.2420      Y:     3.6087      Z:     0.0000     Total:     4.8512

*** Psi4 exiting successfully. Buy a developer a beer!
