                               Psi4 1.3.2 release

  ==> Input File <==

--------------------------------------------------------------------------
#psi4
#
memory 32 gb

molecule  {
0 1
  O       -1.3945310     1.8555980     0.0000210
  O        2.9082060     0.2751580    -0.0000600
  N       -1.0895640    -0.4406340     0.0001970
  N        0.7349370     0.9985730     0.0002800
  C       -0.6489740     0.8800530    -0.0003070
  C       -0.0760040    -1.6546524     0.0000196
  C       -2.5282030    -0.6963170    -0.0000730
  C        1.1391180    -1.3434170     0.0000740
  C        1.7104040    -0.0052910    -0.0002190
  H       -0.6762750    -2.4793460     0.0001770
  H       -2.8113470    -1.2573270     0.8936330
  H       -2.8107340    -1.2584070    -0.8933430
  H       -3.0286960     0.2691590    -0.0008180
  H        1.0742980     1.9581480     0.0003170
  H        1.8167570    -2.1872720    -0.0000870
units angstrom
no_reorient  #important for SAPT in psi4, default
symmetry c1  #important for SAPT in psi4, default
}

set PROPERTIES_ORIGIN ["COM"]
properties('MP2/aug-cc-pvtz', properties = ['dipole'])
--------------------------------------------------------------------------

    Molecular point group: c1
  Charge       = 0
  Multiplicity = 1
  Basis Set: AUG-CC-PVTZ
    Blend: AUG-CC-PVTZ
  Basis Set: (AUG-CC-PVTZ AUX)
    Blend: AUG-CC-PVTZ-JKFIT

    Orbital Energies [Eh]
    ---------------------

    Doubly Occupied:

       1A    -20.554763     2A    -20.534182     3A    -15.625146
       4A    -15.621561     5A    -11.406874     6A    -11.394975
       7A    -11.332339     8A    -11.276442     9A    -11.264466
      10A     -1.418930    11A     -1.395072    12A     -1.278350
      13A     -1.227980    14A     -1.122880    15A     -0.971061
      16A     -0.926375    17A     -0.864819    18A     -0.770907
      19A     -0.747990    20A     -0.718535    21A     -0.666313
      22A     -0.657166    23A     -0.640667    24A     -0.624005
      25A     -0.610026    26A     -0.593831    27A     -0.554709
      28A     -0.535507    29A     -0.486414    30A     -0.477271
      31A     -0.452053    32A     -0.433230    33A     -0.381271

  @DF-RHF Final Energy:  -451.62130468141055

   => Energetics <=

    Nuclear Repulsion Energy =            438.7166807230667587
    One-Electron Energy =               -1485.5437427972910882
    Two-Electron Energy =                 595.2057573928138936
    Total Energy =                       -451.6213046814104928
  Basis Set: (AUG-CC-PVTZ AUX)
    Blend: AUG-CC-PVTZ-RI
    Molecular point group: c1

    Geometry (in Angstrom), charge = 0, multiplicity = 1:

       Center              X                  Y                   Z               Mass
    ------------   -----------------  -----------------  -----------------  -----------------
         O           -1.457326807258     1.831282393583     0.000022039981    15.994914619570
         O            2.845410192742     0.250842393583    -0.000058960019    15.994914619570
         N           -1.152359807258    -0.464949606417     0.000198039981    14.003074004430
         N            0.672141192742     0.974257393583     0.000281039981    14.003074004430
         C           -0.711769807258     0.855737393583    -0.000305960019    12.000000000000
         C           -0.138799807258    -1.678968006417     0.000020639981    12.000000000000
         C           -2.590998807258    -0.720632606417    -0.000071960019    12.000000000000
         C            1.076322192742    -1.367732606417     0.000075039981    12.000000000000
         C            1.647608192742    -0.029606606417    -0.000217960019    12.000000000000
         H           -0.739070807258    -2.503661606417     0.000178039981     1.007825032230
         H           -2.874142807258    -1.281642606417     0.893634039981     1.007825032230
         H           -2.873529807258    -1.282722606417    -0.893341960019     1.007825032230
         H           -3.091491807258     0.244843393583    -0.000816960019     1.007825032230
         H            1.011502192742     1.933832393583     0.000318039981     1.007825032230
         H            1.753961192742    -2.211587606417    -0.000085960019     1.007825032230

  Basis Set: AUG-CC-PVTZ
    Blend: AUG-CC-PVTZ
  Basis Set: (AUG-CC-PVTZ AUX)
    Blend: AUG-CC-PVTZ-JKFIT
	 Reference Energy          =    -451.6213046814105496 [Eh]
	 Singles Energy            =      -0.0000000000000000 [Eh]
	 Same-Spin Energy          =      -0.4568985202233713 [Eh]
	 Opposite-Spin Energy      =      -1.3858620650590163 [Eh]
	 Correlation Energy        =      -1.8427605852823876 [Eh]
	 Total Energy              =    -453.4640652666929554 [Eh]

	 ================> DF-SCS-MP2 Energies <==================
	-----------------------------------------------------------
	 SCS Same-Spin Scale       =       0.3333333333333333 [-]
	 SCS Opposite-Spin Scale   =       1.2000000000000000 [-]
	 SCS Same-Spin Energy      =      -0.1522995067411237 [Eh]
	 SCS Opposite-Spin Energy  =      -1.6630344780708195 [Eh]
	 SCS Correlation Energy    =      -1.8153339848119432 [Eh]
	 SCS Total Energy          =    -453.4366386662225068 [Eh]
	-----------------------------------------------------------

  Dipole Moment: [D]
     X:    -2.2420      Y:    -3.9909      Z:    -0.0009     Total:     4.5775

*** Psi4 exiting successfully. Buy a developer a beer!
