                               Psi4 1.3.2 release

  ==> Input File <==

--------------------------------------------------------------------------
#psi4
#
memory 32 gb

molecule  {
0 1
  O       -1.3945310     1.8555980     0.0000210
  O        2.9082060     0.2751580    -0.0000600
  N       -1.0895640    -0.4406340     0.0001970
  N        0.7349370     0.9985730     0.0002800
  C       -0.6489740     0.8800530    -0.0003070
  C       -0.2041810    -1.5011250     0.0000420
  C       -2.5282030    -0.6963170    -0.0000730
  C        1.1391180    -1.3434170     0.0000740
  C        1.6747754    -0.0387228    -0.0002121
  H       -0.6762750    -2.4793460     0.0001770
  H       -2.8113470    -1.2573270     0.8936330
  H       -2.8107340    -1.2584070    -0.8933430
  H       -3.0286960     0.2691590    -0.0008180
  H        1.0406026     1.9694070     0.0003305
  H        1.8167570    -2.1872720    -0.0000870
units angstrom
no_reorient  #important for SAPT in psi4, default
symmetry c1  #important for SAPT in psi4, default
}

set PROPERTIES_ORIGIN ["COM"]
properties('MP2/aug-cc-pvtz', properties = ['dipole'])
--------------------------------------------------------------------------

    Molecular point group: c1
  Charge       = 0
  Multiplicity = 1
  Basis Set: AUG-CC-PVTZ
    Blend: AUG-CC-PVTZ
  Basis Set: (AUG-CC-PVTZ AUX)
    Blend: AUG-CC-PVTZ-JKFIT

    Orbital Energies [Eh]
    ---------------------

    Doubly Occupied:

       1A    -20.547110     2A    -20.529766     3A    -15.649165
       4A    -15.629181     5A    -11.418899     6A    -11.379487
       7A    -11.344059     8A    -11.292751     9A    -11.256699
      10A     -1.429669    11A     -1.363633    12A     -1.314072
      13A     -1.242447    14A     -1.101317    15A     -0.992236
      16A     -0.939619    17A     -0.872059    18A     -0.773613
      19A     -0.759804    20A     -0.703127    21A     -0.687977
      22A     -0.657817    23A     -0.640110    24A     -0.614556
      25A     -0.613788    26A     -0.593144    27A     -0.575395
      28A     -0.547390    29A     -0.501962    30A     -0.480264
      31A     -0.440835    32A     -0.427827    33A     -0.363103

  @DF-RHF Final Energy:  -451.65241399843467

   => Energetics <=

    Nuclear Repulsion Energy =            441.3503498569936596
    One-Electron Energy =               -1490.6397651853581010
    Two-Electron Energy =                 597.6370013299297170
    Total Energy =                       -451.6524139984346675
  Basis Set: (AUG-CC-PVTZ AUX)
    Blend: AUG-CC-PVTZ-RI
    Molecular point group: c1

    Geometry (in Angstrom), charge = 0, multiplicity = 1:

       Center              X                  Y                   Z               Mass
    ------------   -----------------  -----------------  -----------------  -----------------
         O           -1.441462162504     1.819758587119     0.000019142510    15.994914619570
         O            2.861274837496     0.239318587119    -0.000061857490    15.994914619570
         N           -1.136495162504    -0.476473412881     0.000195142510    14.003074004430
         N            0.688005837496     0.962733587119     0.000278142510    14.003074004430
         C           -0.695905162504     0.844213587119    -0.000308857490    12.000000000000
         C           -0.251112162504    -1.536964412881     0.000040142510    12.000000000000
         C           -2.575134162504    -0.732156412881    -0.000074857490    12.000000000000
         C            1.092186837496    -1.379256412881     0.000072142510    12.000000000000
         C            1.627844237496    -0.074562212881    -0.000213957490    12.000000000000
         H           -0.723206162504    -2.515185412881     0.000175142510     1.007825032230
         H           -2.858278162504    -1.293166412881     0.893631142510     1.007825032230
         H           -2.857665162504    -1.294246412881    -0.893344857490     1.007825032230
         H           -3.075627162504     0.233319587119    -0.000819857490     1.007825032230
         H            0.993671437496     1.933567587119     0.000328642510     1.007825032230
         H            1.769825837496    -2.223111412881    -0.000088857490     1.007825032230

  Basis Set: AUG-CC-PVTZ
    Blend: AUG-CC-PVTZ
  Basis Set: (AUG-CC-PVTZ AUX)
    Blend: AUG-CC-PVTZ-JKFIT
	 Reference Energy          =    -451.6524139984346675 [Eh]
	 Singles Energy            =      -0.0000000000000000 [Eh]
	 Same-Spin Energy          =      -0.4594512017100812 [Eh]
	 Opposite-Spin Energy      =      -1.3870960155508794 [Eh]
	 Correlation Energy        =      -1.8465472172609605 [Eh]
	 Total Energy              =    -453.4989612156956014 [Eh]

	 ================> DF-SCS-MP2 Energies <==================
	-----------------------------------------------------------
	 SCS Same-Spin Scale       =       0.3333333333333333 [-]
	 SCS Opposite-Spin Scale   =       1.2000000000000000 [-]
	 SCS Same-Spin Energy      =      -0.1531504005700270 [Eh]
	 SCS Opposite-Spin Energy  =      -1.6645152186610552 [Eh]
	 SCS Correlation Energy    =      -1.8176656192310823 [Eh]
	 SCS Total Energy          =    -453.4700796176657605 [Eh]
	-----------------------------------------------------------

  Dipole Moment: [D]
     X:    -3.6140      Y:    -3.6930      Z:    -0.0008     Total:     5.1671

*** Psi4 exiting successfully. Buy a developer a beer!
