                               Psi4 1.4a3.dev225

  ==> Input File <==

--------------------------------------------------------------------------
#psi4
#
memory 32 gb

molecule  {
0 1
  O       -1.4350980    -1.8086910     0.0000000
  O        2.9075840    -0.3082450     0.0000000
  N       -1.0785060     0.4619330     0.0000000
  N        0.7249750    -1.0056720    -0.0000010
  C       -0.6517050    -0.8641080     0.0000000
  C       -0.1841290     1.5083600     0.0000000
  C       -2.5245930     0.6731660     0.0000000
  C        1.1582900     1.3329580     0.0000000
  C        1.7023887    -0.0223328    -0.0000000
  H       -0.6338540     2.4967290    -0.0000010
  H       -2.9690000     0.2175100    -0.8862740
  H       -2.7140630     1.7465080     0.0000000
  H       -2.9689990     0.2175090     0.8862740
  H        1.0585810    -1.9665760     0.0000000
  H        1.8360540     2.1766110     0.0000000
units angstrom
no_reorient  #important for SAPT in psi4, default
symmetry c1  #important for SAPT in psi4, default
}

set PROPERTIES_ORIGIN ["COM"]
properties('MP2/aug-cc-pvtz', properties = ['dipole'])
--------------------------------------------------------------------------

    Molecular point group: c1
  Charge       = 0
  Multiplicity = 1
  Basis Set: AUG-CC-PVTZ
    Blend: AUG-CC-PVTZ
  Basis Set: (AUG-CC-PVTZ AUX)
    Blend: AUG-CC-PVTZ-JKFIT

    Orbital Energies [Eh]
    ---------------------

    Doubly Occupied:

       1A    -20.547949     2A    -20.535652     3A    -15.645457
       4A    -15.630045     5A    -11.418353     6A    -11.379359
       7A    -11.336997     8A    -11.293146     9A    -11.254086
      10A     -1.431045    11A     -1.383079    12A     -1.312874
      13A     -1.251123    14A     -1.090315    15A     -0.990203
      16A     -0.930789    17A     -0.877296    18A     -0.774752
      19A     -0.751794    20A     -0.701274    21A     -0.687500
      22A     -0.659207    23A     -0.642458    24A     -0.612203
      25A     -0.608825    26A     -0.598936    27A     -0.579234
      28A     -0.549057    29A     -0.503852    30A     -0.480508
      31A     -0.444897    32A     -0.433404    33A     -0.358032

  @DF-RHF Final Energy:  -451.66056515040788

   => Energetics <=

    Nuclear Repulsion Energy =            441.7289883417653868
    One-Electron Energy =               -1491.3917100061710244
    Two-Electron Energy =                 598.0021565139976474
    Total Energy =                       -451.6605651504079333
  Basis Set: (AUG-CC-PVTZ AUX)
    Blend: AUG-CC-PVTZ-RI
    Molecular point group: c1

    Geometry (in Angstrom), charge = 0, multiplicity = 1:

       Center              X                  Y                   Z               Mass
    ------------   -----------------  -----------------  -----------------  -----------------
         O           -1.483997963195    -1.768933373783     0.000000119094    15.994914619570
         O            2.858684036805    -0.268487373783     0.000000119094    15.994914619570
         N           -1.127405963195     0.501690626217     0.000000119094    14.003074004430
         N            0.676075036805    -0.965914373783    -0.000000880906    14.003074004430
         C           -0.700604963195    -0.824350373783     0.000000119094    12.000000000000
         C           -0.233028963195     1.548117626217     0.000000119094    12.000000000000
         C           -2.573492963195     0.712923626217     0.000000119094    12.000000000000
         C            1.109390036805     1.372715626217     0.000000119094    12.000000000000
         C            1.653488736805     0.017424826217     0.000000119094    12.000000000000
         H           -0.682753963195     2.536486626217    -0.000000880906     1.007825032230
         H           -3.017899963195     0.257267626217    -0.886273880906     1.007825032230
         H           -2.762962963195     1.786265626217     0.000000119094     1.007825032230
         H           -3.017898963195     0.257266626217     0.886274119094     1.007825032230
         H            1.009681036805    -1.926818373783     0.000000119094     1.007825032230
         H            1.787154036805     2.216368626217     0.000000119094     1.007825032230

  Basis Set: AUG-CC-PVTZ
    Blend: AUG-CC-PVTZ
  Basis Set: (AUG-CC-PVTZ AUX)
    Blend: AUG-CC-PVTZ-JKFIT
	 Reference Energy          =    -451.6605651504078764 [Eh]
	 Singles Energy            =      -0.0000000000000000 [Eh]
	 Same-Spin Energy          =      -0.4581351273429536 [Eh]
	 Opposite-Spin Energy      =      -1.3848749686658628 [Eh]
	 Correlation Energy        =      -1.8430100960088165 [Eh]
	 Total Energy              =    -453.5035752464166876 [Eh]

	 ================> DF-SCS-MP2 Energies <==================
	-----------------------------------------------------------
	 SCS Same-Spin Scale       =       0.3333333333333333 [-]
	 SCS Opposite-Spin Scale   =       1.2000000000000000 [-]
	 SCS Same-Spin Energy      =      -0.1527117091143179 [Eh]
	 SCS Opposite-Spin Energy  =      -1.6618499623990353 [Eh]
	 SCS Correlation Energy    =      -1.8145616715133530 [Eh]
	 SCS Total Energy          =    -453.4751268219212079 [Eh]
	-----------------------------------------------------------

  Dipole Moment: [D]
     X:    -3.3371      Y:     3.4812      Z:     0.0000     Total:     4.8223

*** Psi4 exiting successfully. Buy a developer a beer!
