                               Psi4 1.3.2 release

  ==> Input File <==

--------------------------------------------------------------------------
#psi4
#
memory 32 gb

molecule  {
0 1
  O       -1.3945310     1.8555980     0.0000210
  O        2.9082060     0.2751580    -0.0000600
  N       -1.0895640    -0.4406340     0.0001970
  N        0.7349370     0.9985730     0.0002800
  C       -0.6489740     0.8800530    -0.0003070
  C       -0.2067288    -1.4776572     0.0000465
  C       -2.5282030    -0.6963170    -0.0000730
  C        1.1391180    -1.3434170     0.0000740
  C        1.7104040    -0.0052910    -0.0002190
  H       -0.6762750    -2.4793460     0.0001770
  H       -2.8113470    -1.2573270     0.8936330
  H       -2.8107340    -1.2584070    -0.8933430
  H       -3.0286960     0.2691590    -0.0008180
  H        1.0742980     1.9581480     0.0003170
  H        1.8313811    -2.1753170    -0.0000847
units angstrom
no_reorient  #important for SAPT in psi4, default
symmetry c1  #important for SAPT in psi4, default
}

set PROPERTIES_ORIGIN ["COM"]
properties('MP2/aug-cc-pvtz', properties = ['dipole'])
--------------------------------------------------------------------------

    Molecular point group: c1
  Charge       = 0
  Multiplicity = 1
  Basis Set: AUG-CC-PVTZ
    Blend: AUG-CC-PVTZ
  Basis Set: (AUG-CC-PVTZ AUX)
    Blend: AUG-CC-PVTZ-JKFIT

    Orbital Energies [Eh]
    ---------------------

    Doubly Occupied:

       1A    -20.546525     2A    -20.537189     3A    -15.646404
       4A    -15.626552     5A    -11.419329     6A    -11.377885
       7A    -11.337315     8A    -11.291657     9A    -11.254144
      10A     -1.429943    11A     -1.387140    12A     -1.317686
      13A     -1.246534    14A     -1.090511    15A     -0.991974
      16A     -0.931359    17A     -0.872807    18A     -0.772776
      19A     -0.753417    20A     -0.695878    21A     -0.687786
      22A     -0.658461    23A     -0.643806    24A     -0.615518
      25A     -0.611018    26A     -0.599492    27A     -0.574252
      28A     -0.554088    29A     -0.502807    30A     -0.479795
      31A     -0.444799    32A     -0.432962    33A     -0.359377

  @DF-RHF Final Energy:  -451.66013740196053

   => Energetics <=

    Nuclear Repulsion Energy =            441.6476725043012834
    One-Electron Energy =               -1491.2332504389487440
    Two-Electron Energy =                 597.9254405326870483
    Total Energy =                       -451.6601374019604691
  Basis Set: (AUG-CC-PVTZ AUX)
    Blend: AUG-CC-PVTZ-RI
    Molecular point group: c1

    Geometry (in Angstrom), charge = 0, multiplicity = 1:

       Center              X                  Y                   Z               Mass
    ------------   -----------------  -----------------  -----------------  -----------------
         O           -1.444997999149     1.814335858053     0.000019460558    15.994914619570
         O            2.857739000851     0.233895858053    -0.000061539442    15.994914619570
         N           -1.140030999149    -0.481896141947     0.000195460558    14.003074004430
         N            0.684470000851     0.957310858053     0.000278460558    14.003074004430
         C           -0.699440999149     0.838790858053    -0.000308539442    12.000000000000
         C           -0.257195799149    -1.518919341947     0.000044960558    12.000000000000
         C           -2.578669999149    -0.737579141947    -0.000074539442    12.000000000000
         C            1.088651000851    -1.384679141947     0.000072460558    12.000000000000
         C            1.659937000851    -0.046553141947    -0.000220539442    12.000000000000
         H           -0.726741999149    -2.520608141947     0.000175460558     1.007825032230
         H           -2.861813999149    -1.298589141947     0.893631460558     1.007825032230
         H           -2.861200999149    -1.299669141947    -0.893344539442     1.007825032230
         H           -3.079162999149     0.227896858053    -0.000819539442     1.007825032230
         H            1.023831000851     1.916885858053     0.000315460558     1.007825032230
         H            1.780914100851    -2.216579141947    -0.000086239442     1.007825032230

  Basis Set: AUG-CC-PVTZ
    Blend: AUG-CC-PVTZ
  Basis Set: (AUG-CC-PVTZ AUX)
    Blend: AUG-CC-PVTZ-JKFIT
	 Reference Energy          =    -451.6601374019605259 [Eh]
	 Singles Energy            =      -0.0000000000000000 [Eh]
	 Same-Spin Energy          =      -0.4581971468302524 [Eh]
	 Opposite-Spin Energy      =      -1.3846967838389841 [Eh]
	 Correlation Energy        =      -1.8428939306692365 [Eh]
	 Total Energy              =    -453.5030313326297460 [Eh]

	 ================> DF-SCS-MP2 Energies <==================
	-----------------------------------------------------------
	 SCS Same-Spin Scale       =       0.3333333333333333 [-]
	 SCS Opposite-Spin Scale   =       1.2000000000000000 [-]
	 SCS Same-Spin Energy      =      -0.1527323822767508 [Eh]
	 SCS Opposite-Spin Energy  =      -1.6616361406067808 [Eh]
	 SCS Correlation Energy    =      -1.8143685228835316 [Eh]
	 SCS Total Energy          =    -453.4745059248440384 [Eh]
	-----------------------------------------------------------

  Dipole Moment: [D]
     X:    -3.3265      Y:    -3.4886      Z:    -0.0009     Total:     4.8204

*** Psi4 exiting successfully. Buy a developer a beer!
