                               Psi4 1.3.2 release

  ==> Input File <==

--------------------------------------------------------------------------
#psi4
#
memory 32 gb

molecule  {
0 1
  O       -1.3945310     1.8555980     0.0000210
  O        2.9082060     0.2751580    -0.0000600
  N       -1.0895640    -0.4406340     0.0001970
  N        0.7349370     0.9985730     0.0002800
  C       -0.6489740     0.8800530    -0.0003070
  C       -0.2041810    -1.5011250     0.0000420
  C       -2.5282030    -0.6963170    -0.0000730
  C        1.1391180    -1.3434170     0.0000740
  C        1.7796532    -0.0370237    -0.0002396
  H       -0.6762750    -2.4793460     0.0001770
  H       -2.8113470    -1.2573270     0.8936330
  H       -2.8107340    -1.2584070    -0.8933430
  H       -3.0286960     0.2691590    -0.0008180
  H        1.0742980     1.9581480     0.0003170
  H        1.8599923    -2.1506506    -0.0001042
units angstrom
no_reorient  #important for SAPT in psi4, default
symmetry c1  #important for SAPT in psi4, default
}

set PROPERTIES_ORIGIN ["COM"]
properties('MP2/aug-cc-pvtz', properties = ['dipole'])
--------------------------------------------------------------------------

    Molecular point group: c1
  Charge       = 0
  Multiplicity = 1
  Basis Set: AUG-CC-PVTZ
    Blend: AUG-CC-PVTZ
  Basis Set: (AUG-CC-PVTZ AUX)
    Blend: AUG-CC-PVTZ-JKFIT

    Orbital Energies [Eh]
    ---------------------

    Doubly Occupied:

       1A    -20.554155     2A    -20.537388     3A    -15.640261
       4A    -15.611515     5A    -11.410134     6A    -11.380464
       7A    -11.338791     8A    -11.286901     9A    -11.254736
      10A     -1.438427    11A     -1.413052    12A     -1.307274
      13A     -1.226951    14A     -1.088708    15A     -0.984400
      16A     -0.928960    17A     -0.855173    18A     -0.765198
      19A     -0.747968    20A     -0.700689    21A     -0.679509
      22A     -0.662916    23A     -0.644892    24A     -0.613633
      25A     -0.612540    26A     -0.606348    27A     -0.568826
      28A     -0.566353    29A     -0.496024    30A     -0.480276
      31A     -0.445669    32A     -0.430305    33A     -0.360681

  @DF-RHF Final Energy:  -451.65580725020976

   => Energetics <=

    Nuclear Repulsion Energy =            440.7138124584715797
    One-Electron Energy =               -1489.4610056356768837
    Two-Electron Energy =                 597.0913859269953718
    Total Energy =                       -451.6558072502098184
  Basis Set: (AUG-CC-PVTZ AUX)
    Blend: AUG-CC-PVTZ-RI
    Molecular point group: c1

    Geometry (in Angstrom), charge = 0, multiplicity = 1:

       Center              X                  Y                   Z               Mass
    ------------   -----------------  -----------------  -----------------  -----------------
         O           -1.452062251794     1.819394028293     0.000022006140    15.994914619570
         O            2.850674748206     0.238954028293    -0.000058993860    15.994914619570
         N           -1.147095251794    -0.476837971707     0.000198006140    14.003074004430
         N            0.677405748206     0.962369028293     0.000281006140    14.003074004430
         C           -0.706505251794     0.843849028293    -0.000305993860    12.000000000000
         C           -0.261712251794    -1.537328971707     0.000043006140    12.000000000000
         C           -2.585734251794    -0.732520971707    -0.000071993860    12.000000000000
         C            1.081586748206    -1.379620971707     0.000075006140    12.000000000000
         C            1.722121948206    -0.073227671707    -0.000238593860    12.000000000000
         H           -0.733806251794    -2.515549971707     0.000178006140     1.007825032230
         H           -2.868878251794    -1.293530971707     0.893634006140     1.007825032230
         H           -2.868265251794    -1.294610971707    -0.893341993860     1.007825032230
         H           -3.086227251794     0.232955028293    -0.000816993860     1.007825032230
         H            1.016766748206     1.921944028293     0.000318006140     1.007825032230
         H            1.802461048206    -2.186854571707    -0.000103193860     1.007825032230

  Basis Set: AUG-CC-PVTZ
    Blend: AUG-CC-PVTZ
  Basis Set: (AUG-CC-PVTZ AUX)
    Blend: AUG-CC-PVTZ-JKFIT
	 Reference Energy          =    -451.6558072502097616 [Eh]
	 Singles Energy            =      -0.0000000000000000 [Eh]
	 Same-Spin Energy          =      -0.4571291676004193 [Eh]
	 Opposite-Spin Energy      =      -1.3831337444872638 [Eh]
	 Correlation Energy        =      -1.8402629120876832 [Eh]
	 Total Energy              =    -453.4960701622974284 [Eh]

	 ================> DF-SCS-MP2 Energies <==================
	-----------------------------------------------------------
	 SCS Same-Spin Scale       =       0.3333333333333333 [-]
	 SCS Opposite-Spin Scale   =       1.2000000000000000 [-]
	 SCS Same-Spin Energy      =      -0.1523763892001398 [Eh]
	 SCS Opposite-Spin Energy  =      -1.6597604933847165 [Eh]
	 SCS Correlation Energy    =      -1.8121368825848563 [Eh]
	 SCS Total Energy          =    -453.4679441327946279 [Eh]
	-----------------------------------------------------------

  Dipole Moment: [D]
     X:    -2.5709      Y:    -3.6994      Z:    -0.0010     Total:     4.5050

*** Psi4 exiting successfully. Buy a developer a beer!
