                               Psi4 1.3.2 release

  ==> Input File <==

--------------------------------------------------------------------------
#psi4
#
memory 32 gb

molecule  {
0 1
  O       -1.3945310     1.8555980     0.0000210
  O        2.9082060     0.2751580    -0.0000600
  N       -1.0895640    -0.4406340     0.0001970
  N        0.7349370     0.9985730     0.0002800
  C       -0.6522672     0.9284230    -0.0003140
  C       -0.2041810    -1.5011250     0.0000420
  C       -2.5282030    -0.6963170    -0.0000730
  C        1.1391180    -1.3434170     0.0000740
  C        1.7104040    -0.0052910    -0.0002190
  H       -0.6762750    -2.4793460     0.0001770
  H       -2.8113470    -1.2573270     0.8936330
  H       -2.8107340    -1.2584070    -0.8933430
  H       -3.0286960     0.2691590    -0.0008180
  H        1.0406026     1.9694070     0.0003011
  H        1.8167570    -2.1872720    -0.0000870
units angstrom
no_reorient  #important for SAPT in psi4, default
symmetry c1  #important for SAPT in psi4, default
}

set PROPERTIES_ORIGIN ["COM"]
properties('MP2/aug-cc-pvtz', properties = ['dipole'])
--------------------------------------------------------------------------

    Molecular point group: c1
  Charge       = 0
  Multiplicity = 1
  Basis Set: AUG-CC-PVTZ
    Blend: AUG-CC-PVTZ
  Basis Set: (AUG-CC-PVTZ AUX)
    Blend: AUG-CC-PVTZ-JKFIT

    Orbital Energies [Eh]
    ---------------------

    Doubly Occupied:

       1A    -20.557458     2A    -20.537140     3A    -15.636965
       4A    -15.625252     5A    -11.419667     6A    -11.379481
       7A    -11.333833     8A    -11.286446     9A    -11.250791
      10A     -1.449774    11A     -1.389806    12A     -1.309117
      13A     -1.244221    14A     -1.086953    15A     -0.980975
      16A     -0.922715    17A     -0.874234    18A     -0.764088
      19A     -0.749939    20A     -0.700857    21A     -0.681888
      22A     -0.668699    23A     -0.643726    24A     -0.615891
      25A     -0.607249    26A     -0.601248    27A     -0.568300
      28A     -0.561780    29A     -0.498126    30A     -0.487127
      31A     -0.446743    32A     -0.436723    33A     -0.355373

  @DF-RHF Final Energy:  -451.65849328242246

   => Energetics <=

    Nuclear Repulsion Energy =            440.9384728947799204
    One-Electron Energy =               -1489.8487624301983487
    Two-Electron Energy =                 597.2517962529960869
    Total Energy =                       -451.6584932824224552
  Basis Set: (AUG-CC-PVTZ AUX)
    Blend: AUG-CC-PVTZ-RI
    Molecular point group: c1

    Geometry (in Angstrom), charge = 0, multiplicity = 1:

       Center              X                  Y                   Z               Mass
    ------------   -----------------  -----------------  -----------------  -----------------
         O           -1.444540675578     1.811970592823     0.000020700948    15.994914619570
         O            2.858196324422     0.231530592823    -0.000060299052    15.994914619570
         N           -1.139573675578    -0.484261407177     0.000196700948    14.003074004430
         N            0.684927324422     0.954945592823     0.000279700948    14.003074004430
         C           -0.702276875578     0.884795592823    -0.000314299052    12.000000000000
         C           -0.254190675578    -1.544752407177     0.000041700948    12.000000000000
         C           -2.578212675578    -0.739944407177    -0.000073299052    12.000000000000
         C            1.089108324422    -1.387044407177     0.000073700948    12.000000000000
         C            1.660394324422    -0.048918407177    -0.000219299052    12.000000000000
         H           -0.726284675578    -2.522973407177     0.000176700948     1.007825032230
         H           -2.861356675578    -1.300954407177     0.893632700948     1.007825032230
         H           -2.860743675578    -1.302034407177    -0.893343299052     1.007825032230
         H           -3.078705675578     0.225531592823    -0.000818299052     1.007825032230
         H            0.990592924422     1.925779592823     0.000300800948     1.007825032230
         H            1.766747324422    -2.230899407177    -0.000087299052     1.007825032230

  Basis Set: AUG-CC-PVTZ
    Blend: AUG-CC-PVTZ
  Basis Set: (AUG-CC-PVTZ AUX)
    Blend: AUG-CC-PVTZ-JKFIT
	 Reference Energy          =    -451.6584932824224552 [Eh]
	 Singles Energy            =      -0.0000000000000000 [Eh]
	 Same-Spin Energy          =      -0.4576402458984618 [Eh]
	 Opposite-Spin Energy      =      -1.3839522182856254 [Eh]
	 Correlation Energy        =      -1.8415924641840871 [Eh]
	 Total Energy              =    -453.5000857466065440 [Eh]

	 ================> DF-SCS-MP2 Energies <==================
	-----------------------------------------------------------
	 SCS Same-Spin Scale       =       0.3333333333333333 [-]
	 SCS Opposite-Spin Scale   =       1.2000000000000000 [-]
	 SCS Same-Spin Energy      =      -0.1525467486328206 [Eh]
	 SCS Opposite-Spin Energy  =      -1.6607426619427506 [Eh]
	 SCS Correlation Energy    =      -1.8132894105755710 [Eh]
	 SCS Total Energy          =    -453.4717826929980333 [Eh]
	-----------------------------------------------------------

  Dipole Moment: [D]
     X:    -3.3922      Y:    -3.0804      Z:    -0.0010     Total:     4.5821

*** Psi4 exiting successfully. Buy a developer a beer!
