                               Psi4 1.3.2 release

  ==> Input File <==

--------------------------------------------------------------------------
#psi4
#
memory 32 gb

molecule  {
0 1
  O       -1.3945310     1.8555980     0.0000210
  O        2.9082060     0.2751580    -0.0000600
  N       -1.0895640    -0.4406340     0.0001970
  N        0.7349370     0.9985730     0.0002800
  C       -0.6439947     0.8318274    -0.0003457
  C       -0.2041810    -1.5011250     0.0000420
  C       -2.5282030    -0.6963170    -0.0000730
  C        1.1391180    -1.3434170     0.0000740
  C        1.6747754    -0.0387228    -0.0002596
  H       -0.6762750    -2.4793460     0.0001770
  H       -2.8113470    -1.2573270     0.8936330
  H       -2.8107340    -1.2584070    -0.8933430
  H       -3.0286960     0.2691590    -0.0008180
  H        1.0742980     1.9581480     0.0003170
  H        1.8167570    -2.1872720    -0.0000870
units angstrom
no_reorient  #important for SAPT in psi4, default
symmetry c1  #important for SAPT in psi4, default
}

set PROPERTIES_ORIGIN ["COM"]
properties('MP2/aug-cc-pvtz', properties = ['dipole'])
--------------------------------------------------------------------------

    Molecular point group: c1
  Charge       = 0
  Multiplicity = 1
  Basis Set: AUG-CC-PVTZ
    Blend: AUG-CC-PVTZ
  Basis Set: (AUG-CC-PVTZ AUX)
    Blend: AUG-CC-PVTZ-JKFIT

    Orbital Energies [Eh]
    ---------------------

    Doubly Occupied:

       1A    -20.535104     2A    -20.531686     3A    -15.655904
       4A    -15.630990     5A    -11.417366     6A    -11.380010
       7A    -11.347128     8A    -11.296215     9A    -11.262148
      10A     -1.418646    11A     -1.360752    12A     -1.312157
      13A     -1.242686    14A     -1.105311    15A     -1.001676
      16A     -0.947367    17A     -0.870196    18A     -0.782344
      19A     -0.761901    20A     -0.705410    21A     -0.693185
      22A     -0.650031    23A     -0.640340    24A     -0.614183
      25A     -0.613486    26A     -0.593949    27A     -0.577394
      28A     -0.542219    29A     -0.501467    30A     -0.470732
      31A     -0.439851    32A     -0.423692    33A     -0.367813

  @DF-RHF Final Energy:  -451.64695155022554

   => Energetics <=

    Nuclear Repulsion Energy =            441.6463581752872187
    One-Electron Energy =               -1491.1999405491771995
    Two-Electron Energy =                 597.9066308236645000
    Total Energy =                       -451.6469515502255945
  Basis Set: (AUG-CC-PVTZ AUX)
    Blend: AUG-CC-PVTZ-RI
    Molecular point group: c1

    Geometry (in Angstrom), charge = 0, multiplicity = 1:

       Center              X                  Y                   Z               Mass
    ------------   -----------------  -----------------  -----------------  -----------------
         O           -1.442205644661     1.824439962854     0.000027457183    15.994914619570
         O            2.860531355339     0.243999962854    -0.000053542817    15.994914619570
         N           -1.137238644661    -0.471792037146     0.000203457183    14.003074004430
         N            0.687262355339     0.967414962854     0.000286457183    14.003074004430
         C           -0.691669344661     0.800669362854    -0.000339242817    12.000000000000
         C           -0.251855644661    -1.532283037146     0.000048457183    12.000000000000
         C           -2.575877644661    -0.727475037146    -0.000066542817    12.000000000000
         C            1.091443355339    -1.374575037146     0.000080457183    12.000000000000
         C            1.627100755339    -0.069880837146    -0.000253142817    12.000000000000
         H           -0.723949644661    -2.510504037146     0.000183457183     1.007825032230
         H           -2.859021644661    -1.288485037146     0.893639457183     1.007825032230
         H           -2.858408644661    -1.289565037146    -0.893336542817     1.007825032230
         H           -3.076370644661     0.238000962854    -0.000811542817     1.007825032230
         H            1.026623355339     1.926989962854     0.000323457183     1.007825032230
         H            1.769082355339    -2.218430037146    -0.000080542817     1.007825032230

  Basis Set: AUG-CC-PVTZ
    Blend: AUG-CC-PVTZ
  Basis Set: (AUG-CC-PVTZ AUX)
    Blend: AUG-CC-PVTZ-JKFIT
	 Reference Energy          =    -451.6469515502255376 [Eh]
	 Singles Energy            =      -0.0000000000000000 [Eh]
	 Same-Spin Energy          =      -0.4599589715077888 [Eh]
	 Opposite-Spin Energy      =      -1.3881821077070868 [Eh]
	 Correlation Energy        =      -1.8481410792148756 [Eh]
	 Total Energy              =    -453.4950926294404212 [Eh]

	 ================> DF-SCS-MP2 Energies <==================
	-----------------------------------------------------------
	 SCS Same-Spin Scale       =       0.3333333333333333 [-]
	 SCS Opposite-Spin Scale   =       1.2000000000000000 [-]
	 SCS Same-Spin Energy      =      -0.1533196571692629 [Eh]
	 SCS Opposite-Spin Energy  =      -1.6658185292485042 [Eh]
	 SCS Correlation Energy    =      -1.8191381864177671 [Eh]
	 SCS Total Energy          =    -453.4660897366433119 [Eh]
	-----------------------------------------------------------

  Dipole Moment: [D]
     X:    -3.4441      Y:    -4.1329      Z:    -0.0008     Total:     5.3799

*** Psi4 exiting successfully. Buy a developer a beer!
