                               Psi4 1.3.2 release

  ==> Input File <==

--------------------------------------------------------------------------
#psi4
#
memory 32 gb

molecule  {
0 1
  O       -1.3945310     1.8555980     0.0000210
  O        2.9082060     0.2751580    -0.0000600
  N       -1.0895640    -0.4406340     0.0001970
  N        0.7349370     0.9985730     0.0002800
  C       -0.7122662     0.6903319    -0.0002346
  C       -0.2041810    -1.5011250     0.0000420
  C       -2.5282030    -0.6963170    -0.0000730
  C        1.1391180    -1.3434170     0.0000740
  C        1.7104040    -0.0052910    -0.0002190
  H       -0.6762750    -2.4793460     0.0001770
  H       -2.8113470    -1.2573270     0.8936330
  H       -2.8107340    -1.2584070    -0.8933430
  H       -3.0286960     0.2691590    -0.0008180
  H        1.0742980     1.9581480     0.0003170
  H        1.8167570    -2.1872720    -0.0000870
units angstrom
no_reorient  #important for SAPT in psi4, default
symmetry c1  #important for SAPT in psi4, default
}

set PROPERTIES_ORIGIN ["COM"]
properties('MP2/aug-cc-pvtz', properties = ['dipole'])
--------------------------------------------------------------------------

    Molecular point group: c1
  Charge       = 0
  Multiplicity = 1
  Basis Set: AUG-CC-PVTZ
    Blend: AUG-CC-PVTZ
  Basis Set: (AUG-CC-PVTZ AUX)
    Blend: AUG-CC-PVTZ-JKFIT

    Orbital Energies [Eh]
    ---------------------

    Doubly Occupied:

       1A    -20.537344     2A    -20.509648     3A    -15.669213
       4A    -15.619056     5A    -11.406947     6A    -11.375554
       7A    -11.348054     8A    -11.306413     9A    -11.279972
      10A     -1.440954    11A     -1.386603    12A     -1.284692
      13A     -1.221033    14A     -1.109651    15A     -1.034761
      16A     -0.960820    17A     -0.849096    18A     -0.790508
      19A     -0.757817    20A     -0.717391    21A     -0.705616
      22A     -0.665701    23A     -0.634303    24A     -0.611837
      25A     -0.611021    26A     -0.597352    27A     -0.563822
      28A     -0.557085    29A     -0.482806    30A     -0.459015
      31A     -0.422188    32A     -0.414535    33A     -0.378700

  @DF-RHF Final Energy:  -451.59284207204399

   => Energetics <=

    Nuclear Repulsion Energy =            442.4865212844285338
    One-Electron Energy =               -1492.7397093891406712
    Two-Electron Energy =                 598.6603460326681443
    Total Energy =                       -451.5928420720439362
  Basis Set: (AUG-CC-PVTZ AUX)
    Blend: AUG-CC-PVTZ-RI
    Molecular point group: c1

    Geometry (in Angstrom), charge = 0, multiplicity = 1:

       Center              X                  Y                   Z               Mass
    ------------   -----------------  -----------------  -----------------  -----------------
         O           -1.439097855847     1.834728238652     0.000013014484    15.994914619570
         O            2.863639144153     0.254288238652    -0.000067985516    15.994914619570
         N           -1.134130855847    -0.461503761348     0.000189014484    14.003074004430
         N            0.690370144153     0.977703238652     0.000272014484    14.003074004430
         C           -0.756833055847     0.669462138652    -0.000242585516    12.000000000000
         C           -0.248747855847    -1.521994761348     0.000034014484    12.000000000000
         C           -2.572769855847    -0.717186761348    -0.000080985516    12.000000000000
         C            1.094551144153    -1.364286761348     0.000066014484    12.000000000000
         C            1.665837144153    -0.026160761348    -0.000226985516    12.000000000000
         H           -0.720841855847    -2.500215761348     0.000169014484     1.007825032230
         H           -2.855913855847    -1.278196761348     0.893625014484     1.007825032230
         H           -2.855300855847    -1.279276761348    -0.893350985516     1.007825032230
         H           -3.073262855847     0.248289238652    -0.000825985516     1.007825032230
         H            1.029731144153     1.937278238652     0.000309014484     1.007825032230
         H            1.772190144153    -2.208141761348    -0.000094985516     1.007825032230

  Basis Set: AUG-CC-PVTZ
    Blend: AUG-CC-PVTZ
  Basis Set: (AUG-CC-PVTZ AUX)
    Blend: AUG-CC-PVTZ-JKFIT
	 Reference Energy          =    -451.5928420720439931 [Eh]
	 Singles Energy            =      -0.0000000000000000 [Eh]
	 Same-Spin Energy          =      -0.4596674555514257 [Eh]
	 Opposite-Spin Energy      =      -1.3894707520940826 [Eh]
	 Correlation Energy        =      -1.8491382076455083 [Eh]
	 Total Energy              =    -453.4419802796895169 [Eh]

	 ================> DF-SCS-MP2 Energies <==================
	-----------------------------------------------------------
	 SCS Same-Spin Scale       =       0.3333333333333333 [-]
	 SCS Opposite-Spin Scale   =       1.2000000000000000 [-]
	 SCS Same-Spin Energy      =      -0.1532224851838086 [Eh]
	 SCS Opposite-Spin Energy  =      -1.6673649025128989 [Eh]
	 SCS Correlation Energy    =      -1.8205873876967076 [Eh]
	 SCS Total Energy          =    -453.4134294597407120 [Eh]
	-----------------------------------------------------------

  Dipole Moment: [D]
     X:    -3.2556      Y:    -5.1882      Z:    -0.0005     Total:     6.1251

*** Psi4 exiting successfully. Buy a developer a beer!
