                               Psi4 1.3.2 release

  ==> Input File <==

--------------------------------------------------------------------------
#psi4
#
memory 32 gb

molecule  {
0 1
  O       -1.3945310     1.8555980     0.0000210
  O        2.9082060     0.2751580    -0.0000600
  N       -1.0520140    -0.4103806     0.0001879
  N        0.7349370     0.9985730     0.0002800
  C       -0.6489740     0.8800530    -0.0003070
  C       -0.2041810    -1.5011250     0.0000420
  C       -2.5282030    -0.6963170    -0.0000730
  C        1.1391180    -1.3434170     0.0000740
  C        1.7104040    -0.0052910    -0.0002190
  H       -0.6418480    -2.4952259     0.0001701
  H       -2.8113470    -1.2573270     0.8936330
  H       -2.8107340    -1.2584070    -0.8933430
  H       -3.0286960     0.2691590    -0.0008180
  H        1.0742980     1.9581480     0.0003170
  H        1.8167570    -2.1872720    -0.0000870
units angstrom
no_reorient  #important for SAPT in psi4, default
symmetry c1  #important for SAPT in psi4, default
}

set PROPERTIES_ORIGIN ["COM"]
properties('MP2/aug-cc-pvtz', properties = ['dipole'])
--------------------------------------------------------------------------

    Molecular point group: c1
  Charge       = 0
  Multiplicity = 1
  Basis Set: AUG-CC-PVTZ
    Blend: AUG-CC-PVTZ
  Basis Set: (AUG-CC-PVTZ AUX)
    Blend: AUG-CC-PVTZ-JKFIT

    Orbital Energies [Eh]
    ---------------------

    Doubly Occupied:

       1A    -20.540367     2A    -20.537819     3A    -15.645004
       4A    -15.623028     5A    -11.412997     6A    -11.378857
       7A    -11.337359     8A    -11.294416     9A    -11.256843
      10A     -1.429134    11A     -1.386961    12A     -1.313119
      13A     -1.241370    14A     -1.091938    15A     -0.991791
      16A     -0.933592    17A     -0.871293    18A     -0.774803
      19A     -0.750633    20A     -0.700781    21A     -0.685984
      22A     -0.653774    23A     -0.641833    24A     -0.613266
      25A     -0.610102    26A     -0.595171    27A     -0.574369
      28A     -0.554954    29A     -0.500565    30A     -0.478248
      31A     -0.444535    32A     -0.431192    33A     -0.362474

  @DF-RHF Final Energy:  -451.65802107700307

   => Energetics <=

    Nuclear Repulsion Energy =            441.7647620111334277
    One-Electron Energy =               -1491.5284247828790285
    Two-Electron Energy =                 598.1056416947426442
    Total Energy =                       -451.6580210770030135
  Basis Set: (AUG-CC-PVTZ AUX)
    Blend: AUG-CC-PVTZ-RI
    Molecular point group: c1

    Geometry (in Angstrom), charge = 0, multiplicity = 1:

       Center              X                  Y                   Z               Mass
    ------------   -----------------  -----------------  -----------------  -----------------
         O           -1.449570622928     1.813431608267     0.000020973534    15.994914619570
         O            2.853166377072     0.232991608267    -0.000060026466    15.994914619570
         N           -1.107053622928    -0.452546991733     0.000187873534    14.003074004430
         N            0.679897377072     0.956406608267     0.000279973534    14.003074004430
         C           -0.704013622928     0.837886608267    -0.000307026466    12.000000000000
         C           -0.259220622928    -1.543291391733     0.000041973534    12.000000000000
         C           -2.583242622928    -0.738483391733    -0.000073026466    12.000000000000
         C            1.084078377072    -1.385583391733     0.000073973534    12.000000000000
         C            1.655364377072    -0.047457391733    -0.000219026466    12.000000000000
         H           -0.696887622928    -2.537392291733     0.000170073534     1.007825032230
         H           -2.866386622928    -1.299493391733     0.893632973534     1.007825032230
         H           -2.865773622928    -1.300573391733    -0.893343026466     1.007825032230
         H           -3.083735622928     0.226992608267    -0.000818026466     1.007825032230
         H            1.019258377072     1.915981608267     0.000316973534     1.007825032230
         H            1.761717377072    -2.229438391733    -0.000087026466     1.007825032230

  Basis Set: AUG-CC-PVTZ
    Blend: AUG-CC-PVTZ
  Basis Set: (AUG-CC-PVTZ AUX)
    Blend: AUG-CC-PVTZ-JKFIT
	 Reference Energy          =    -451.6580210770030703 [Eh]
	 Singles Energy            =      -0.0000000000000000 [Eh]
	 Same-Spin Energy          =      -0.4579072287671422 [Eh]
	 Opposite-Spin Energy      =      -1.3846658620075960 [Eh]
	 Correlation Energy        =      -1.8425730907747382 [Eh]
	 Total Energy              =    -453.5005941677778196 [Eh]

	 ================> DF-SCS-MP2 Energies <==================
	-----------------------------------------------------------
	 SCS Same-Spin Scale       =       0.3333333333333333 [-]
	 SCS Opposite-Spin Scale   =       1.2000000000000000 [-]
	 SCS Same-Spin Energy      =      -0.1526357429223807 [Eh]
	 SCS Opposite-Spin Energy  =      -1.6615990344091152 [Eh]
	 SCS Correlation Energy    =      -1.8142347773314960 [Eh]
	 SCS Total Energy          =    -453.4722558543345485 [Eh]
	-----------------------------------------------------------

  Dipole Moment: [D]
     X:    -3.2863      Y:    -3.7624      Z:    -0.0009     Total:     4.9955

*** Psi4 exiting successfully. Buy a developer a beer!
