                               Psi4 1.3.2 release

  ==> Input File <==

--------------------------------------------------------------------------
#psi4
#
memory 32 gb

molecule  {
0 1
  O       -1.3945310     1.8555980     0.0000210
  O        2.9082060     0.2751580    -0.0000600
  N       -1.0895640    -0.4406340     0.0001970
  N        0.7349370     0.9985730     0.0002800
  C       -0.6489740     0.8800530    -0.0003070
  C       -0.2012240    -1.5245448     0.0000478
  C       -2.5282030    -0.6963170    -0.0000730
  C        1.1391180    -1.3434170     0.0000740
  C        1.7336705    -0.0154651    -0.0002153
  H       -0.6762750    -2.4793460     0.0001770
  H       -2.8113470    -1.2573270     0.8936330
  H       -2.8107340    -1.2584070    -0.8933430
  H       -3.0286960     0.2691590    -0.0008180
  H        1.0742980     1.9581480     0.0003170
  H        1.8167570    -2.1872720    -0.0000870
units angstrom
no_reorient  #important for SAPT in psi4, default
symmetry c1  #important for SAPT in psi4, default
}

set PROPERTIES_ORIGIN ["COM"]
properties('MP2/aug-cc-pvtz', properties = ['dipole'])
--------------------------------------------------------------------------

    Molecular point group: c1
  Charge       = 0
  Multiplicity = 1
  Basis Set: AUG-CC-PVTZ
    Blend: AUG-CC-PVTZ
  Basis Set: (AUG-CC-PVTZ AUX)
    Blend: AUG-CC-PVTZ-JKFIT

    Orbital Energies [Eh]
    ---------------------

    Doubly Occupied:

       1A    -20.545569     2A    -20.541837     3A    -15.641076
       4A    -15.621861     5A    -11.415057     6A    -11.382058
       7A    -11.337536     8A    -11.287300     9A    -11.257629
      10A     -1.425685    11A     -1.401046    12A     -1.305631
      13A     -1.238887    14A     -1.091053    15A     -0.985540
      16A     -0.929863    17A     -0.865891    18A     -0.768194
      19A     -0.749854    20A     -0.704368    21A     -0.680749
      22A     -0.657550    23A     -0.645899    24A     -0.613201
      25A     -0.611449    26A     -0.605605    27A     -0.567635
      28A     -0.558122    29A     -0.494999    30A     -0.480253
      31A     -0.448218    32A     -0.433035    33A     -0.361934

  @DF-RHF Final Energy:  -451.65981349267037

   => Energetics <=

    Nuclear Repulsion Energy =            440.5428774049880190
    One-Electron Energy =               -1489.0962097502356301
    Two-Electron Energy =                 596.8935188525771309
    Total Energy =                       -451.6598134926704233
  Basis Set: (AUG-CC-PVTZ AUX)
    Blend: AUG-CC-PVTZ-RI
    Molecular point group: c1

    Geometry (in Angstrom), charge = 0, multiplicity = 1:

       Center              X                  Y                   Z               Mass
    ------------   -----------------  -----------------  -----------------  -----------------
         O           -1.447620257078     1.819864045650     0.000019002920    15.994914619570
         O            2.855116742922     0.239424045650    -0.000061997080    15.994914619570
         N           -1.142653257078    -0.476367954350     0.000195002920    14.003074004430
         N            0.681847742922     0.962839045650     0.000278002920    14.003074004430
         C           -0.702063257078     0.844319045650    -0.000308997080    12.000000000000
         C           -0.254313257078    -1.560278754350     0.000045802920    12.000000000000
         C           -2.581292257078    -0.732050954350    -0.000074997080    12.000000000000
         C            1.086028742922    -1.379150954350     0.000072002920    12.000000000000
         C            1.680581242922    -0.051199054350    -0.000217297080    12.000000000000
         H           -0.729364257078    -2.515079954350     0.000175002920     1.007825032230
         H           -2.864436257078    -1.293060954350     0.893631002920     1.007825032230
         H           -2.863823257078    -1.294140954350    -0.893344997080     1.007825032230
         H           -3.081785257078     0.233425045650    -0.000819997080     1.007825032230
         H            1.021208742922     1.922414045650     0.000315002920     1.007825032230
         H            1.763667742922    -2.223005954350    -0.000088997080     1.007825032230

  Basis Set: AUG-CC-PVTZ
    Blend: AUG-CC-PVTZ
  Basis Set: (AUG-CC-PVTZ AUX)
    Blend: AUG-CC-PVTZ-JKFIT
	 Reference Energy          =    -451.6598134926703665 [Eh]
	 Singles Energy            =      -0.0000000000000000 [Eh]
	 Same-Spin Energy          =      -0.4575788894086783 [Eh]
	 Opposite-Spin Energy      =      -1.3843773023495352 [Eh]
	 Correlation Energy        =      -1.8419561917582135 [Eh]
	 Total Energy              =    -453.5017696844285524 [Eh]

	 ================> DF-SCS-MP2 Energies <==================
	-----------------------------------------------------------
	 SCS Same-Spin Scale       =       0.3333333333333333 [-]
	 SCS Opposite-Spin Scale   =       1.2000000000000000 [-]
	 SCS Same-Spin Energy      =      -0.1525262964695594 [Eh]
	 SCS Opposite-Spin Energy  =      -1.6612527628194422 [Eh]
	 SCS Correlation Energy    =      -1.8137790592890017 [Eh]
	 SCS Total Energy          =    -453.4735925519593707 [Eh]
	-----------------------------------------------------------

  Dipole Moment: [D]
     X:    -2.9265      Y:    -3.6403      Z:    -0.0009     Total:     4.6707

*** Psi4 exiting successfully. Buy a developer a beer!
