                               Psi4 1.3.2 release

  ==> Input File <==

--------------------------------------------------------------------------
#psi4
#
memory 32 gb

molecule  {
0 1
  O       -1.3945310     1.8555980     0.0000210
  O        2.9082060     0.2751580    -0.0000600
  N       -1.0895640    -0.4406340     0.0001970
  N        0.7349370     0.9985730     0.0002800
  C       -0.6489740     0.8800530    -0.0003070
  C       -0.2041810    -1.5011250     0.0000420
  C       -2.5282030    -0.6963170    -0.0000730
  C        1.1391180    -1.3434170     0.0000740
  C        1.7104040    -0.0052910    -0.0002190
  H       -0.6762750    -2.4793460     0.0001770
  H       -2.8113470    -1.2573270     0.8936330
  H       -2.7848746    -1.2069602    -0.8115841
  H       -3.0286960     0.2691590    -0.0008180
  H        1.0742980     1.9581480     0.0003170
  H        1.8167570    -2.1872720    -0.0000870
units angstrom
no_reorient  #important for SAPT in psi4, default
symmetry c1  #important for SAPT in psi4, default
}

set PROPERTIES_ORIGIN ["COM"]
properties('MP2/aug-cc-pvtz', properties = ['dipole'])
--------------------------------------------------------------------------

    Molecular point group: c1
  Charge       = 0
  Multiplicity = 1
  Basis Set: AUG-CC-PVTZ
    Blend: AUG-CC-PVTZ
  Basis Set: (AUG-CC-PVTZ AUX)
    Blend: AUG-CC-PVTZ-JKFIT

    Orbital Energies [Eh]
    ---------------------

    Doubly Occupied:

       1A    -20.545033     2A    -20.538447     3A    -15.643606
       4A    -15.626209     5A    -11.417999     6A    -11.379525
       7A    -11.337055     8A    -11.277962     9A    -11.255781
      10A     -1.427923    11A     -1.387782    12A     -1.312153
      13A     -1.245502    14A     -1.091673    15A     -0.998654
      16A     -0.930350    17A     -0.873820    18A     -0.773147
      19A     -0.753278    20A     -0.700134    21A     -0.689819
      22A     -0.658341    23A     -0.644056    24A     -0.624124
      25A     -0.610670    26A     -0.601948    27A     -0.573034
      28A     -0.554954    29A     -0.501608    30A     -0.479555
      31A     -0.445780    32A     -0.432741    33A     -0.360536

  @DF-RHF Final Energy:  -451.65448117859404

   => Energetics <=

    Nuclear Repulsion Energy =            441.6697426281666594
    One-Electron Energy =               -1491.2620534702703026
    Two-Electron Energy =                 597.9378296635096603
    Total Energy =                       -451.6544811785939828
  Basis Set: (AUG-CC-PVTZ AUX)
    Blend: AUG-CC-PVTZ-RI
    Molecular point group: c1

    Geometry (in Angstrom), charge = 0, multiplicity = 1:

       Center              X                  Y                   Z               Mass
    ------------   -----------------  -----------------  -----------------  -----------------
         O           -1.445330400319     1.816254353444    -0.000633827569    15.994914619570
         O            2.857406599681     0.235814353444    -0.000714827569    15.994914619570
         N           -1.140363400319    -0.479977646556    -0.000457827569    14.003074004430
         N            0.684137599681     0.959229353444    -0.000374827569    14.003074004430
         C           -0.699773400319     0.840709353444    -0.000961827569    12.000000000000
         C           -0.254980400319    -1.540468646556    -0.000612827569    12.000000000000
         C           -2.579002400319    -0.735660646556    -0.000727827569    12.000000000000
         C            1.088318599681    -1.382760646556    -0.000580827569    12.000000000000
         C            1.659604599681    -0.044634646556    -0.000873827569    12.000000000000
         H           -0.727074400319    -2.518689646556    -0.000477827569     1.007825032230
         H           -2.862146400319    -1.296670646556     0.892978172431     1.007825032230
         H           -2.835674000319    -1.246303846556    -0.812238927569     1.007825032230
         H           -3.079495400319     0.229815353444    -0.001472827569     1.007825032230
         H            1.023498599681     1.918804353444    -0.000337827569     1.007825032230
         H            1.765957599681    -2.226615646556    -0.000741827569     1.007825032230

  Basis Set: AUG-CC-PVTZ
    Blend: AUG-CC-PVTZ
  Basis Set: (AUG-CC-PVTZ AUX)
    Blend: AUG-CC-PVTZ-JKFIT
	 Reference Energy          =    -451.6544811785940396 [Eh]
	 Singles Energy            =      -0.0000000000000000 [Eh]
	 Same-Spin Energy          =      -0.4580768557812147 [Eh]
	 Opposite-Spin Energy      =      -1.3843438966617441 [Eh]
	 Correlation Energy        =      -1.8424207524429588 [Eh]
	 Total Energy              =    -453.4969019310369731 [Eh]

	 ================> DF-SCS-MP2 Energies <==================
	-----------------------------------------------------------
	 SCS Same-Spin Scale       =       0.3333333333333333 [-]
	 SCS Opposite-Spin Scale   =       1.2000000000000000 [-]
	 SCS Same-Spin Energy      =      -0.1526922852604049 [Eh]
	 SCS Opposite-Spin Energy  =      -1.6612126759940928 [Eh]
	 SCS Correlation Energy    =      -1.8139049612544977 [Eh]
	 SCS Total Energy          =    -453.4683861398485192 [Eh]
	-----------------------------------------------------------

  Dipole Moment: [D]
     X:    -3.2776      Y:    -3.5614      Z:    -0.0234     Total:     4.8401

*** Psi4 exiting successfully. Buy a developer a beer!
