                               Psi4 1.3.2 release

  ==> Input File <==

--------------------------------------------------------------------------
#psi4
#
memory 32 gb

molecule  {
0 1
  O       -1.3945310     1.8555980     0.0000210
  O        2.9082060     0.2751580    -0.0000600
  N       -1.0895640    -0.4406340     0.0001970
  N        0.7349370     0.9985730     0.0002800
  C       -0.5804584     0.8551844    -0.0002766
  C       -0.2041810    -1.5011250     0.0000420
  C       -2.5128500    -0.7712591    -0.0000334
  C        1.1391180    -1.3434170     0.0000740
  C        1.7104040    -0.0052910    -0.0002190
  H       -0.6762750    -2.4793460     0.0001770
  H       -2.8113470    -1.2573270     0.8936330
  H       -2.8107340    -1.2584070    -0.8933430
  H       -3.0286960     0.2691590    -0.0008180
  H        1.0742980     1.9581480     0.0003170
  H        1.8167570    -2.1872720    -0.0000870
units angstrom
no_reorient  #important for SAPT in psi4, default
symmetry c1  #important for SAPT in psi4, default
}

set PROPERTIES_ORIGIN ["COM"]
properties('MP2/aug-cc-pvtz', properties = ['dipole'])
--------------------------------------------------------------------------

    Molecular point group: c1
  Charge       = 0
  Multiplicity = 1
  Basis Set: AUG-CC-PVTZ
    Blend: AUG-CC-PVTZ
  Basis Set: (AUG-CC-PVTZ AUX)
    Blend: AUG-CC-PVTZ-JKFIT

    Orbital Energies [Eh]
    ---------------------

    Doubly Occupied:

       1A    -20.545963     2A    -20.529211     3A    -15.647658
       4A    -15.638621     5A    -11.417939     6A    -11.386526
       7A    -11.337966     8A    -11.290140     9A    -11.258273
      10A     -1.420731    11A     -1.382699    12A     -1.296480
      13A     -1.264826    14A     -1.092155    15A     -0.995043
      16A     -0.932709    17A     -0.888154    18A     -0.780580
      19A     -0.759066    20A     -0.701278    21A     -0.692364
      22A     -0.661576    23A     -0.630706    24A     -0.629138
      25A     -0.610352    26A     -0.600603    27A     -0.549555
      28A     -0.546482    29A     -0.502359    30A     -0.467020
      31A     -0.446986    32A     -0.431855    33A     -0.362213

  @DF-RHF Final Energy:  -451.64241246260252

   => Energetics <=

    Nuclear Repulsion Energy =            441.3456516779525032
    One-Electron Energy =               -1490.5816753753601915
    Two-Electron Energy =                 597.5936112348051665
    Total Energy =                       -451.6424124626025787
  Basis Set: (AUG-CC-PVTZ AUX)
    Blend: AUG-CC-PVTZ-RI
    Molecular point group: c1

    Geometry (in Angstrom), charge = 0, multiplicity = 1:

       Center              X                  Y                   Z               Mass
    ------------   -----------------  -----------------  -----------------  -----------------
         O           -1.453108396826     1.826168259747     0.000013242978    15.994914619570
         O            2.849628603174     0.245728259747    -0.000067757022    15.994914619570
         N           -1.148141396826    -0.470063740253     0.000189242978    14.003074004430
         N            0.676359603174     0.969143259747     0.000272242978    14.003074004430
         C           -0.639035796826     0.825754659747    -0.000284357022    12.000000000000
         C           -0.262758396826    -1.530554740253     0.000034242978    12.000000000000
         C           -2.571427396826    -0.800688840253    -0.000041157022    12.000000000000
         C            1.080540603174    -1.372846740253     0.000066242978    12.000000000000
         C            1.651826603174    -0.034720740253    -0.000226757022    12.000000000000
         H           -0.734852396826    -2.508775740253     0.000169242978     1.007825032230
         H           -2.869924396826    -1.286756740253     0.893625242978     1.007825032230
         H           -2.869311396826    -1.287836740253    -0.893350757022     1.007825032230
         H           -3.087273396826     0.239729259747    -0.000825757022     1.007825032230
         H            1.015720603174     1.928718259747     0.000309242978     1.007825032230
         H            1.758179603174    -2.216701740253    -0.000094757022     1.007825032230

  Basis Set: AUG-CC-PVTZ
    Blend: AUG-CC-PVTZ
  Basis Set: (AUG-CC-PVTZ AUX)
    Blend: AUG-CC-PVTZ-JKFIT
	 Reference Energy          =    -451.6424124626025218 [Eh]
	 Singles Energy            =      -0.0000000000000000 [Eh]
	 Same-Spin Energy          =      -0.4593609555466963 [Eh]
	 Opposite-Spin Energy      =      -1.3870686003333486 [Eh]
	 Correlation Energy        =      -1.8464295558800448 [Eh]
	 Total Energy              =    -453.4888420184825577 [Eh]

	 ================> DF-SCS-MP2 Energies <==================
	-----------------------------------------------------------
	 SCS Same-Spin Scale       =       0.3333333333333333 [-]
	 SCS Opposite-Spin Scale   =       1.2000000000000000 [-]
	 SCS Same-Spin Energy      =      -0.1531203185155654 [Eh]
	 SCS Opposite-Spin Energy  =      -1.6644823204000183 [Eh]
	 SCS Correlation Energy    =      -1.8176026389155837 [Eh]
	 SCS Total Energy          =    -453.4600151015180813 [Eh]
	-----------------------------------------------------------

  Dipole Moment: [D]
     X:    -2.7020      Y:    -3.8630      Z:    -0.0007     Total:     4.7142

*** Psi4 exiting successfully. Buy a developer a beer!
