                               Psi4 1.3.2 release

  ==> Input File <==

--------------------------------------------------------------------------
#psi4
#
memory 32 gb

molecule  {
0 1
  O       -1.3945310     1.8555980     0.0000210
  O        2.9082060     0.2751580    -0.0000600
  N       -1.0895640    -0.4406340     0.0001970
  N        0.7349370     0.9985730     0.0002800
  C       -0.6031511     0.8638721    -0.0002869
  C       -0.2041810    -1.5011250     0.0000420
  C       -2.5184034    -0.7463690    -0.0000467
  C        1.1391180    -1.3434170     0.0000740
  C        1.7104040    -0.0052910    -0.0002190
  H       -0.6762750    -2.4793460     0.0001770
  H       -2.8113470    -1.2573270     0.8936330
  H       -2.8107340    -1.2584070    -0.8933430
  H       -3.0286960     0.2691590    -0.0008180
  H        1.0742980     1.9581480     0.0003170
  H        1.8167570    -2.1872720    -0.0000870
units angstrom
no_reorient  #important for SAPT in psi4, default
symmetry c1  #important for SAPT in psi4, default
}

set PROPERTIES_ORIGIN ["COM"]
properties('MP2/aug-cc-pvtz', properties = ['dipole'])
--------------------------------------------------------------------------

    Molecular point group: c1
  Charge       = 0
  Multiplicity = 1
  Basis Set: AUG-CC-PVTZ
    Blend: AUG-CC-PVTZ
  Basis Set: (AUG-CC-PVTZ AUX)
    Blend: AUG-CC-PVTZ-JKFIT

    Orbital Energies [Eh]
    ---------------------

    Doubly Occupied:

       1A    -20.543576     2A    -20.534625     3A    -15.646476
       4A    -15.634715     5A    -11.418245     6A    -11.384340
       7A    -11.337659     8A    -11.289879     9A    -11.257531
      10A     -1.420350    11A     -1.385040    12A     -1.302889
      13A     -1.258893    14A     -1.091777    15A     -0.993154
      16A     -0.931870    17A     -0.882783    18A     -0.777356
      19A     -0.756842    20A     -0.700423    21A     -0.689564
      22A     -0.659247    23A     -0.634103    24A     -0.625305
      25A     -0.609487    26A     -0.602834    27A     -0.555821
      28A     -0.550461    29A     -0.501252    30A     -0.470606
      31A     -0.447914    32A     -0.433084    33A     -0.361722

  @DF-RHF Final Energy:  -451.65174440476233

   => Energetics <=

    Nuclear Repulsion Energy =            441.2661468966968528
    One-Electron Energy =               -1490.4561318939895500
    Two-Electron Energy =                 597.5382405925303146
    Total Energy =                       -451.6517444047623258
  Basis Set: (AUG-CC-PVTZ AUX)
    Blend: AUG-CC-PVTZ-RI
    Molecular point group: c1

    Geometry (in Angstrom), charge = 0, multiplicity = 1:

       Center              X                  Y                   Z               Mass
    ------------   -----------------  -----------------  -----------------  -----------------
         O           -1.450419208255     1.822971463163     0.000015489831    15.994914619570
         O            2.852317791745     0.242531463163    -0.000065510169    15.994914619570
         N           -1.145452208255    -0.473260536837     0.000191489831    14.003074004430
         N            0.679048791745     0.965946463163     0.000274489831    14.003074004430
         C           -0.659039308255     0.831245563163    -0.000292410169    12.000000000000
         C           -0.260069208255    -1.533751536837     0.000036489831    12.000000000000
         C           -2.574291608255    -0.778995536837    -0.000052210169    12.000000000000
         C            1.083229791745    -1.376043536837     0.000068489831    12.000000000000
         C            1.654515791745    -0.037917536837    -0.000224510169    12.000000000000
         H           -0.732163208255    -2.511972536837     0.000171489831     1.007825032230
         H           -2.867235208255    -1.289953536837     0.893627489831     1.007825032230
         H           -2.866622208255    -1.291033536837    -0.893348510169     1.007825032230
         H           -3.084584208255     0.236532463163    -0.000823510169     1.007825032230
         H            1.018409791745     1.925521463163     0.000311489831     1.007825032230
         H            1.760868791745    -2.219898536837    -0.000092510169     1.007825032230

  Basis Set: AUG-CC-PVTZ
    Blend: AUG-CC-PVTZ
  Basis Set: (AUG-CC-PVTZ AUX)
    Blend: AUG-CC-PVTZ-JKFIT
	 Reference Energy          =    -451.6517444047623258 [Eh]
	 Singles Energy            =      -0.0000000000000000 [Eh]
	 Same-Spin Energy          =      -0.4588726843884761 [Eh]
	 Opposite-Spin Energy      =      -1.3861818959768235 [Eh]
	 Correlation Energy        =      -1.8450545803652996 [Eh]
	 Total Energy              =    -453.4967989851276116 [Eh]

	 ================> DF-SCS-MP2 Energies <==================
	-----------------------------------------------------------
	 SCS Same-Spin Scale       =       0.3333333333333333 [-]
	 SCS Opposite-Spin Scale   =       1.2000000000000000 [-]
	 SCS Same-Spin Energy      =      -0.1529575614628254 [Eh]
	 SCS Opposite-Spin Energy  =      -1.6634182751721882 [Eh]
	 SCS Correlation Energy    =      -1.8163758366350136 [Eh]
	 SCS Total Energy          =    -453.4681202413973438 [Eh]
	-----------------------------------------------------------

  Dipole Moment: [D]
     X:    -2.8800      Y:    -3.7557      Z:    -0.0007     Total:     4.7328

*** Psi4 exiting successfully. Buy a developer a beer!
