                               Psi4 1.3.2 release

  ==> Input File <==

--------------------------------------------------------------------------
#psi4
#
memory 32 gb

molecule  {
0 1
  O       -1.3945310     1.8555980     0.0000210
  O        2.9082060     0.2751580    -0.0000600
  N       -1.0895640    -0.4406340     0.0001970
  N        0.7349370     0.9985730     0.0002800
  C       -0.6489740     0.8800530    -0.0003070
  C       -0.3323580    -1.3475976     0.0000644
  C       -2.5282030    -0.6963170    -0.0000730
  C        1.1391180    -1.3434170     0.0000740
  C        1.7104040    -0.0052910    -0.0002190
  H       -0.6762750    -2.4793460     0.0001770
  H       -2.8113470    -1.2573270     0.8936330
  H       -2.8107340    -1.2584070    -0.8933430
  H       -3.0286960     0.2691590    -0.0008180
  H        1.0742980     1.9581480     0.0003170
  H        1.8167570    -2.1872720    -0.0000870
units angstrom
no_reorient  #important for SAPT in psi4, default
symmetry c1  #important for SAPT in psi4, default
}

set PROPERTIES_ORIGIN ["COM"]
properties('MP2/aug-cc-pvtz', properties = ['dipole'])
--------------------------------------------------------------------------

    Molecular point group: c1
  Charge       = 0
  Multiplicity = 1
  Basis Set: AUG-CC-PVTZ
    Blend: AUG-CC-PVTZ
  Basis Set: (AUG-CC-PVTZ AUX)
    Blend: AUG-CC-PVTZ-JKFIT

    Orbital Energies [Eh]
    ---------------------

    Doubly Occupied:

       1A    -20.561951     2A    -20.516478     3A    -15.668918
       4A    -15.628426     5A    -11.433140     6A    -11.360164
       7A    -11.345464     8A    -11.308136     9A    -11.241468
      10A     -1.459395    11A     -1.380763    12A     -1.372578
      13A     -1.252531    14A     -1.069122    15A     -1.010545
      16A     -0.965136    17A     -0.868002    18A     -0.778335
      19A     -0.753467    20A     -0.721103    21A     -0.705118
      22A     -0.669951    23A     -0.627198    24A     -0.623385
      25A     -0.613853    26A     -0.592738    27A     -0.563661
      28A     -0.552705    29A     -0.535341    30A     -0.483935
      31A     -0.431338    32A     -0.427303    33A     -0.327998

  @DF-RHF Final Energy:  -451.59818371907772

   => Energetics <=

    Nuclear Repulsion Energy =            444.3459897281414896
    One-Electron Energy =               -1496.1890561661634820
    Two-Electron Energy =                 600.2448827189443818
    Total Energy =                       -451.5981837190777242
  Basis Set: (AUG-CC-PVTZ AUX)
    Blend: AUG-CC-PVTZ-RI
    Molecular point group: c1

    Geometry (in Angstrom), charge = 0, multiplicity = 1:

       Center              X                  Y                   Z               Mass
    ------------   -----------------  -----------------  -----------------  -----------------
         O           -1.432920455688     1.802049038926     0.000017774767    15.994914619570
         O            2.869816544312     0.221609038926    -0.000063225233    15.994914619570
         N           -1.127953455688    -0.494182961074     0.000193774767    14.003074004430
         N            0.696547544312     0.945024038926     0.000276774767    14.003074004430
         C           -0.687363455688     0.826504038926    -0.000310225233    12.000000000000
         C           -0.370747455688    -1.401146561074     0.000061174767    12.000000000000
         C           -2.566592455688    -0.749865961074    -0.000076225233    12.000000000000
         C            1.100728544312    -1.396965961074     0.000070774767    12.000000000000
         C            1.672014544312    -0.058839961074    -0.000222225233    12.000000000000
         H           -0.714664455688    -2.532894961074     0.000173774767     1.007825032230
         H           -2.849736455688    -1.310875961074     0.893629774767     1.007825032230
         H           -2.849123455688    -1.311955961074    -0.893346225233     1.007825032230
         H           -3.067085455688     0.215610038926    -0.000821225233     1.007825032230
         H            1.035908544312     1.904599038926     0.000313774767     1.007825032230
         H            1.778367544312    -2.240820961074    -0.000090225233     1.007825032230

  Basis Set: AUG-CC-PVTZ
    Blend: AUG-CC-PVTZ
  Basis Set: (AUG-CC-PVTZ AUX)
    Blend: AUG-CC-PVTZ-JKFIT
	 Reference Energy          =    -451.5981837190777242 [Eh]
	 Singles Energy            =      -0.0000000000000000 [Eh]
	 Same-Spin Energy          =      -0.4609581014847189 [Eh]
	 Opposite-Spin Energy      =      -1.3869023779837257 [Eh]
	 Correlation Energy        =      -1.8478604794684448 [Eh]
	 Total Energy              =    -453.4460441985461898 [Eh]

	 ================> DF-SCS-MP2 Energies <==================
	-----------------------------------------------------------
	 SCS Same-Spin Scale       =       0.3333333333333333 [-]
	 SCS Opposite-Spin Scale   =       1.2000000000000000 [-]
	 SCS Same-Spin Energy      =      -0.1536527004949063 [Eh]
	 SCS Opposite-Spin Energy  =      -1.6642828535804708 [Eh]
	 SCS Correlation Energy    =      -1.8179355540753770 [Eh]
	 SCS Total Energy          =    -453.4161192731531287 [Eh]
	-----------------------------------------------------------

  Dipole Moment: [D]
     X:    -4.5047      Y:    -3.0747      Z:    -0.0008     Total:     5.4540

*** Psi4 exiting successfully. Buy a developer a beer!
