                               Psi4 1.4a3.dev225

  ==> Input File <==

--------------------------------------------------------------------------
#psi4
#
memory 32 gb

molecule  {
0 1
  O       -1.4350980    -1.8086910     0.0000000
  O        2.9075840    -0.3082450     0.0000000
  N       -1.0785060     0.4619330     0.0000000
  N        0.7249750    -1.0056720    -0.0000010
  C       -0.6578326    -0.8450698     0.0000000
  C       -0.1841290     1.5083600     0.0000000
  C       -2.5245930     0.6731660     0.0000000
  C        1.1582900     1.3329580     0.0000000
  C        1.7164880    -0.0081480     0.0000000
  H       -0.6338540     2.4967290    -0.0000010
  H       -2.9690000     0.2175100    -0.8862740
  H       -2.7140630     1.7465080     0.0000000
  H       -2.9689990     0.2175090     0.8862740
  H        1.0585810    -1.9665760     0.0000000
  H        1.8360540     2.1766110     0.0000000
units angstrom
no_reorient  #important for SAPT in psi4, default
symmetry c1  #important for SAPT in psi4, default
}

set PROPERTIES_ORIGIN ["COM"]
properties('MP2/aug-cc-pvtz', properties = ['dipole'])
--------------------------------------------------------------------------

    Molecular point group: c1
  Charge       = 0
  Multiplicity = 1
  Basis Set: AUG-CC-PVTZ
    Blend: AUG-CC-PVTZ
  Basis Set: (AUG-CC-PVTZ AUX)
    Blend: AUG-CC-PVTZ-JKFIT

    Orbital Energies [Eh]
    ---------------------

    Doubly Occupied:

       1A    -20.542761     2A    -20.538390     3A    -15.647547
       4A    -15.625923     5A    -11.415576     6A    -11.379322
       7A    -11.339428     8A    -11.294151     9A    -11.255724
      10A     -1.425449    11A     -1.387584    12A     -1.313429
      13A     -1.244198    14A     -1.092888    15A     -0.992541
      16A     -0.934725    17A     -0.869660    18A     -0.775102
      19A     -0.752007    20A     -0.701733    21A     -0.688044
      22A     -0.656067    23A     -0.642535    24A     -0.609996
      25A     -0.608942    26A     -0.602719    27A     -0.580085
      28A     -0.548897    29A     -0.503350    30A     -0.478301
      31A     -0.444961    32A     -0.430851    33A     -0.360721

  @DF-RHF Final Energy:  -451.66041853146834

   => Energetics <=

    Nuclear Repulsion Energy =            441.6948148397424347
    One-Electron Energy =               -1491.3432567287093207
    Two-Electron Energy =                 597.9880233574983777
    Total Energy =                       -451.6604185314683946
  Basis Set: (AUG-CC-PVTZ AUX)
    Blend: AUG-CC-PVTZ-RI
    Molecular point group: c1

    Geometry (in Angstrom), charge = 0, multiplicity = 1:

       Center              X                  Y                   Z               Mass
    ------------   -----------------  -----------------  -----------------  -----------------
         O           -1.484756914148    -1.772096391400     0.000000119094    15.994914619570
         O            2.857925085852    -0.271650391400     0.000000119094    15.994914619570
         N           -1.128164914148     0.498527608600     0.000000119094    14.003074004430
         N            0.675316085852    -0.969077391400    -0.000000880906    14.003074004430
         C           -0.707491514148    -0.808475191400     0.000000119094    12.000000000000
         C           -0.233787914148     1.544954608600     0.000000119094    12.000000000000
         C           -2.574251914148     0.709760608600     0.000000119094    12.000000000000
         C            1.108631085852     1.369552608600     0.000000119094    12.000000000000
         C            1.666829085852     0.028446608600     0.000000119094    12.000000000000
         H           -0.683512914148     2.533323608600    -0.000000880906     1.007825032230
         H           -3.018658914148     0.254104608600    -0.886273880906     1.007825032230
         H           -2.763721914148     1.783102608600     0.000000119094     1.007825032230
         H           -3.018657914148     0.254103608600     0.886274119094     1.007825032230
         H            1.008922085852    -1.929981391400     0.000000119094     1.007825032230
         H            1.786395085852     2.213205608600     0.000000119094     1.007825032230

  Basis Set: AUG-CC-PVTZ
    Blend: AUG-CC-PVTZ
  Basis Set: (AUG-CC-PVTZ AUX)
    Blend: AUG-CC-PVTZ-JKFIT
	 Reference Energy          =    -451.6604185314683377 [Eh]
	 Singles Energy            =      -0.0000000000000000 [Eh]
	 Same-Spin Energy          =      -0.4581489701623028 [Eh]
	 Opposite-Spin Energy      =      -1.3849569507175781 [Eh]
	 Correlation Energy        =      -1.8431059208798808 [Eh]
	 Total Energy              =    -453.5035244523482447 [Eh]

	 ================> DF-SCS-MP2 Energies <==================
	-----------------------------------------------------------
	 SCS Same-Spin Scale       =       0.3333333333333333 [-]
	 SCS Opposite-Spin Scale   =       1.2000000000000000 [-]
	 SCS Same-Spin Energy      =      -0.1527163233874343 [Eh]
	 SCS Opposite-Spin Energy  =      -1.6619483408610936 [Eh]
	 SCS Correlation Energy    =      -1.8146646642485278 [Eh]
	 SCS Total Energy          =    -453.4750831957168771 [Eh]
	-----------------------------------------------------------

  Dipole Moment: [D]
     X:    -3.2159      Y:     3.7054      Z:     0.0000     Total:     4.9063

*** Psi4 exiting successfully. Buy a developer a beer!
