                               Psi4 1.3.2 release

  ==> Input File <==

--------------------------------------------------------------------------
#psi4
#
memory 32 gb

molecule  {
0 1
  O       -1.3945310     1.8555980     0.0000210
  O        2.9082060     0.2751580    -0.0000600
  N       -1.0895640    -0.4406340     0.0001970
  N        0.7349370     0.9985730     0.0002800
  C       -0.6489740     0.8800530    -0.0003070
  C       -0.2067288    -1.4776572     0.0000362
  C       -2.5282030    -0.6963170    -0.0000730
  C        1.1391180    -1.3434170     0.0000740
  C        1.6869635     0.0044755    -0.0002226
  H       -0.6762750    -2.4793460     0.0001770
  H       -2.8113470    -1.2573270     0.8936330
  H       -2.8107340    -1.2584070    -0.8933430
  H       -3.0286960     0.2691590    -0.0008180
  H        1.0742980     1.9581480     0.0003170
  H        1.8167570    -2.1872720    -0.0000870
units angstrom
no_reorient  #important for SAPT in psi4, default
symmetry c1  #important for SAPT in psi4, default
}

set PROPERTIES_ORIGIN ["COM"]
properties('MP2/aug-cc-pvtz', properties = ['dipole'])
--------------------------------------------------------------------------

    Molecular point group: c1
  Charge       = 0
  Multiplicity = 1
  Basis Set: AUG-CC-PVTZ
    Blend: AUG-CC-PVTZ
  Basis Set: (AUG-CC-PVTZ AUX)
    Blend: AUG-CC-PVTZ-JKFIT

    Orbital Energies [Eh]
    ---------------------

    Doubly Occupied:

       1A    -20.549144     2A    -20.532024     3A    -15.647894
       4A    -15.631081     5A    -11.421932     6A    -11.377600
       7A    -11.336932     8A    -11.292718     9A    -11.254973
      10A     -1.432514    11A     -1.375772    12A     -1.318695
      13A     -1.251492    14A     -1.091516    15A     -0.993826
      16A     -0.932264    17A     -0.878870    18A     -0.775972
      19A     -0.754176    20A     -0.697055    21A     -0.689880
      22A     -0.659758    23A     -0.641243    24A     -0.617385
      25A     -0.612552    26A     -0.594112    27A     -0.575491
      28A     -0.550940    29A     -0.504135    30A     -0.480469
      31A     -0.442348    32A     -0.432104    33A     -0.359292

  @DF-RHF Final Energy:  -451.65789280527360

   => Energetics <=

    Nuclear Repulsion Energy =            441.8337202625086206
    One-Electron Energy =               -1491.5709058540660408
    Two-Electron Energy =                 598.0792927862837587
    Total Energy =                       -451.6578928052736046
  Basis Set: (AUG-CC-PVTZ AUX)
    Blend: AUG-CC-PVTZ-RI
    Molecular point group: c1

    Geometry (in Angstrom), charge = 0, multiplicity = 1:

       Center              X                  Y                   Z               Mass
    ------------   -----------------  -----------------  -----------------  -----------------
         O           -1.442649398239     1.813501622813     0.000020802307    15.994914619570
         O            2.860087601761     0.233061622813    -0.000060197693    15.994914619570
         N           -1.137682398239    -0.482730377187     0.000196802307    14.003074004430
         N            0.686818601761     0.956476622813     0.000279802307    14.003074004430
         C           -0.697092398239     0.837956622813    -0.000307197693    12.000000000000
         C           -0.254847198239    -1.519753577187     0.000036002307    12.000000000000
         C           -2.576321398239    -0.738413377187    -0.000073197693    12.000000000000
         C            1.090999601761    -1.385513377187     0.000073802307    12.000000000000
         C            1.638845101761    -0.037620877187    -0.000222797693    12.000000000000
         H           -0.724393398239    -2.521442377187     0.000176802307     1.007825032230
         H           -2.859465398239    -1.299423377187     0.893632802307     1.007825032230
         H           -2.858852398239    -1.300503377187    -0.893343197693     1.007825032230
         H           -3.076814398239     0.227062622813    -0.000818197693     1.007825032230
         H            1.026179601761     1.916051622813     0.000316802307     1.007825032230
         H            1.768638601761    -2.229368377187    -0.000087197693     1.007825032230

  Basis Set: AUG-CC-PVTZ
    Blend: AUG-CC-PVTZ
  Basis Set: (AUG-CC-PVTZ AUX)
    Blend: AUG-CC-PVTZ-JKFIT
	 Reference Energy          =    -451.6578928052736046 [Eh]
	 Singles Energy            =      -0.0000000000000000 [Eh]
	 Same-Spin Energy          =      -0.4585941668827563 [Eh]
	 Opposite-Spin Energy      =      -1.3853928597595475 [Eh]
	 Correlation Energy        =      -1.8439870266423037 [Eh]
	 Total Energy              =    -453.5018798319159146 [Eh]

	 ================> DF-SCS-MP2 Energies <==================
	-----------------------------------------------------------
	 SCS Same-Spin Scale       =       0.3333333333333333 [-]
	 SCS Opposite-Spin Scale   =       1.2000000000000000 [-]
	 SCS Same-Spin Energy      =      -0.1528647222942521 [Eh]
	 SCS Opposite-Spin Energy  =      -1.6624714317114571 [Eh]
	 SCS Correlation Energy    =      -1.8153361540057091 [Eh]
	 SCS Total Energy          =    -453.4732289592793109 [Eh]
	-----------------------------------------------------------

  Dipole Moment: [D]
     X:    -3.5401      Y:    -3.4437      Z:    -0.0008     Total:     4.9388

*** Psi4 exiting successfully. Buy a developer a beer!
