                               Psi4 1.3.2 release

  ==> Input File <==

--------------------------------------------------------------------------
#psi4
#
memory 32 gb

molecule  {
0 1
  O       -1.3945310     1.8555980     0.0000210
  O        2.9082060     0.2751580    -0.0000600
  N       -1.0895640    -0.4406340     0.0001970
  N        0.7349370     0.9985730     0.0002800
  C       -0.6489740     0.8800530    -0.0003070
  C       -0.2041810    -1.5011250     0.0000420
  C       -2.5282030    -0.6963170    -0.0000730
  C        1.1455309    -1.4139360     0.0000854
  C        1.7104040    -0.0052910    -0.0002190
  H       -0.6244319    -2.5027129     0.0001829
  H       -2.8113470    -1.2573270     0.8936330
  H       -2.8107340    -1.2584070    -0.8933430
  H       -3.0286960     0.2691590    -0.0008180
  H        1.0742980     1.9581480     0.0003170
  H        1.8167570    -2.1872720    -0.0000870
units angstrom
no_reorient  #important for SAPT in psi4, default
symmetry c1  #important for SAPT in psi4, default
}

set PROPERTIES_ORIGIN ["COM"]
properties('MP2/aug-cc-pvtz', properties = ['dipole'])
--------------------------------------------------------------------------

    Molecular point group: c1
  Charge       = 0
  Multiplicity = 1
  Basis Set: AUG-CC-PVTZ
    Blend: AUG-CC-PVTZ
  Basis Set: (AUG-CC-PVTZ AUX)
    Blend: AUG-CC-PVTZ-JKFIT

    Orbital Energies [Eh]
    ---------------------

    Doubly Occupied:

       1A    -20.546624     2A    -20.540873     3A    -15.645030
       4A    -15.628224     5A    -11.419490     6A    -11.383712
       7A    -11.333254     8A    -11.289488     9A    -11.256888
      10A     -1.428569    11A     -1.388464    12A     -1.310977
      13A     -1.245704    14A     -1.088110    15A     -0.988535
      16A     -0.921727    17A     -0.874776    18A     -0.772375
      19A     -0.754417    20A     -0.694822    21A     -0.684524
      22A     -0.663135    23A     -0.644247    24A     -0.622380
      25A     -0.613910    26A     -0.594336    27A     -0.575489
      28A     -0.552837    29A     -0.499251    30A     -0.478561
      31A     -0.443353    32A     -0.433920    33A     -0.360878

  @DF-RHF Final Energy:  -451.65500748306783

   => Energetics <=

    Nuclear Repulsion Energy =            439.9199610656611412
    One-Electron Energy =               -1487.7921778357629137
    Two-Electron Energy =                 596.2172092870338247
    Total Energy =                       -451.6550074830678341
  Basis Set: (AUG-CC-PVTZ AUX)
    Blend: AUG-CC-PVTZ-RI
    Molecular point group: c1

    Geometry (in Angstrom), charge = 0, multiplicity = 1:

       Center              X                  Y                   Z               Mass
    ------------   -----------------  -----------------  -----------------  -----------------
         O           -1.446148707426     1.823566363236     0.000018774854    15.994914619570
         O            2.856588292574     0.243126363236    -0.000062225146    15.994914619570
         N           -1.141181707426    -0.472665636764     0.000194774854    14.003074004430
         N            0.683319292574     0.966541363236     0.000277774854    14.003074004430
         C           -0.700591707426     0.848021363236    -0.000309225146    12.000000000000
         C           -0.255798707426    -1.533156636764     0.000039774854    12.000000000000
         C           -2.579820707426    -0.728348636764    -0.000075225146    12.000000000000
         C            1.093913192574    -1.445967636764     0.000083174854    12.000000000000
         C            1.658786292574    -0.037322636764    -0.000221225146    12.000000000000
         H           -0.676049607426    -2.534744536764     0.000180674854     1.007825032230
         H           -2.862964707426    -1.289358636764     0.893630774854     1.007825032230
         H           -2.862351707426    -1.290438636764    -0.893345225146     1.007825032230
         H           -3.080313707426     0.237127363236    -0.000820225146     1.007825032230
         H            1.022680292574     1.926116363236     0.000314774854     1.007825032230
         H            1.765139292574    -2.219303636764    -0.000089225146     1.007825032230

  Basis Set: AUG-CC-PVTZ
    Blend: AUG-CC-PVTZ
  Basis Set: (AUG-CC-PVTZ AUX)
    Blend: AUG-CC-PVTZ-JKFIT
	 Reference Energy          =    -451.6550074830678341 [Eh]
	 Singles Energy            =      -0.0000000000000000 [Eh]
	 Same-Spin Energy          =      -0.4572444637597392 [Eh]
	 Opposite-Spin Energy      =      -1.3843502052727774 [Eh]
	 Correlation Energy        =      -1.8415946690325167 [Eh]
	 Total Energy              =    -453.4966021521003654 [Eh]

	 ================> DF-SCS-MP2 Energies <==================
	-----------------------------------------------------------
	 SCS Same-Spin Scale       =       0.3333333333333333 [-]
	 SCS Opposite-Spin Scale   =       1.2000000000000000 [-]
	 SCS Same-Spin Energy      =      -0.1524148212532464 [Eh]
	 SCS Opposite-Spin Energy  =      -1.6612202463273329 [Eh]
	 SCS Correlation Energy    =      -1.8136350675805792 [Eh]
	 SCS Total Energy          =    -453.4686425506484397 [Eh]
	-----------------------------------------------------------

  Dipole Moment: [D]
     X:    -3.1005      Y:    -3.4414      Z:    -0.0009     Total:     4.6321

*** Psi4 exiting successfully. Buy a developer a beer!
