                               Psi4 1.3.2 release

  ==> Input File <==

--------------------------------------------------------------------------
#psi4
#
memory 32 gb

molecule  {
0 1
  O       -1.3945310     1.8555980     0.0000210
  O        2.9082060     0.2751580    -0.0000600
  N       -1.0895640    -0.4406340     0.0001970
  N        0.7349370     0.9985730     0.0002800
  C       -0.6532803     0.9526437    -0.0002476
  C       -0.2041810    -1.5011250     0.0000420
  C       -2.5282030    -0.6963170    -0.0000730
  C        1.1391180    -1.3434170     0.0000740
  C        1.7616053     0.0471367    -0.0001570
  H       -0.6762750    -2.4793460     0.0001770
  H       -2.8113470    -1.2573270     0.8936330
  H       -2.8107340    -1.2584070    -0.8933430
  H       -3.0286960     0.2691590    -0.0008180
  H        1.0742980     1.9581480     0.0003170
  H        1.8167570    -2.1872720    -0.0000870
units angstrom
no_reorient  #important for SAPT in psi4, default
symmetry c1  #important for SAPT in psi4, default
}

set PROPERTIES_ORIGIN ["COM"]
properties('MP2/aug-cc-pvtz', properties = ['dipole'])
--------------------------------------------------------------------------

    Molecular point group: c1
  Charge       = 0
  Multiplicity = 1
  Basis Set: AUG-CC-PVTZ
    Blend: AUG-CC-PVTZ
  Basis Set: (AUG-CC-PVTZ AUX)
    Blend: AUG-CC-PVTZ-JKFIT

    Orbital Energies [Eh]
    ---------------------

    Doubly Occupied:

       1A    -20.561256     2A    -20.549363     3A    -15.626302
       4A    -15.621508     5A    -11.419845     6A    -11.379159
       7A    -11.322095     8A    -11.280677     9A    -11.245716
      10A     -1.461585    11A     -1.433521    12A     -1.303756
      13A     -1.244356    14A     -1.070643    15A     -0.973150
      16A     -0.905987    17A     -0.875821    18A     -0.758088
      19A     -0.738993    20A     -0.702380    21A     -0.678305
      22A     -0.668179    23A     -0.661683    24A     -0.618500
      25A     -0.606679    26A     -0.599480    27A     -0.578770
      28A     -0.562847    29A     -0.493950    30A     -0.486806
      31A     -0.448572    32A     -0.445577    33A     -0.347107

  @DF-RHF Final Energy:  -451.65147756041046

   => Energetics <=

    Nuclear Repulsion Energy =            440.6988240814887945
    One-Electron Energy =               -1489.3592958092447134
    Two-Electron Energy =                 597.0089941673455769
    Total Energy =                       -451.6514775604103988
  Basis Set: (AUG-CC-PVTZ AUX)
    Blend: AUG-CC-PVTZ-RI
    Molecular point group: c1

    Geometry (in Angstrom), charge = 0, multiplicity = 1:

       Center              X                  Y                   Z               Mass
    ------------   -----------------  -----------------  -----------------  -----------------
         O           -1.449588300863     1.804763257065     0.000008349407    15.994914619570
         O            2.853148699137     0.224323257065    -0.000072650593    15.994914619570
         N           -1.144621300863    -0.491468742935     0.000184349407    14.003074004430
         N            0.679879699137     0.947738257065     0.000267349407    14.003074004430
         C           -0.708337600863     0.901808957065    -0.000260250593    12.000000000000
         C           -0.259238300863    -1.551959742935     0.000029349407    12.000000000000
         C           -2.583260300863    -0.747151742935    -0.000085650593    12.000000000000
         C            1.084060699137    -1.394251742935     0.000061349407    12.000000000000
         C            1.706547999137    -0.003698042935    -0.000169650593    12.000000000000
         H           -0.731332300863    -2.530180742935     0.000164349407     1.007825032230
         H           -2.866404300863    -1.308161742935     0.893620349407     1.007825032230
         H           -2.865791300863    -1.309241742935    -0.893355650593     1.007825032230
         H           -3.083753300863     0.218324257065    -0.000830650593     1.007825032230
         H            1.019240699137     1.907313257065     0.000304349407     1.007825032230
         H            1.761699699137    -2.238106742935    -0.000099650593     1.007825032230

  Basis Set: AUG-CC-PVTZ
    Blend: AUG-CC-PVTZ
  Basis Set: (AUG-CC-PVTZ AUX)
    Blend: AUG-CC-PVTZ-JKFIT
	 Reference Energy          =    -451.6514775604104557 [Eh]
	 Singles Energy            =      -0.0000000000000000 [Eh]
	 Same-Spin Energy          =      -0.4557642763219650 [Eh]
	 Opposite-Spin Energy      =      -1.3808757634719342 [Eh]
	 Correlation Energy        =      -1.8366400397938993 [Eh]
	 Total Energy              =    -453.4881176002043617 [Eh]

	 ================> DF-SCS-MP2 Energies <==================
	-----------------------------------------------------------
	 SCS Same-Spin Scale       =       0.3333333333333333 [-]
	 SCS Opposite-Spin Scale   =       1.2000000000000000 [-]
	 SCS Same-Spin Energy      =      -0.1519214254406550 [Eh]
	 SCS Opposite-Spin Energy  =      -1.6570509161663209 [Eh]
	 SCS Correlation Energy    =      -1.8089723416069758 [Eh]
	 SCS Total Energy          =    -453.4604499020174444 [Eh]
	-----------------------------------------------------------

  Dipole Moment: [D]
     X:    -2.8612      Y:    -2.5719      Z:    -0.0009     Total:     3.8472

*** Psi4 exiting successfully. Buy a developer a beer!
