                               Psi4 1.4a3.dev225

  ==> Input File <==

--------------------------------------------------------------------------
#psi4
#
memory 32 gb

molecule  {
0 1
  O       -1.4350980    -1.8086910     0.0000000
  O        2.9075840    -0.3082450     0.0000000
  N       -1.0785060     0.4619330     0.0000000
  N        0.7249750    -1.0056720    -0.0000010
  C       -0.6517050    -0.8641080     0.0000000
  C       -0.2166149     1.4703513     0.0000000
  C       -2.5245930     0.6731660     0.0000000
  C        1.1582900     1.3329580     0.0000000
  C        1.7164880    -0.0081480     0.0000000
  H       -0.6338540     2.4967290    -0.0000010
  H       -2.9690000     0.2175100    -0.8862740
  H       -2.7140630     1.7465080     0.0000000
  H       -2.9689990     0.2175090     0.8862740
  H        1.0585810    -1.9665760     0.0000000
  H        1.8360540     2.1766110     0.0000000
units angstrom
no_reorient  #important for SAPT in psi4, default
symmetry c1  #important for SAPT in psi4, default
}

set PROPERTIES_ORIGIN ["COM"]
properties('MP2/aug-cc-pvtz', properties = ['dipole'])
--------------------------------------------------------------------------

    Molecular point group: c1
  Charge       = 0
  Multiplicity = 1
  Basis Set: AUG-CC-PVTZ
    Blend: AUG-CC-PVTZ
  Basis Set: (AUG-CC-PVTZ AUX)
    Blend: AUG-CC-PVTZ-JKFIT

    Orbital Energies [Eh]
    ---------------------

    Doubly Occupied:

       1A    -20.549433     2A    -20.533308     3A    -15.651104
       4A    -15.627050     5A    -11.419676     6A    -11.375094
       7A    -11.340549     8A    -11.296843     9A    -11.250399
      10A     -1.434034    11A     -1.385531    12A     -1.326867
      13A     -1.248767    14A     -1.083889    15A     -0.994804
      16A     -0.937535    17A     -0.872339    18A     -0.774870
      19A     -0.752224    20A     -0.699268    21A     -0.692996
      22A     -0.660456    23A     -0.641337    24A     -0.612049
      25A     -0.610137    26A     -0.594066    27A     -0.584300
      28A     -0.550361    29A     -0.511058    30A     -0.481657
      31A     -0.442255    32A     -0.432685    33A     -0.350931

  @DF-RHF Final Energy:  -451.65784244698580

   => Energetics <=

    Nuclear Repulsion Energy =            442.3038584225938052
    One-Electron Energy =               -1492.4876605456267953
    Two-Electron Energy =                 598.5259596760472505
    Total Energy =                       -451.6578424469857964
  Basis Set: (AUG-CC-PVTZ AUX)
    Blend: AUG-CC-PVTZ-RI
    Molecular point group: c1

    Geometry (in Angstrom), charge = 0, multiplicity = 1:

       Center              X                  Y                   Z               Mass
    ------------   -----------------  -----------------  -----------------  -----------------
         O           -1.482247454820    -1.766665203677     0.000000119094    15.994914619570
         O            2.860434545180    -0.266219203677     0.000000119094    15.994914619570
         N           -1.125655454820     0.503958796323     0.000000119094    14.003074004430
         N            0.677825545180    -0.963646203677    -0.000000880906    14.003074004430
         C           -0.698854454820    -0.822082203677     0.000000119094    12.000000000000
         C           -0.263764354820     1.512377096323     0.000000119094    12.000000000000
         C           -2.571742454820     0.715191796323     0.000000119094    12.000000000000
         C            1.111140545180     1.374983796323     0.000000119094    12.000000000000
         C            1.669338545180     0.033877796323     0.000000119094    12.000000000000
         H           -0.681003454820     2.538754796323    -0.000000880906     1.007825032230
         H           -3.016149454820     0.259535796323    -0.886273880906     1.007825032230
         H           -2.761212454820     1.788533796323     0.000000119094     1.007825032230
         H           -3.016148454820     0.259534796323     0.886274119094     1.007825032230
         H            1.011431545180    -1.924550203677     0.000000119094     1.007825032230
         H            1.788904545180     2.218636796323     0.000000119094     1.007825032230

  Basis Set: AUG-CC-PVTZ
    Blend: AUG-CC-PVTZ
  Basis Set: (AUG-CC-PVTZ AUX)
    Blend: AUG-CC-PVTZ-JKFIT
	 Reference Energy          =    -451.6578424469857964 [Eh]
	 Singles Energy            =      -0.0000000000000000 [Eh]
	 Same-Spin Energy          =      -0.4586607890438434 [Eh]
	 Opposite-Spin Energy      =      -1.3849087526578190 [Eh]
	 Correlation Energy        =      -1.8435695417016624 [Eh]
	 Total Energy              =    -453.5014119886874369 [Eh]

	 ================> DF-SCS-MP2 Energies <==================
	-----------------------------------------------------------
	 SCS Same-Spin Scale       =       0.3333333333333333 [-]
	 SCS Opposite-Spin Scale   =       1.2000000000000000 [-]
	 SCS Same-Spin Energy      =      -0.1528869296812811 [Eh]
	 SCS Opposite-Spin Energy  =      -1.6618905031893827 [Eh]
	 SCS Correlation Energy    =      -1.8147774328706638 [Eh]
	 SCS Total Energy          =    -453.4726198798564383 [Eh]
	-----------------------------------------------------------

  Dipole Moment: [D]
     X:    -3.5235      Y:     3.4376      Z:     0.0000     Total:     4.9226

*** Psi4 exiting successfully. Buy a developer a beer!
