                               Psi4 1.3.2 release

  ==> Input File <==

--------------------------------------------------------------------------
#psi4
#
memory 32 gb

molecule  {
0 1
  O       -1.4114431     1.8424377     0.0000342
  O        2.9082060     0.2751580    -0.0000600
  N       -1.1125461    -0.4327435     0.0002107
  N        0.7349370     0.9985730     0.0002800
  C       -0.6489740     0.8800530    -0.0003070
  C       -0.2041810    -1.5011250     0.0000420
  C       -2.5282030    -0.6963170    -0.0000730
  C        1.1391180    -1.3434170     0.0000740
  C        1.7104040    -0.0052910    -0.0002190
  H       -0.6762750    -2.4793460     0.0001770
  H       -2.8113470    -1.2573270     0.8936330
  H       -2.8107340    -1.2584070    -0.8933430
  H       -3.0286960     0.2691590    -0.0008180
  H        1.0742980     1.9581480     0.0003170
  H        1.8167570    -2.1872720    -0.0000870
units angstrom
no_reorient  #important for SAPT in psi4, default
symmetry c1  #important for SAPT in psi4, default
}

set PROPERTIES_ORIGIN ["COM"]
properties('MP2/aug-cc-pvtz', properties = ['dipole'])
--------------------------------------------------------------------------

    Molecular point group: c1
  Charge       = 0
  Multiplicity = 1
  Basis Set: AUG-CC-PVTZ
    Blend: AUG-CC-PVTZ
  Basis Set: (AUG-CC-PVTZ AUX)
    Blend: AUG-CC-PVTZ-JKFIT

    Orbital Energies [Eh]
    ---------------------

    Doubly Occupied:

       1A    -20.543905     2A    -20.540996     3A    -15.642692
       4A    -15.628557     5A    -11.417904     6A    -11.381776
       7A    -11.338409     8A    -11.286432     9A    -11.258600
      10A     -1.427987    11A     -1.389857    12A     -1.308337
      13A     -1.247722    14A     -1.092410    15A     -0.990010
      16A     -0.927997    17A     -0.871852    18A     -0.772101
      19A     -0.753659    20A     -0.697862    21A     -0.684996
      22A     -0.658817    23A     -0.645877    24A     -0.615261
      25A     -0.612062    26A     -0.605617    27A     -0.567252
      28A     -0.554441    29A     -0.494550    30A     -0.478980
      31A     -0.447804    32A     -0.434402    33A     -0.362276

  @DF-RHF Final Energy:  -451.65957533351445

   => Energetics <=

    Nuclear Repulsion Energy =            441.0565070728333126
    One-Electron Energy =               -1490.0693608442265941
    Two-Electron Energy =                 597.3532784378788847
    Total Energy =                       -451.6595753335144536
  Basis Set: (AUG-CC-PVTZ AUX)
    Blend: AUG-CC-PVTZ-RI
    Molecular point group: c1

    Geometry (in Angstrom), charge = 0, multiplicity = 1:

       Center              X                  Y                   Z               Mass
    ------------   -----------------  -----------------  -----------------  -----------------
         O           -1.457336319498     1.804298849265     0.000029910249    15.994914619570
         O            2.862312780502     0.237019149265    -0.000064289751    15.994914619570
         N           -1.158439319498    -0.470882350735     0.000206410249    14.003074004430
         N            0.689043780502     0.960434149265     0.000275710249    14.003074004430
         C           -0.694867219498     0.841914149265    -0.000311289751    12.000000000000
         C           -0.250074219498    -1.539263850735     0.000037710249    12.000000000000
         C           -2.574096219498    -0.734455850735    -0.000077289751    12.000000000000
         C            1.093224780502    -1.381555850735     0.000069710249    12.000000000000
         C            1.664510780502    -0.043429850735    -0.000223289751    12.000000000000
         H           -0.722168219498    -2.517484850735     0.000172710249     1.007825032230
         H           -2.857240219498    -1.295465850735     0.893628710249     1.007825032230
         H           -2.856627219498    -1.296545850735    -0.893347289751     1.007825032230
         H           -3.074589219498     0.231020149265    -0.000822289751     1.007825032230
         H            1.028404780502     1.920009149265     0.000312710249     1.007825032230
         H            1.770863780502    -2.225410850735    -0.000091289751     1.007825032230

  Basis Set: AUG-CC-PVTZ
    Blend: AUG-CC-PVTZ
  Basis Set: (AUG-CC-PVTZ AUX)
    Blend: AUG-CC-PVTZ-JKFIT
	 Reference Energy          =    -451.6595753335144536 [Eh]
	 Singles Energy            =      -0.0000000000000000 [Eh]
	 Same-Spin Energy          =      -0.4579809303875200 [Eh]
	 Opposite-Spin Energy      =      -1.3848518882418077 [Eh]
	 Correlation Energy        =      -1.8428328186293277 [Eh]
	 Total Energy              =    -453.5024081521438006 [Eh]

	 ================> DF-SCS-MP2 Energies <==================
	-----------------------------------------------------------
	 SCS Same-Spin Scale       =       0.3333333333333333 [-]
	 SCS Opposite-Spin Scale   =       1.2000000000000000 [-]
	 SCS Same-Spin Energy      =      -0.1526603101291733 [Eh]
	 SCS Opposite-Spin Energy  =      -1.6618222658901691 [Eh]
	 SCS Correlation Energy    =      -1.8144825760193424 [Eh]
	 SCS Total Energy          =    -453.4740579095337694 [Eh]
	-----------------------------------------------------------

  Dipole Moment: [D]
     X:    -3.0565      Y:    -3.5263      Z:    -0.0009     Total:     4.6665

*** Psi4 exiting successfully. Buy a developer a beer!
