                               Psi4 1.3.2 release

  ==> Input File <==

--------------------------------------------------------------------------
#psi4
#
memory 32 gb

molecule  {
0 1
  O       -1.3945310     1.8555980     0.0000210
  O        2.9082060     0.2751580    -0.0000600
  N       -1.0895640    -0.4406340     0.0001970
  N        0.7349370     0.9985730     0.0002800
  C       -0.5804584     0.8551843    -0.0003322
  C       -0.1498926    -1.4533343     0.0000064
  C       -2.5282030    -0.6963170    -0.0000730
  C        1.1391180    -1.3434170     0.0000740
  C        1.7104040    -0.0052910    -0.0002190
  H       -0.6762750    -2.4793460     0.0001770
  H       -2.8113470    -1.2573270     0.8936330
  H       -2.8107340    -1.2584070    -0.8933430
  H       -3.0286960     0.2691590    -0.0008180
  H        1.0742980     1.9581480     0.0003170
  H        1.8167570    -2.1872720    -0.0000870
units angstrom
no_reorient  #important for SAPT in psi4, default
symmetry c1  #important for SAPT in psi4, default
}

set PROPERTIES_ORIGIN ["COM"]
properties('MP2/aug-cc-pvtz', properties = ['dipole'])
--------------------------------------------------------------------------

    Molecular point group: c1
  Charge       = 0
  Multiplicity = 1
  Basis Set: AUG-CC-PVTZ
    Blend: AUG-CC-PVTZ
  Basis Set: (AUG-CC-PVTZ AUX)
    Blend: AUG-CC-PVTZ-JKFIT

    Orbital Energies [Eh]
    ---------------------

    Doubly Occupied:

       1A    -20.547744     2A    -20.527636     3A    -15.645412
       4A    -15.638066     5A    -11.414489     6A    -11.387170
       7A    -11.334056     8A    -11.290874     9A    -11.253622
      10A     -1.421752    11A     -1.383314    12A     -1.295370
      13A     -1.264079    14A     -1.108183    15A     -0.994386
      16A     -0.923843    17A     -0.890742    18A     -0.782987
      19A     -0.761490    20A     -0.687659    21A     -0.686554
      22A     -0.661317    23A     -0.634655    24A     -0.621035
      25A     -0.613186    26A     -0.599295    27A     -0.563479
      28A     -0.546770    29A     -0.504427    30A     -0.464716
      31A     -0.447255    32A     -0.431880    33A     -0.370039

  @DF-RHF Final Energy:  -451.64355088490294

   => Energetics <=

    Nuclear Repulsion Energy =            442.6218568519358882
    One-Electron Energy =               -1493.1358527665242946
    Two-Electron Energy =                 598.8704450296853565
    Total Energy =                       -451.6435508849029929
  Basis Set: (AUG-CC-PVTZ AUX)
    Blend: AUG-CC-PVTZ-RI
    Molecular point group: c1

    Geometry (in Angstrom), charge = 0, multiplicity = 1:

       Center              X                  Y                   Z               Mass
    ------------   -----------------  -----------------  -----------------  -----------------
         O           -1.456815267251     1.814483412133     0.000025695878    15.994914619570
         O            2.845921732749     0.234043412133    -0.000055304122    15.994914619570
         N           -1.151848267251    -0.481748587867     0.000201695878    14.003074004430
         N            0.672652732749     0.957458412133     0.000284695878    14.003074004430
         C           -0.642742667251     0.814069712133    -0.000327504122    12.000000000000
         C           -0.212176867251    -1.494448887867     0.000011095878    12.000000000000
         C           -2.590487267251    -0.737431587867    -0.000068304122    12.000000000000
         C            1.076833732749    -1.384531587867     0.000078695878    12.000000000000
         C            1.648119732749    -0.046405587867    -0.000214304122    12.000000000000
         H           -0.738559267251    -2.520460587867     0.000181695878     1.007825032230
         H           -2.873631267251    -1.298441587867     0.893637695878     1.007825032230
         H           -2.873018267251    -1.299521587867    -0.893338304122     1.007825032230
         H           -3.090980267251     0.228044412133    -0.000813304122     1.007825032230
         H            1.012013732749     1.917033412133     0.000321695878     1.007825032230
         H            1.754472732749    -2.228386587867    -0.000082304122     1.007825032230

  Basis Set: AUG-CC-PVTZ
    Blend: AUG-CC-PVTZ
  Basis Set: (AUG-CC-PVTZ AUX)
    Blend: AUG-CC-PVTZ-JKFIT
	 Reference Energy          =    -451.6435508849029361 [Eh]
	 Singles Energy            =      -0.0000000000000000 [Eh]
	 Same-Spin Energy          =      -0.4585681999455118 [Eh]
	 Opposite-Spin Energy      =      -1.3854541256255732 [Eh]
	 Correlation Energy        =      -1.8440223255710850 [Eh]
	 Total Energy              =    -453.4875732104740109 [Eh]

	 ================> DF-SCS-MP2 Energies <==================
	-----------------------------------------------------------
	 SCS Same-Spin Scale       =       0.3333333333333333 [-]
	 SCS Opposite-Spin Scale   =       1.2000000000000000 [-]
	 SCS Same-Spin Energy      =      -0.1528560666485039 [Eh]
	 SCS Opposite-Spin Energy  =      -1.6625449507506878 [Eh]
	 SCS Correlation Energy    =      -1.8154010173991917 [Eh]
	 SCS Total Energy          =    -453.4589519023021467 [Eh]
	-----------------------------------------------------------

  Dipole Moment: [D]
     X:    -2.6039      Y:    -3.8240      Z:    -0.0008     Total:     4.6264

*** Psi4 exiting successfully. Buy a developer a beer!
