                               Psi4 1.3.2 release

  ==> Input File <==

--------------------------------------------------------------------------
#psi4
#
memory 32 gb

molecule  {
0 1
  O       -1.3945310     1.8555980     0.0000210
  O        2.9082060     0.2751580    -0.0000600
  N       -1.0895640    -0.4406340     0.0001970
  N        0.7004969     0.9639182     0.0002976
  C       -0.6489740     0.8800530    -0.0003070
  C       -0.2041810    -1.5011250     0.0000420
  C       -2.5282030    -0.6963170    -0.0000730
  C        1.0927661    -1.3226643     0.0000977
  C        1.7104040    -0.0052910    -0.0002190
  H       -0.6762750    -2.4793460     0.0001770
  H       -2.8113470    -1.2573270     0.8936330
  H       -2.8107340    -1.2584070    -0.8933430
  H       -3.0286960     0.2691590    -0.0008180
  H        1.0742980     1.9581480     0.0003170
  H        1.8167570    -2.1872720    -0.0000870
units angstrom
no_reorient  #important for SAPT in psi4, default
symmetry c1  #important for SAPT in psi4, default
}

set PROPERTIES_ORIGIN ["COM"]
properties('MP2/aug-cc-pvtz', properties = ['dipole'])
--------------------------------------------------------------------------

    Molecular point group: c1
  Charge       = 0
  Multiplicity = 1
  Basis Set: AUG-CC-PVTZ
    Blend: AUG-CC-PVTZ
  Basis Set: (AUG-CC-PVTZ AUX)
    Blend: AUG-CC-PVTZ-JKFIT

    Orbital Energies [Eh]
    ---------------------

    Doubly Occupied:

       1A    -20.547041     2A    -20.541071     3A    -15.638389
       4A    -15.629902     5A    -11.413745     6A    -11.385337
       7A    -11.329057     8A    -11.286755     9A    -11.253957
      10A     -1.430008    11A     -1.391392    12A     -1.313082
      13A     -1.249891    14A     -1.099382    15A     -0.989455
      16A     -0.927223    17A     -0.882179    18A     -0.772655
      19A     -0.744374    20A     -0.698078    21A     -0.686738
      22A     -0.656941    23A     -0.644505    24A     -0.616620
      25A     -0.605745    26A     -0.598444    27A     -0.560620
      28A     -0.555394    29A     -0.501656    30A     -0.478750
      31A     -0.450664    32A     -0.435661    33A     -0.365186

  @DF-RHF Final Energy:  -451.65203413937257

   => Energetics <=

    Nuclear Repulsion Energy =            442.9292844074595905
    One-Electron Energy =               -1493.8028413387442015
    Two-Electron Energy =                 599.2215227919119798
    Total Energy =                       -451.6520341393726312
  Basis Set: (AUG-CC-PVTZ AUX)
    Blend: AUG-CC-PVTZ-RI
    Molecular point group: c1

    Geometry (in Angstrom), charge = 0, multiplicity = 1:

       Center              X                  Y                   Z               Mass
    ------------   -----------------  -----------------  -----------------  -----------------
         O           -1.436884453837     1.818540008877     0.000015695681    15.994914619570
         O            2.865852546163     0.238100008877    -0.000065304319    15.994914619570
         N           -1.131917453837    -0.477691991123     0.000191695681    14.003074004430
         N            0.658143446163     0.926860208877     0.000292295681    14.003074004430
         C           -0.691327453837     0.842995008877    -0.000312304319    12.000000000000
         C           -0.246534453837    -1.538182991123     0.000036695681    12.000000000000
         C           -2.570556453837    -0.733374991123    -0.000078304319    12.000000000000
         C            1.050412646163    -1.359722291123     0.000092395681    12.000000000000
         C            1.668050546163    -0.042348991123    -0.000224304319    12.000000000000
         H           -0.718628453837    -2.516403991123     0.000171695681     1.007825032230
         H           -2.853700453837    -1.294384991123     0.893627695681     1.007825032230
         H           -2.853087453837    -1.295464991123    -0.893348304319     1.007825032230
         H           -3.071049453837     0.232101008877    -0.000823304319     1.007825032230
         H            1.031944546163     1.921090008877     0.000311695681     1.007825032230
         H            1.774403546163    -2.224329991123    -0.000092304319     1.007825032230

  Basis Set: AUG-CC-PVTZ
    Blend: AUG-CC-PVTZ
  Basis Set: (AUG-CC-PVTZ AUX)
    Blend: AUG-CC-PVTZ-JKFIT
	 Reference Energy          =    -451.6520341393725744 [Eh]
	 Singles Energy            =      -0.0000000000000000 [Eh]
	 Same-Spin Energy          =      -0.4588103820287167 [Eh]
	 Opposite-Spin Energy      =      -1.3854939485352875 [Eh]
	 Correlation Energy        =      -1.8443043305640041 [Eh]
	 Total Energy              =    -453.4963384699365747 [Eh]

	 ================> DF-SCS-MP2 Energies <==================
	-----------------------------------------------------------
	 SCS Same-Spin Scale       =       0.3333333333333333 [-]
	 SCS Opposite-Spin Scale   =       1.2000000000000000 [-]
	 SCS Same-Spin Energy      =      -0.1529367940095722 [Eh]
	 SCS Opposite-Spin Energy  =      -1.6625927382423449 [Eh]
	 SCS Correlation Energy    =      -1.8155295322519172 [Eh]
	 SCS Total Energy          =    -453.4675636716244753 [Eh]
	-----------------------------------------------------------

  Dipole Moment: [D]
     X:    -2.9726      Y:    -3.5224      Z:    -0.0009     Total:     4.6090

*** Psi4 exiting successfully. Buy a developer a beer!
