                               Psi4 1.4a3.dev225

  ==> Input File <==

--------------------------------------------------------------------------
#psi4
#
memory 32 gb

molecule  {
0 1
  O       -1.4350980    -1.8086910     0.0000000
  O        2.9075840    -0.3082450     0.0000000
  N       -1.0785060     0.4619330     0.0000000
  N        0.7249750    -1.0056720    -0.0000010
  C       -0.6517050    -0.8641080     0.0000000
  C       -0.1841290     1.5083600     0.0000000
  C       -2.5048030     0.6702752     0.0000000
  C        1.1582900     1.3329580     0.0000000
  C        1.7164880    -0.0081480     0.0000000
  H       -0.6338540     2.4967290    -0.0000010
  H       -2.9690000     0.2175100    -0.8862740
  H       -2.7140630     1.7465080     0.0000000
  H       -2.9689990     0.2175090     0.8862740
  H        1.0585810    -1.9665760     0.0000000
  H        1.8360540     2.1766110     0.0000000
units angstrom
no_reorient  #important for SAPT in psi4, default
symmetry c1  #important for SAPT in psi4, default
}

set PROPERTIES_ORIGIN ["COM"]
properties('MP2/aug-cc-pvtz', properties = ['dipole'])
--------------------------------------------------------------------------

    Molecular point group: c1
  Charge       = 0
  Multiplicity = 1
  Basis Set: AUG-CC-PVTZ
    Blend: AUG-CC-PVTZ
  Basis Set: (AUG-CC-PVTZ AUX)
    Blend: AUG-CC-PVTZ-JKFIT

    Orbital Energies [Eh]
    ---------------------

    Doubly Occupied:

       1A    -20.546622     2A    -20.539110     3A    -15.645602
       4A    -15.627208     5A    -11.416898     6A    -11.380308
       7A    -11.338807     8A    -11.292138     9A    -11.254248
      10A     -1.430265    11A     -1.389429    12A     -1.314938
      13A     -1.247820    14A     -1.092646    15A     -0.988533
      16A     -0.932571    17A     -0.872313    18A     -0.774019
      19A     -0.753197    20A     -0.701818    21A     -0.687230
      22A     -0.660072    23A     -0.645184    24A     -0.609293
      25A     -0.607925    26A     -0.604251    27A     -0.575100
      28A     -0.550229    29A     -0.501959    30A     -0.480840
      31A     -0.446651    32A     -0.433350    33A     -0.358994

  @DF-RHF Final Energy:  -451.66087740788356

   => Energetics <=

    Nuclear Repulsion Energy =            442.0026521849256369
    One-Electron Energy =               -1491.9279222580428268
    Two-Electron Energy =                 598.2643926652336859
    Total Energy =                       -451.6608774078835040
  Basis Set: (AUG-CC-PVTZ AUX)
    Blend: AUG-CC-PVTZ-RI
    Molecular point group: c1

    Geometry (in Angstrom), charge = 0, multiplicity = 1:

       Center              X                  Y                   Z               Mass
    ------------   -----------------  -----------------  -----------------  -----------------
         O           -1.487224416342    -1.770008626498     0.000000119094    15.994914619570
         O            2.855457583658    -0.269562626498     0.000000119094    15.994914619570
         N           -1.130632416342     0.500615373502     0.000000119094    14.003074004430
         N            0.672848583658    -0.966989626498    -0.000000880906    14.003074004430
         C           -0.703831416342    -0.825425626498     0.000000119094    12.000000000000
         C           -0.236255416342     1.547042373502     0.000000119094    12.000000000000
         C           -2.556929416342     0.708957573502     0.000000119094    12.000000000000
         C            1.106163583658     1.371640373502     0.000000119094    12.000000000000
         C            1.664361583658     0.030534373502     0.000000119094    12.000000000000
         H           -0.685980416342     2.535411373502    -0.000000880906     1.007825032230
         H           -3.021126416342     0.256192373502    -0.886273880906     1.007825032230
         H           -2.766189416342     1.785190373502     0.000000119094     1.007825032230
         H           -3.021125416342     0.256191373502     0.886274119094     1.007825032230
         H            1.006454583658    -1.927893626498     0.000000119094     1.007825032230
         H            1.783927583658     2.215293373502     0.000000119094     1.007825032230

  Basis Set: AUG-CC-PVTZ
    Blend: AUG-CC-PVTZ
  Basis Set: (AUG-CC-PVTZ AUX)
    Blend: AUG-CC-PVTZ-JKFIT
	 Reference Energy          =    -451.6608774078835609 [Eh]
	 Singles Energy            =      -0.0000000000000000 [Eh]
	 Same-Spin Energy          =      -0.4581754775092022 [Eh]
	 Opposite-Spin Energy      =      -1.3847418241311555 [Eh]
	 Correlation Energy        =      -1.8429173016403577 [Eh]
	 Total Energy              =    -453.5037947095239019 [Eh]

	 ================> DF-SCS-MP2 Energies <==================
	-----------------------------------------------------------
	 SCS Same-Spin Scale       =       0.3333333333333333 [-]
	 SCS Opposite-Spin Scale   =       1.2000000000000000 [-]
	 SCS Same-Spin Energy      =      -0.1527251591697341 [Eh]
	 SCS Opposite-Spin Energy  =      -1.6616901889573865 [Eh]
	 SCS Correlation Energy    =      -1.8144153481271206 [Eh]
	 SCS Total Energy          =    -453.4752927560106741 [Eh]
	-----------------------------------------------------------

  Dipole Moment: [D]
     X:    -3.1529      Y:     3.5366      Z:     0.0000     Total:     4.7380

*** Psi4 exiting successfully. Buy a developer a beer!
