                               Psi4 1.3.2 release

  ==> Input File <==

--------------------------------------------------------------------------
#psi4
#
memory 32 gb

molecule  {
0 1
  O       -1.3945310     1.8555980     0.0000210
  O        2.9082060     0.2751580    -0.0000600
  N       -1.0895640    -0.4406340     0.0001970
  N        0.7349370     0.9985730     0.0002800
  C       -0.6489740     0.8800530    -0.0003070
  C       -0.2041810    -1.5011250     0.0000420
  C       -2.5282030    -0.6963170    -0.0000730
  C        1.1391180    -1.3434170     0.0000740
  C        1.6318753    -0.1892291    -0.0001787
  H       -0.6762750    -2.4793460     0.0001770
  H       -2.8113470    -1.2573270     0.8936330
  H       -2.8107340    -1.2584070    -0.8933430
  H       -3.0286960     0.2691590    -0.0008180
  H        1.0742980     1.9581480     0.0003170
  H        1.8167570    -2.1872720    -0.0000870
units angstrom
no_reorient  #important for SAPT in psi4, default
symmetry c1  #important for SAPT in psi4, default
}

set PROPERTIES_ORIGIN ["COM"]
properties('MP2/aug-cc-pvtz', properties = ['dipole'])
--------------------------------------------------------------------------

    Molecular point group: c1
  Charge       = 0
  Multiplicity = 1
  Basis Set: AUG-CC-PVTZ
    Blend: AUG-CC-PVTZ
  Basis Set: (AUG-CC-PVTZ AUX)
    Blend: AUG-CC-PVTZ-JKFIT

    Orbital Energies [Eh]
    ---------------------

    Doubly Occupied:

       1A    -20.543738     2A    -20.510510     3A    -15.665160
       4A    -15.621550     5A    -11.414142     6A    -11.372804
       7A    -11.372132     8A    -11.300873     9A    -11.250161
      10A     -1.427299    11A     -1.334344    12A     -1.302606
      13A     -1.211314    14A     -1.139116    15A     -1.002580
      16A     -0.966053    17A     -0.855096    18A     -0.777251
      19A     -0.768888    20A     -0.712644    21A     -0.693414
      22A     -0.658786    23A     -0.642752    24A     -0.622003
      25A     -0.611339    26A     -0.586785    27A     -0.556920
      28A     -0.544011    29A     -0.500292    30A     -0.475580
      31A     -0.418494    32A     -0.416202    33A     -0.366440

  @DF-RHF Final Energy:  -451.58489743165558

   => Energetics <=

    Nuclear Repulsion Energy =            441.4292249629964999
    One-Electron Energy =               -1490.7456846804441284
    Two-Electron Energy =                 597.7315622857921653
    Total Energy =                       -451.5848974316555768
  Basis Set: (AUG-CC-PVTZ AUX)
    Blend: AUG-CC-PVTZ-RI
    Molecular point group: c1

    Geometry (in Angstrom), charge = 0, multiplicity = 1:

       Center              X                  Y                   Z               Mass
    ------------   -----------------  -----------------  -----------------  -----------------
         O           -1.437647254820     1.834177664325     0.000016070586    15.994914619570
         O            2.865089745180     0.253737664325    -0.000064929414    15.994914619570
         N           -1.132680254820    -0.462054335675     0.000192070586    14.003074004430
         N            0.691820745180     0.977152664325     0.000275070586    14.003074004430
         C           -0.692090254820     0.858632664325    -0.000311929414    12.000000000000
         C           -0.247297254820    -1.522545335675     0.000037070586    12.000000000000
         C           -2.571319254820    -0.717737335675    -0.000077929414    12.000000000000
         C            1.096001745180    -1.364837335675     0.000069070586    12.000000000000
         C            1.588759045180    -0.210649435675    -0.000183629414    12.000000000000
         H           -0.719391254820    -2.500766335675     0.000172070586     1.007825032230
         H           -2.854463254820    -1.278747335675     0.893628070586     1.007825032230
         H           -2.853850254820    -1.279827335675    -0.893347929414     1.007825032230
         H           -3.071812254820     0.247738664325    -0.000822929414     1.007825032230
         H            1.031181745180     1.936727664325     0.000312070586     1.007825032230
         H            1.773640745180    -2.208692335675    -0.000091929414     1.007825032230

  Basis Set: AUG-CC-PVTZ
    Blend: AUG-CC-PVTZ
  Basis Set: (AUG-CC-PVTZ AUX)
    Blend: AUG-CC-PVTZ-JKFIT
	 Reference Energy          =    -451.5848974316555768 [Eh]
	 Singles Energy            =      -0.0000000000000000 [Eh]
	 Same-Spin Energy          =      -0.4638720954705896 [Eh]
	 Opposite-Spin Energy      =      -1.3944956269410693 [Eh]
	 Correlation Energy        =      -1.8583677224116588 [Eh]
	 Total Energy              =    -453.4432651540672623 [Eh]

	 ================> DF-SCS-MP2 Energies <==================
	-----------------------------------------------------------
	 SCS Same-Spin Scale       =       0.3333333333333333 [-]
	 SCS Opposite-Spin Scale   =       1.2000000000000000 [-]
	 SCS Same-Spin Energy      =      -0.1546240318235299 [Eh]
	 SCS Opposite-Spin Energy  =      -1.6733947523292831 [Eh]
	 SCS Correlation Energy    =      -1.8280187841528130 [Eh]
	 SCS Total Energy          =    -453.4129162158083659 [Eh]
	-----------------------------------------------------------

  Dipole Moment: [D]
     X:    -4.2054      Y:    -4.3963      Z:    -0.0006     Total:     6.0839

*** Psi4 exiting successfully. Buy a developer a beer!
