                               Psi4 1.3.2 release

  ==> Input File <==

--------------------------------------------------------------------------
#psi4
#
memory 32 gb

molecule  {
0 1
  O       -1.3945310     1.8555980     0.0000210
  O        2.9082060     0.2751580    -0.0000600
  N       -1.0895640    -0.4406340     0.0001970
  N        0.7349370     0.9985730     0.0002800
  C       -0.6173279     0.9749135    -0.0003432
  C       -0.2041810    -1.5011250     0.0000420
  C       -2.5282030    -0.6963170    -0.0000730
  C        1.1391180    -1.3434170     0.0000740
  C        1.7104040    -0.0052910    -0.0002190
  H       -0.6762750    -2.4793460     0.0001770
  H       -2.8113470    -1.2573270     0.8936330
  H       -2.8107340    -1.2584070    -0.8933430
  H       -3.0286960     0.2691590    -0.0008180
  H        1.0742980     1.9581480     0.0003170
  H        1.8167570    -2.1872720    -0.0000870
units angstrom
no_reorient  #important for SAPT in psi4, default
symmetry c1  #important for SAPT in psi4, default
}

set PROPERTIES_ORIGIN ["COM"]
properties('MP2/aug-cc-pvtz', properties = ['dipole'])
--------------------------------------------------------------------------

    Molecular point group: c1
  Charge       = 0
  Multiplicity = 1
  Basis Set: AUG-CC-PVTZ
    Blend: AUG-CC-PVTZ
  Basis Set: (AUG-CC-PVTZ AUX)
    Blend: AUG-CC-PVTZ-JKFIT

    Orbital Energies [Eh]
    ---------------------

    Doubly Occupied:

       1A    -20.562228     2A    -20.539608     3A    -15.630759
       4A    -15.629190     5A    -11.421821     6A    -11.382086
       7A    -11.330873     8A    -11.282484     9A    -11.245771
      10A     -1.459518    11A     -1.393618    12A     -1.304491
      13A     -1.250972    14A     -1.083321    15A     -0.975078
      16A     -0.914048    17A     -0.884163    18A     -0.760329
      19A     -0.750202    20A     -0.701571    21A     -0.679909
      22A     -0.674986    23A     -0.642303    24A     -0.618716
      25A     -0.604176    26A     -0.601198    27A     -0.565390
      28A     -0.562873    29A     -0.494617    30A     -0.485742
      31A     -0.450334    32A     -0.443518    33A     -0.349672

  @DF-RHF Final Energy:  -451.65149083049738

   => Energetics <=

    Nuclear Repulsion Energy =            440.7637087700289271
    One-Electron Energy =               -1489.4792724866285880
    Two-Electron Energy =                 597.0640728861023945
    Total Energy =                       -451.6514908304973233
  Basis Set: (AUG-CC-PVTZ AUX)
    Blend: AUG-CC-PVTZ-RI
    Molecular point group: c1

    Geometry (in Angstrom), charge = 0, multiplicity = 1:

       Center              X                  Y                   Z               Mass
    ------------   -----------------  -----------------  -----------------  -----------------
         O           -1.448136519286     1.807634459816     0.000023353819    15.994914619570
         O            2.854600480714     0.227194459816    -0.000057646181    15.994914619570
         N           -1.143169519286    -0.488597540184     0.000199353819    14.003074004430
         N            0.681331480714     0.950609459816     0.000282353819    14.003074004430
         C           -0.670933419286     0.926949959816    -0.000340846181    12.000000000000
         C           -0.257786519286    -1.549088540184     0.000044353819    12.000000000000
         C           -2.581808519286    -0.744280540184    -0.000070646181    12.000000000000
         C            1.085512480714    -1.391380540184     0.000076353819    12.000000000000
         C            1.656798480714    -0.053254540184    -0.000216646181    12.000000000000
         H           -0.729880519286    -2.527309540184     0.000179353819     1.007825032230
         H           -2.864952519286    -1.305290540184     0.893635353819     1.007825032230
         H           -2.864339519286    -1.306370540184    -0.893340646181     1.007825032230
         H           -3.082301519286     0.221195459816    -0.000815646181     1.007825032230
         H            1.020692480714     1.910184459816     0.000319353819     1.007825032230
         H            1.763151480714    -2.235235540184    -0.000084646181     1.007825032230

  Basis Set: AUG-CC-PVTZ
    Blend: AUG-CC-PVTZ
  Basis Set: (AUG-CC-PVTZ AUX)
    Blend: AUG-CC-PVTZ-JKFIT
	 Reference Energy          =    -451.6514908304973801 [Eh]
	 Singles Energy            =      -0.0000000000000000 [Eh]
	 Same-Spin Energy          =      -0.4578369384555991 [Eh]
	 Opposite-Spin Energy      =      -1.3840703531702776 [Eh]
	 Correlation Energy        =      -1.8419072916258767 [Eh]
	 Total Energy              =    -453.4933981221232671 [Eh]

	 ================> DF-SCS-MP2 Energies <==================
	-----------------------------------------------------------
	 SCS Same-Spin Scale       =       0.3333333333333333 [-]
	 SCS Opposite-Spin Scale   =       1.2000000000000000 [-]
	 SCS Same-Spin Energy      =      -0.1526123128185330 [Eh]
	 SCS Opposite-Spin Energy  =      -1.6608844238043330 [Eh]
	 SCS Correlation Energy    =      -1.8134967366228660 [Eh]
	 SCS Total Energy          =    -453.4649875671202608 [Eh]
	-----------------------------------------------------------

  Dipole Moment: [D]
     X:    -3.2358      Y:    -2.7089      Z:    -0.0010     Total:     4.2200

*** Psi4 exiting successfully. Buy a developer a beer!
