                               Psi4 1.3.2 release

  ==> Input File <==

--------------------------------------------------------------------------
#psi4
#
memory 32 gb

molecule  {
0 1
  O       -1.4030157     1.8490547     0.0000276
  O        2.9082060     0.2751580    -0.0000600
  N       -1.1010722    -0.4367389     0.0002039
  N        0.7349370     0.9985730     0.0002800
  C       -0.6489740     0.8800530    -0.0003070
  C       -0.2041810    -1.5011250     0.0000420
  C       -2.5282030    -0.6963170    -0.0000730
  C        1.1391180    -1.3434170     0.0000740
  C        1.7104040    -0.0052910    -0.0002190
  H       -0.6762750    -2.4793460     0.0001770
  H       -2.8113470    -1.2573270     0.8936330
  H       -2.8107340    -1.2584070    -0.8933430
  H       -3.0286960     0.2691590    -0.0008180
  H        1.0742980     1.9581480     0.0003170
  H        1.8167570    -2.1872720    -0.0000870
units angstrom
no_reorient  #important for SAPT in psi4, default
symmetry c1  #important for SAPT in psi4, default
}

set PROPERTIES_ORIGIN ["COM"]
properties('MP2/aug-cc-pvtz', properties = ['dipole'])
--------------------------------------------------------------------------

    Molecular point group: c1
  Charge       = 0
  Multiplicity = 1
  Basis Set: AUG-CC-PVTZ
    Blend: AUG-CC-PVTZ
  Basis Set: (AUG-CC-PVTZ AUX)
    Blend: AUG-CC-PVTZ-JKFIT

    Orbital Energies [Eh]
    ---------------------

    Doubly Occupied:

       1A    -20.544699     2A    -20.539910     3A    -15.643593
       4A    -15.627566     5A    -11.418203     6A    -11.380817
       7A    -11.337787     8A    -11.288213     9A    -11.257390
      10A     -1.428152    11A     -1.388996    12A     -1.310297
      13A     -1.246670    14A     -1.091791    15A     -0.989826
      16A     -0.929309    17A     -0.872133    18A     -0.772035
      19A     -0.752973    20A     -0.698864    21A     -0.685089
      22A     -0.658240    23A     -0.645113    24A     -0.615080
      25A     -0.611056    26A     -0.604036    27A     -0.569624
      28A     -0.554334    29A     -0.496986    30A     -0.479496
      31A     -0.446981    32A     -0.433734    33A     -0.361484

  @DF-RHF Final Energy:  -451.66031251474590

   => Energetics <=

    Nuclear Repulsion Energy =            441.1134380707702007
    One-Electron Energy =               -1490.1865535338015434
    Two-Electron Energy =                 597.4128029482855027
    Total Energy =                       -451.6603125147458968
  Basis Set: (AUG-CC-PVTZ AUX)
    Blend: AUG-CC-PVTZ-RI
    Molecular point group: c1

    Geometry (in Angstrom), charge = 0, multiplicity = 1:

       Center              X                  Y                   Z               Mass
    ------------   -----------------  -----------------  -----------------  -----------------
         O           -1.451253084461     1.810520028023     0.000024903256    15.994914619570
         O            2.859968615539     0.236623328023    -0.000062696744    15.994914619570
         N           -1.149309584461    -0.475273571977     0.000201203256    14.003074004430
         N            0.686699615539     0.960038328023     0.000277303256    14.003074004430
         C           -0.697211384461     0.841518328023    -0.000309696744    12.000000000000
         C           -0.252418384461    -1.539659671977     0.000039303256    12.000000000000
         C           -2.576440384461    -0.734851671977    -0.000075696744    12.000000000000
         C            1.090880615539    -1.381951671977     0.000071303256    12.000000000000
         C            1.662166615539    -0.043825671977    -0.000221696744    12.000000000000
         H           -0.724512384461    -2.517880671977     0.000174303256     1.007825032230
         H           -2.859584384461    -1.295861671977     0.893630303256     1.007825032230
         H           -2.858971384461    -1.296941671977    -0.893345696744     1.007825032230
         H           -3.076933384461     0.230624328023    -0.000820696744     1.007825032230
         H            1.026060615539     1.919613328023     0.000314303256     1.007825032230
         H            1.768519615539    -2.225806671977    -0.000089696744     1.007825032230

  Basis Set: AUG-CC-PVTZ
    Blend: AUG-CC-PVTZ
  Basis Set: (AUG-CC-PVTZ AUX)
    Blend: AUG-CC-PVTZ-JKFIT
	 Reference Energy          =    -451.6603125147458968 [Eh]
	 Singles Energy            =      -0.0000000000000000 [Eh]
	 Same-Spin Energy          =      -0.4580069210734581 [Eh]
	 Opposite-Spin Energy      =      -1.3848158079377331 [Eh]
	 Correlation Energy        =      -1.8428227290111912 [Eh]
	 Total Energy              =    -453.5031352437570717 [Eh]

	 ================> DF-SCS-MP2 Energies <==================
	-----------------------------------------------------------
	 SCS Same-Spin Scale       =       0.3333333333333333 [-]
	 SCS Opposite-Spin Scale   =       1.2000000000000000 [-]
	 SCS Same-Spin Energy      =      -0.1526689736911527 [Eh]
	 SCS Opposite-Spin Energy  =      -1.6617789695252796 [Eh]
	 SCS Correlation Energy    =      -1.8144479432164322 [Eh]
	 SCS Total Energy          =    -453.4747604579623044 [Eh]
	-----------------------------------------------------------

  Dipole Moment: [D]
     X:    -3.1459      Y:    -3.5335      Z:    -0.0009     Total:     4.7310

*** Psi4 exiting successfully. Buy a developer a beer!
