                               Psi4 1.3.2 release

  ==> Input File <==

--------------------------------------------------------------------------
#psi4
#
memory 32 gb

molecule  {
0 1
  O       -1.3945310     1.8555980     0.0000210
  O        2.8976888     0.3167898    -0.0000749
  N       -1.0895640    -0.4406340     0.0001970
  N        0.7349370     0.9985730     0.0002800
  C       -0.6489740     0.8800530    -0.0003070
  C       -0.2041810    -1.5011250     0.0000420
  C       -2.5282030    -0.6963170    -0.0000730
  C        1.0927661    -1.3226643     0.0000582
  C        1.7104040    -0.0052910    -0.0002190
  H       -0.6762750    -2.4793460     0.0001770
  H       -2.8113470    -1.2573270     0.8936330
  H       -2.8107340    -1.2584070    -0.8933430
  H       -3.0286960     0.2691590    -0.0008180
  H        1.0742980     1.9581480     0.0003170
  H        1.8167570    -2.1872720    -0.0000870
units angstrom
no_reorient  #important for SAPT in psi4, default
symmetry c1  #important for SAPT in psi4, default
}

set PROPERTIES_ORIGIN ["COM"]
properties('MP2/aug-cc-pvtz', properties = ['dipole'])
--------------------------------------------------------------------------

    Molecular point group: c1
  Charge       = 0
  Multiplicity = 1
  Basis Set: AUG-CC-PVTZ
    Blend: AUG-CC-PVTZ
  Basis Set: (AUG-CC-PVTZ AUX)
    Blend: AUG-CC-PVTZ-JKFIT

    Orbital Energies [Eh]
    ---------------------

    Doubly Occupied:

       1A    -20.543413     2A    -20.542270     3A    -15.640998
       4A    -15.623827     5A    -11.416330     6A    -11.382272
       7A    -11.331227     8A    -11.288476     9A    -11.256766
      10A     -1.427356    11A     -1.390204    12A     -1.312193
      13A     -1.243740    14A     -1.100357    15A     -0.988095
      16A     -0.930547    17A     -0.872248    18A     -0.773860
      19A     -0.749486    20A     -0.703493    21A     -0.684703
      22A     -0.656182    23A     -0.644039    24A     -0.614431
      25A     -0.607123    26A     -0.600818    27A     -0.564457
      28A     -0.554556    29A     -0.502770    30A     -0.479907
      31A     -0.447399    32A     -0.431643    33A     -0.366750

  @DF-RHF Final Energy:  -451.65673855954009

   => Energetics <=

    Nuclear Repulsion Energy =            442.1459806898365628
    One-Electron Energy =               -1492.2615661422150879
    Two-Electron Energy =                 598.4588468928384373
    Total Energy =                       -451.6567385595401447
  Basis Set: (AUG-CC-PVTZ AUX)
    Blend: AUG-CC-PVTZ-RI
    Molecular point group: c1

    Geometry (in Angstrom), charge = 0, multiplicity = 1:

       Center              X                  Y                   Z               Mass
    ------------   -----------------  -----------------  -----------------  -----------------
         O           -1.439376029995     1.809406844178     0.000023302441    15.994914619570
         O            2.852843770005     0.270598644178    -0.000072597559    15.994914619570
         N           -1.134409029995    -0.486825155822     0.000199302441    14.003074004430
         N            0.690091970005     0.952381844178     0.000282302441    14.003074004430
         C           -0.693819029995     0.833861844178    -0.000304697559    12.000000000000
         C           -0.249026029995    -1.547316155822     0.000044302441    12.000000000000
         C           -2.573048029995    -0.742508155822    -0.000070697559    12.000000000000
         C            1.047921070005    -1.368855455822     0.000060502441    12.000000000000
         C            1.665558970005    -0.051482155822    -0.000216697559    12.000000000000
         H           -0.721120029995    -2.525537155822     0.000179302441     1.007825032230
         H           -2.856192029995    -1.303518155822     0.893635302441     1.007825032230
         H           -2.855579029995    -1.304598155822    -0.893340697559     1.007825032230
         H           -3.073541029995     0.222967844178    -0.000815697559     1.007825032230
         H            1.029452970005     1.911956844178     0.000319302441     1.007825032230
         H            1.771911970005    -2.233463155822    -0.000084697559     1.007825032230

  Basis Set: AUG-CC-PVTZ
    Blend: AUG-CC-PVTZ
  Basis Set: (AUG-CC-PVTZ AUX)
    Blend: AUG-CC-PVTZ-JKFIT
	 Reference Energy          =    -451.6567385595400879 [Eh]
	 Singles Energy            =      -0.0000000000000000 [Eh]
	 Same-Spin Energy          =      -0.4580024621602110 [Eh]
	 Opposite-Spin Energy      =      -1.3844912675523626 [Eh]
	 Correlation Energy        =      -1.8424937297125736 [Eh]
	 Total Energy              =    -453.4992322892526886 [Eh]

	 ================> DF-SCS-MP2 Energies <==================
	-----------------------------------------------------------
	 SCS Same-Spin Scale       =       0.3333333333333333 [-]
	 SCS Opposite-Spin Scale   =       1.2000000000000000 [-]
	 SCS Same-Spin Energy      =      -0.1526674873867370 [Eh]
	 SCS Opposite-Spin Energy  =      -1.6613895210628351 [Eh]
	 SCS Correlation Energy    =      -1.8140570084495722 [Eh]
	 SCS Total Energy          =    -453.4707955679896827 [Eh]
	-----------------------------------------------------------

  Dipole Moment: [D]
     X:    -3.1285      Y:    -3.6480      Z:    -0.0008     Total:     4.8058

*** Psi4 exiting successfully. Buy a developer a beer!
