                               Psi4 1.3.2 release

  ==> Input File <==

--------------------------------------------------------------------------
#psi4
#
memory 32 gb

molecule  {
0 1
  O       -1.3945310     1.8555980     0.0000210
  O        2.9082060     0.2751580    -0.0000600
  N       -1.0895640    -0.4406340     0.0001970
  N        0.7349370     0.9985730     0.0002800
  C       -0.6489740     0.8800530    -0.0003070
  C       -0.2041810    -1.5011250     0.0000420
  C       -2.5282030    -0.6963170    -0.0000730
  C        1.1391180    -1.3434170     0.0000740
  C        1.6407150     0.0664268    -0.0001834
  H       -0.6762750    -2.4793460     0.0001770
  H       -2.8113470    -1.2573270     0.8936330
  H       -2.8107340    -1.2584070    -0.8933430
  H       -3.0286960     0.2691590    -0.0008180
  H        1.0742980     1.9581480     0.0003170
  H        1.8167570    -2.1872720    -0.0000870
units angstrom
no_reorient  #important for SAPT in psi4, default
symmetry c1  #important for SAPT in psi4, default
}

set PROPERTIES_ORIGIN ["COM"]
properties('MP2/aug-cc-pvtz', properties = ['dipole'])
--------------------------------------------------------------------------

    Molecular point group: c1
  Charge       = 0
  Multiplicity = 1
  Basis Set: AUG-CC-PVTZ
    Blend: AUG-CC-PVTZ
  Basis Set: (AUG-CC-PVTZ AUX)
    Blend: AUG-CC-PVTZ-JKFIT

    Orbital Energies [Eh]
    ---------------------

    Doubly Occupied:

       1A    -20.555704     2A    -20.523603     3A    -15.647678
       4A    -15.642382     5A    -11.428897     6A    -11.377364
       7A    -11.330964     8A    -11.292572     9A    -11.259585
      10A     -1.440085    11A     -1.368190    12A     -1.313330
      13A     -1.265362    14A     -1.086795    15A     -0.997190
      16A     -0.928596    17A     -0.898359    18A     -0.783631
      19A     -0.751500    20A     -0.701192    21A     -0.693179
      22A     -0.664180    23A     -0.638313    24A     -0.624671
      25A     -0.614873    26A     -0.583168    27A     -0.572328
      28A     -0.550073    29A     -0.502932    30A     -0.483595
      31A     -0.434983    32A     -0.430763    33A     -0.358219

  @DF-RHF Final Energy:  -451.64511897748361

   => Energetics <=

    Nuclear Repulsion Energy =            441.9242099776732289
    One-Electron Energy =               -1491.6501444915418233
    Two-Electron Energy =                 598.0808155363851029
    Total Energy =                       -451.6451189774835484
  Basis Set: (AUG-CC-PVTZ AUX)
    Blend: AUG-CC-PVTZ-RI
    Molecular point group: c1

    Geometry (in Angstrom), charge = 0, multiplicity = 1:

       Center              X                  Y                   Z               Mass
    ------------   -----------------  -----------------  -----------------  -----------------
         O           -1.438488844286     1.809837775826     0.000016518052    15.994914619570
         O            2.864248155714     0.229397775826    -0.000064481948    15.994914619570
         N           -1.133521844286    -0.486394224174     0.000192518052    14.003074004430
         N            0.690979155714     0.952812775826     0.000275518052    14.003074004430
         C           -0.692931844286     0.834292775826    -0.000311481948    12.000000000000
         C           -0.248138844286    -1.546885224174     0.000037518052    12.000000000000
         C           -2.572160844286    -0.742077224174    -0.000077481948    12.000000000000
         C            1.095160155714    -1.389177224174     0.000069518052    12.000000000000
         C            1.596757155714     0.020666575826    -0.000187881948    12.000000000000
         H           -0.720232844286    -2.525106224174     0.000172518052     1.007825032230
         H           -2.855304844286    -1.303087224174     0.893628518052     1.007825032230
         H           -2.854691844286    -1.304167224174    -0.893347481948     1.007825032230
         H           -3.072653844286     0.223398775826    -0.000822481948     1.007825032230
         H            1.030340155714     1.912387775826     0.000312518052     1.007825032230
         H            1.772799155714    -2.233032224174    -0.000091481948     1.007825032230

  Basis Set: AUG-CC-PVTZ
    Blend: AUG-CC-PVTZ
  Basis Set: (AUG-CC-PVTZ AUX)
    Blend: AUG-CC-PVTZ-JKFIT
	 Reference Energy          =    -451.6451189774836052 [Eh]
	 Singles Energy            =      -0.0000000000000000 [Eh]
	 Same-Spin Energy          =      -0.4588764336191292 [Eh]
	 Opposite-Spin Energy      =      -1.3864852193621364 [Eh]
	 Correlation Energy        =      -1.8453616529812655 [Eh]
	 Total Energy              =    -453.4904806304648446 [Eh]

	 ================> DF-SCS-MP2 Energies <==================
	-----------------------------------------------------------
	 SCS Same-Spin Scale       =       0.3333333333333333 [-]
	 SCS Opposite-Spin Scale   =       1.2000000000000000 [-]
	 SCS Same-Spin Energy      =      -0.1529588112063764 [Eh]
	 SCS Opposite-Spin Energy  =      -1.6637822632345636 [Eh]
	 SCS Correlation Energy    =      -1.8167410744409400 [Eh]
	 SCS Total Energy          =    -453.4618600519245319 [Eh]
	-----------------------------------------------------------

  Dipole Moment: [D]
     X:    -3.8373      Y:    -3.2038      Z:    -0.0007     Total:     4.9989

*** Psi4 exiting successfully. Buy a developer a beer!
