                               Psi4 1.4a3.dev225

  ==> Input File <==

--------------------------------------------------------------------------
#psi4
#
memory 32 gb

molecule  {
0 1
  O       -1.4350980    -1.8086910     0.0000000
  O        2.9075840    -0.3082450     0.0000000
  N       -1.0785060     0.4619330     0.0000000
  N        0.7249750    -1.0056720    -0.0000010
  C       -0.6517050    -0.8641080     0.0000000
  C       -0.1841290     1.5083600     0.0000000
  C       -2.5245930     0.6731660     0.0000000
  C        1.1582900     1.3329580     0.0000000
  C        1.7164880    -0.0081480     0.0000000
  H       -0.6338540     2.4967290    -0.0000010
  H       -2.9690000     0.2175100    -0.8862740
  H       -2.7140630     1.7465080     0.0000000
  H       -2.9689990     0.2175090     0.8862740
  H        1.0749798    -2.0138103     0.0000000
  H        1.8360540     2.1766110     0.0000000
units angstrom
no_reorient  #important for SAPT in psi4, default
symmetry c1  #important for SAPT in psi4, default
}

set PROPERTIES_ORIGIN ["COM"]
properties('MP2/aug-cc-pvtz', properties = ['dipole'])
--------------------------------------------------------------------------

    Molecular point group: c1
  Charge       = 0
  Multiplicity = 1
  Basis Set: AUG-CC-PVTZ
    Blend: AUG-CC-PVTZ
  Basis Set: (AUG-CC-PVTZ AUX)
    Blend: AUG-CC-PVTZ-JKFIT

    Orbital Energies [Eh]
    ---------------------

    Doubly Occupied:

       1A    -20.545285     2A    -20.537959     3A    -15.644704
       4A    -15.630191     5A    -11.415760     6A    -11.379343
       7A    -11.337959     8A    -11.292479     9A    -11.253364
      10A     -1.427979    11A     -1.388075    12A     -1.311700
      13A     -1.241350    14A     -1.090426    15A     -0.988413
      16A     -0.928312    17A     -0.871553    18A     -0.768668
      19A     -0.746413    20A     -0.698236    21A     -0.685638
      22A     -0.656492    23A     -0.642882    24A     -0.610038
      25A     -0.607566    26A     -0.600748    27A     -0.577201
      28A     -0.550180    29A     -0.502813    30A     -0.479747
      31A     -0.445562    32A     -0.431794    33A     -0.358303

  @DF-RHF Final Energy:  -451.65764163004383

   => Energetics <=

    Nuclear Repulsion Energy =            441.2835914425251644
    One-Electron Energy =               -1490.5881993959822012
    Two-Electron Energy =                 597.6469663234131531
    Total Energy =                       -451.6576416300438268
  Basis Set: (AUG-CC-PVTZ AUX)
    Blend: AUG-CC-PVTZ-RI
    Molecular point group: c1

    Geometry (in Angstrom), charge = 0, multiplicity = 1:

       Center              X                  Y                   Z               Mass
    ------------   -----------------  -----------------  -----------------  -----------------
         O           -1.485471419301    -1.769906166882     0.000000119094    15.994914619570
         O            2.857210580699    -0.269460166882     0.000000119094    15.994914619570
         N           -1.128879419301     0.500717833118     0.000000119094    14.003074004430
         N            0.674601580699    -0.966887166882    -0.000000880906    14.003074004430
         C           -0.702078419301    -0.825323166882     0.000000119094    12.000000000000
         C           -0.234502419301     1.547144833118     0.000000119094    12.000000000000
         C           -2.574966419301     0.711950833118     0.000000119094    12.000000000000
         C            1.107916580699     1.371742833118     0.000000119094    12.000000000000
         C            1.666114580699     0.030636833118     0.000000119094    12.000000000000
         H           -0.684227419301     2.535513833118    -0.000000880906     1.007825032230
         H           -3.019373419301     0.256294833118    -0.886273880906     1.007825032230
         H           -2.764436419301     1.785292833118     0.000000119094     1.007825032230
         H           -3.019372419301     0.256293833118     0.886274119094     1.007825032230
         H            1.024606380699    -1.975025466882     0.000000119094     1.007825032230
         H            1.785680580699     2.215395833118     0.000000119094     1.007825032230

  Basis Set: AUG-CC-PVTZ
    Blend: AUG-CC-PVTZ
  Basis Set: (AUG-CC-PVTZ AUX)
    Blend: AUG-CC-PVTZ-JKFIT
	 Reference Energy          =    -451.6576416300438268 [Eh]
	 Singles Energy            =      -0.0000000000000000 [Eh]
	 Same-Spin Energy          =      -0.4584574424514895 [Eh]
	 Opposite-Spin Energy      =      -1.3855557367787315 [Eh]
	 Correlation Energy        =      -1.8440131792302210 [Eh]
	 Total Energy              =    -453.5016548092740436 [Eh]

	 ================> DF-SCS-MP2 Energies <==================
	-----------------------------------------------------------
	 SCS Same-Spin Scale       =       0.3333333333333333 [-]
	 SCS Opposite-Spin Scale   =       1.2000000000000000 [-]
	 SCS Same-Spin Energy      =      -0.1528191474838298 [Eh]
	 SCS Opposite-Spin Energy  =      -1.6626668841344776 [Eh]
	 SCS Correlation Energy    =      -1.8154860316183075 [Eh]
	 SCS Total Energy          =    -453.4731276616621471 [Eh]
	-----------------------------------------------------------

  Dipole Moment: [D]
     X:    -3.1964      Y:     3.4904      Z:     0.0000     Total:     4.7328

*** Psi4 exiting successfully. Buy a developer a beer!
