                               Psi4 1.3.2 release

  ==> Input File <==

--------------------------------------------------------------------------
#psi4
#
memory 32 gb

molecule  {
0 1
  O       -1.3945310     1.8555980     0.0000210
  O        2.9082060     0.2751580    -0.0000600
  N       -1.0895640    -0.4406340     0.0001970
  N        0.7349370     0.9985730     0.0002800
  C       -0.6489740     0.8800530    -0.0003070
  C       -0.2041810    -1.5011250     0.0000420
  C       -2.5282030    -0.6963170    -0.0000730
  C        1.1391180    -1.3434170     0.0000740
  C        1.7104040    -0.0052910    -0.0002190
  H       -0.6762750    -2.4793460     0.0001770
  H       -2.8113470    -1.2573270     0.8936330
  H       -2.8107340    -1.2584070    -0.8933430
  H       -3.0286960     0.2691590    -0.0008180
  H        1.0742980     1.9581480     0.0003170
  H        1.7541437    -2.1093004    -0.0000721
units angstrom
no_reorient  #important for SAPT in psi4, default
symmetry c1  #important for SAPT in psi4, default
}

set PROPERTIES_ORIGIN ["COM"]
properties('MP2/aug-cc-pvtz', properties = ['dipole'])
--------------------------------------------------------------------------

    Molecular point group: c1
  Charge       = 0
  Multiplicity = 1
  Basis Set: AUG-CC-PVTZ
    Blend: AUG-CC-PVTZ
  Basis Set: (AUG-CC-PVTZ AUX)
    Blend: AUG-CC-PVTZ-JKFIT

    Orbital Energies [Eh]
    ---------------------

    Doubly Occupied:

       1A    -20.545433     2A    -20.538812     3A    -15.644390
       4A    -15.626127     5A    -11.418433     6A    -11.379240
       7A    -11.337082     8A    -11.289945     9A    -11.245194
      10A     -1.428248    11A     -1.388145    12A     -1.312233
      13A     -1.245384    14A     -1.095021    15A     -0.990142
      16A     -0.932264    17A     -0.875406    18A     -0.775199
      19A     -0.758249    20A     -0.699937    21A     -0.685099
      22A     -0.662227    23A     -0.645269    24A     -0.621357
      25A     -0.614803    26A     -0.602111    27A     -0.575504
      28A     -0.554154    29A     -0.499333    30A     -0.479888
      31A     -0.445950    32A     -0.432915    33A     -0.360760

  @DF-RHF Final Energy:  -451.65437818884629

   => Energetics <=

    Nuclear Repulsion Energy =            441.7423735446683963
    One-Electron Energy =               -1491.3849888218601336
    Two-Electron Energy =                 597.9882370883453859
    Total Energy =                       -451.6543781888462945
  Basis Set: (AUG-CC-PVTZ AUX)
    Blend: AUG-CC-PVTZ-RI
    Molecular point group: c1

    Geometry (in Angstrom), charge = 0, multiplicity = 1:

       Center              X                  Y                   Z               Mass
    ------------   -----------------  -----------------  -----------------  -----------------
         O           -1.444622982588     1.816042264135     0.000019788235    15.994914619570
         O            2.858114017412     0.235602264135    -0.000061211765    15.994914619570
         N           -1.139655982588    -0.480189735865     0.000195788235    14.003074004430
         N            0.684845017412     0.959017264135     0.000278788235    14.003074004430
         C           -0.699065982588     0.840497264135    -0.000308211765    12.000000000000
         C           -0.254272982588    -1.540680735865     0.000040788235    12.000000000000
         C           -2.578294982588    -0.735872735865    -0.000074211765    12.000000000000
         C            1.089026017412    -1.382972735865     0.000072788235    12.000000000000
         C            1.660312017412    -0.044846735865    -0.000220211765    12.000000000000
         H           -0.726366982588    -2.518901735865     0.000175788235     1.007825032230
         H           -2.861438982588    -1.296882735865     0.893631788235     1.007825032230
         H           -2.860825982588    -1.297962735865    -0.893344211765     1.007825032230
         H           -3.078787982588     0.229603264135    -0.000819211765     1.007825032230
         H            1.024206017412     1.918592264135     0.000315788235     1.007825032230
         H            1.704051717412    -2.148856135865    -0.000073311765     1.007825032230

  Basis Set: AUG-CC-PVTZ
    Blend: AUG-CC-PVTZ
  Basis Set: (AUG-CC-PVTZ AUX)
    Blend: AUG-CC-PVTZ-JKFIT
	 Reference Energy          =    -451.6543781888462945 [Eh]
	 Singles Energy            =      -0.0000000000000000 [Eh]
	 Same-Spin Energy          =      -0.4578940263200465 [Eh]
	 Opposite-Spin Energy      =      -1.3844239642914333 [Eh]
	 Correlation Energy        =      -1.8423179906114799 [Eh]
	 Total Energy              =    -453.4966961794577855 [Eh]

	 ================> DF-SCS-MP2 Energies <==================
	-----------------------------------------------------------
	 SCS Same-Spin Scale       =       0.3333333333333333 [-]
	 SCS Opposite-Spin Scale   =       1.2000000000000000 [-]
	 SCS Same-Spin Energy      =      -0.1526313421066822 [Eh]
	 SCS Opposite-Spin Energy  =      -1.6613087571497200 [Eh]
	 SCS Correlation Energy    =      -1.8139400992564023 [Eh]
	 SCS Total Energy          =    -453.4683182881026937 [Eh]
	-----------------------------------------------------------

  Dipole Moment: [D]
     X:    -3.2600      Y:    -3.5315      Z:    -0.0009     Total:     4.8061

*** Psi4 exiting successfully. Buy a developer a beer!
