                               Psi4 1.4a3.dev225

  ==> Input File <==

--------------------------------------------------------------------------
#psi4
#
memory 32 gb

molecule  {
0 1
  O       -1.4350980    -1.8086910     0.0000000
  O        2.9075840    -0.3082450     0.0000000
  N       -1.0785060     0.4619330     0.0000000
  N        0.7249750    -1.0056720    -0.0000010
  C       -0.6517050    -0.8641080     0.0000000
  C       -0.1841290     1.5083600     0.0000000
  C       -2.5443830     0.6760568     0.0000000
  C        1.1582900     1.3329580     0.0000000
  C        1.7164880    -0.0081480     0.0000000
  H       -0.6338540     2.4967290    -0.0000010
  H       -2.9690000     0.2175100    -0.8862740
  H       -2.7140630     1.7465080     0.0000000
  H       -2.9689990     0.2175090     0.8862740
  H        1.0585810    -1.9665760     0.0000000
  H        1.8360540     2.1766110     0.0000000
units angstrom
no_reorient  #important for SAPT in psi4, default
symmetry c1  #important for SAPT in psi4, default
}

set PROPERTIES_ORIGIN ["COM"]
properties('MP2/aug-cc-pvtz', properties = ['dipole'])
--------------------------------------------------------------------------

    Molecular point group: c1
  Charge       = 0
  Multiplicity = 1
  Basis Set: AUG-CC-PVTZ
    Blend: AUG-CC-PVTZ
  Basis Set: (AUG-CC-PVTZ AUX)
    Blend: AUG-CC-PVTZ-JKFIT

    Orbital Energies [Eh]
    ---------------------

    Doubly Occupied:

       1A    -20.545241     2A    -20.537966     3A    -15.644206
       4A    -15.626132     5A    -11.415619     6A    -11.379206
       7A    -11.337745     8A    -11.293415     9A    -11.252825
      10A     -1.428002    11A     -1.388253    12A     -1.309528
      13A     -1.244715    14A     -1.089816    15A     -0.989748
      16A     -0.930219    17A     -0.872122    18A     -0.771687
      19A     -0.749959    20A     -0.700506    21A     -0.685083
      22A     -0.656630    23A     -0.641905    24A     -0.612247
      25A     -0.609347    26A     -0.599995    27A     -0.581138
      28A     -0.551074    29A     -0.504204    30A     -0.479462
      31A     -0.445543    32A     -0.432529    33A     -0.358118

  @DF-RHF Final Energy:  -451.66115648958032

   => Energetics <=

    Nuclear Repulsion Energy =            441.1881928519636062
    One-Electron Energy =               -1490.3703287198611633
    Two-Electron Energy =                 597.5209793783172927
    Total Energy =                       -451.6611564895803212
  Basis Set: (AUG-CC-PVTZ AUX)
    Blend: AUG-CC-PVTZ-RI
    Molecular point group: c1

    Geometry (in Angstrom), charge = 0, multiplicity = 1:

       Center              X                  Y                   Z               Mass
    ------------   -----------------  -----------------  -----------------  -----------------
         O           -1.483456176350    -1.770559067538     0.000000119094    15.994914619570
         O            2.859225823650    -0.270113067538     0.000000119094    15.994914619570
         N           -1.126864176350     0.500064932462     0.000000119094    14.003074004430
         N            0.676616823650    -0.967540067538    -0.000000880906    14.003074004430
         C           -0.700063176350    -0.825976067538     0.000000119094    12.000000000000
         C           -0.232487176350     1.546491932462     0.000000119094    12.000000000000
         C           -2.592741176350     0.714188732462     0.000000119094    12.000000000000
         C            1.109931823650     1.371089932462     0.000000119094    12.000000000000
         C            1.668129823650     0.029983932462     0.000000119094    12.000000000000
         H           -0.682212176350     2.534860932462    -0.000000880906     1.007825032230
         H           -3.017358176350     0.255641932462    -0.886273880906     1.007825032230
         H           -2.762421176350     1.784639932462     0.000000119094     1.007825032230
         H           -3.017357176350     0.255640932462     0.886274119094     1.007825032230
         H            1.010222823650    -1.928444067538     0.000000119094     1.007825032230
         H            1.787695823650     2.214742932462     0.000000119094     1.007825032230

  Basis Set: AUG-CC-PVTZ
    Blend: AUG-CC-PVTZ
  Basis Set: (AUG-CC-PVTZ AUX)
    Blend: AUG-CC-PVTZ-JKFIT
	 Reference Energy          =    -451.6611564895803212 [Eh]
	 Singles Energy            =      -0.0000000000000000 [Eh]
	 Same-Spin Energy          =      -0.4578947744146126 [Eh]
	 Opposite-Spin Energy      =      -1.3845801366160781 [Eh]
	 Correlation Energy        =      -1.8424749110306908 [Eh]
	 Total Energy              =    -453.5036314006110274 [Eh]

	 ================> DF-SCS-MP2 Energies <==================
	-----------------------------------------------------------
	 SCS Same-Spin Scale       =       0.3333333333333333 [-]
	 SCS Opposite-Spin Scale   =       1.2000000000000000 [-]
	 SCS Same-Spin Energy      =      -0.1526315914715375 [Eh]
	 SCS Opposite-Spin Energy  =      -1.6614961639392938 [Eh]
	 SCS Correlation Energy    =      -1.8141277554108313 [Eh]
	 SCS Total Energy          =    -453.4752842449911441 [Eh]
	-----------------------------------------------------------

  Dipole Moment: [D]
     X:    -3.2851      Y:     3.5632      Z:     0.0000     Total:     4.8465

*** Psi4 exiting successfully. Buy a developer a beer!
