                               Psi4 1.3.2 release

  ==> Input File <==

--------------------------------------------------------------------------
#psi4
#
memory 32 gb

molecule  {
0 1
  O       -1.3945310     1.8555980     0.0000210
  O        2.9057130     0.2856000    -0.0000637
  N       -1.0895640    -0.4406340     0.0001970
  N        0.7349370     0.9985730     0.0002800
  C       -0.6489740     0.8800530    -0.0003070
  C       -0.2041810    -1.5011250     0.0000420
  C       -2.5282030    -0.6963170    -0.0000730
  C        1.1274625    -1.3383807     0.0000701
  C        1.7104040    -0.0052910    -0.0002190
  H       -0.6762750    -2.4793460     0.0001770
  H       -2.8113470    -1.2573270     0.8936330
  H       -2.8107340    -1.2584070    -0.8933430
  H       -3.0286960     0.2691590    -0.0008180
  H        1.0742980     1.9581480     0.0003170
  H        1.8167570    -2.1872720    -0.0000870
units angstrom
no_reorient  #important for SAPT in psi4, default
symmetry c1  #important for SAPT in psi4, default
}

set PROPERTIES_ORIGIN ["COM"]
properties('MP2/aug-cc-pvtz', properties = ['dipole'])
--------------------------------------------------------------------------

    Molecular point group: c1
  Charge       = 0
  Multiplicity = 1
  Basis Set: AUG-CC-PVTZ
    Blend: AUG-CC-PVTZ
  Basis Set: (AUG-CC-PVTZ AUX)
    Blend: AUG-CC-PVTZ-JKFIT

    Orbital Energies [Eh]
    ---------------------

    Doubly Occupied:

       1A    -20.544968     2A    -20.539677     3A    -15.643613
       4A    -15.625881     5A    -11.417981     6A    -11.380410
       7A    -11.335684     8A    -11.289620     9A    -11.256289
      10A     -1.428084    11A     -1.388633    12A     -1.312261
      13A     -1.245156    14A     -1.093452    15A     -0.989268
      16A     -0.930606    17A     -0.872295    18A     -0.772301
      19A     -0.751684    20A     -0.700763    21A     -0.685075
      22A     -0.657319    23A     -0.644216    24A     -0.614793
      25A     -0.607687    26A     -0.603558    27A     -0.570279
      28A     -0.554291    29A     -0.500197    30A     -0.479962
      31A     -0.446554    32A     -0.432701    33A     -0.362221

  @DF-RHF Final Energy:  -451.66048758587016

   => Energetics <=

    Nuclear Repulsion Energy =            441.4112411080021161
    One-Electron Energy =               -1490.7885037803755495
    Two-Electron Energy =                 597.7167750865033895
    Total Energy =                       -451.6604875858701007
  Basis Set: (AUG-CC-PVTZ AUX)
    Blend: AUG-CC-PVTZ-RI
    Molecular point group: c1

    Geometry (in Angstrom), charge = 0, multiplicity = 1:

       Center              X                  Y                   Z               Mass
    ------------   -----------------  -----------------  -----------------  -----------------
         O           -1.443697598884     1.814861136632     0.000020748208    15.994914619570
         O            2.856546401116     0.244863136632    -0.000063951792    15.994914619570
         N           -1.138730598884    -0.481370863368     0.000196748208    14.003074004430
         N            0.685770401116     0.957836136632     0.000279748208    14.003074004430
         C           -0.698140598884     0.839316136632    -0.000307251792    12.000000000000
         C           -0.253347598884    -1.541861863368     0.000041748208    12.000000000000
         C           -2.577369598884    -0.737053863368    -0.000073251792    12.000000000000
         C            1.078295901116    -1.379117563368     0.000069848208    12.000000000000
         C            1.661237401116    -0.046027863368    -0.000219251792    12.000000000000
         H           -0.725441598884    -2.520082863368     0.000176748208     1.007825032230
         H           -2.860513598884    -1.298063863368     0.893632748208     1.007825032230
         H           -2.859900598884    -1.299143863368    -0.893343251792     1.007825032230
         H           -3.077862598884     0.228422136632    -0.000818251792     1.007825032230
         H            1.025131401116     1.917411136632     0.000316748208     1.007825032230
         H            1.767590401116    -2.228008863368    -0.000087251792     1.007825032230

  Basis Set: AUG-CC-PVTZ
    Blend: AUG-CC-PVTZ
  Basis Set: (AUG-CC-PVTZ AUX)
    Blend: AUG-CC-PVTZ-JKFIT
	 Reference Energy          =    -451.6604875858701575 [Eh]
	 Singles Energy            =      -0.0000000000000000 [Eh]
	 Same-Spin Energy          =      -0.4580191252367989 [Eh]
	 Opposite-Spin Energy      =      -1.3846899880748593 [Eh]
	 Correlation Energy        =      -1.8427091133116582 [Eh]
	 Total Energy              =    -453.5031966991818422 [Eh]

	 ================> DF-SCS-MP2 Energies <==================
	-----------------------------------------------------------
	 SCS Same-Spin Scale       =       0.3333333333333333 [-]
	 SCS Opposite-Spin Scale   =       1.2000000000000000 [-]
	 SCS Same-Spin Energy      =      -0.1526730417455996 [Eh]
	 SCS Opposite-Spin Energy  =      -1.6616279856898311 [Eh]
	 SCS Correlation Energy    =      -1.8143010274354308 [Eh]
	 SCS Total Energy          =    -453.4747886133055772 [Eh]
	-----------------------------------------------------------

  Dipole Moment: [D]
     X:    -3.2100      Y:    -3.5684      Z:    -0.0009     Total:     4.7997

*** Psi4 exiting successfully. Buy a developer a beer!
