                               Psi4 1.3.2 release

  ==> Input File <==

--------------------------------------------------------------------------
#psi4
#
memory 32 gb

molecule  {
0 1
  O       -1.3945310     1.8555980     0.0000210
  O        2.9082060     0.2751580    -0.0000600
  N       -1.0895640    -0.4406340     0.0001970
  N        0.7349370     0.9985730     0.0002800
  C       -0.6489740     0.8800530    -0.0003070
  C       -0.2041810    -1.5011250     0.0000420
  C       -2.5282030    -0.6963170    -0.0000730
  C        1.1391180    -1.3434170     0.0000740
  C        1.7104040    -0.0052910    -0.0002190
  H       -0.6762750    -2.4793460     0.0001770
  H       -2.8113470    -1.2573270     0.8936330
  H       -2.8107340    -1.2584070    -0.8933430
  H       -3.0286960     0.2691590    -0.0008180
  H        1.1076401     2.0524258     0.0003206
  H        1.8167570    -2.1872720    -0.0000870
units angstrom
no_reorient  #important for SAPT in psi4, default
symmetry c1  #important for SAPT in psi4, default
}

set PROPERTIES_ORIGIN ["COM"]
properties('MP2/aug-cc-pvtz', properties = ['dipole'])
--------------------------------------------------------------------------

    Molecular point group: c1
  Charge       = 0
  Multiplicity = 1
  Basis Set: AUG-CC-PVTZ
    Blend: AUG-CC-PVTZ
  Basis Set: (AUG-CC-PVTZ AUX)
    Blend: AUG-CC-PVTZ-JKFIT

    Orbital Energies [Eh]
    ---------------------

    Doubly Occupied:

       1A    -20.544220     2A    -20.537629     3A    -15.643992
       4A    -15.633135     5A    -11.417544     6A    -11.378997
       7A    -11.336487     8A    -11.289543     9A    -11.255820
      10A     -1.426156    11A     -1.386616    12A     -1.311465
      13A     -1.236542    14A     -1.089632    15A     -0.988333
      16A     -0.925055    17A     -0.870938    18A     -0.765881
      19A     -0.741198    20A     -0.693765    21A     -0.684339
      22A     -0.654148    23A     -0.642534    24A     -0.613706
      25A     -0.608893    26A     -0.598259    27A     -0.569381
      28A     -0.553224    29A     -0.498604    30A     -0.479176
      31A     -0.445034    32A     -0.430801    33A     -0.360080

  @DF-RHF Final Energy:  -451.64997858876472

   => Energetics <=

    Nuclear Repulsion Energy =            440.5764374113663848
    One-Electron Energy =               -1489.2305784864674933
    Two-Electron Energy =                 597.0041624863363268
    Total Energy =                       -451.6499785887647249
  Basis Set: (AUG-CC-PVTZ AUX)
    Blend: AUG-CC-PVTZ-RI
    Molecular point group: c1

    Geometry (in Angstrom), charge = 0, multiplicity = 1:

       Center              X                  Y                   Z               Mass
    ------------   -----------------  -----------------  -----------------  -----------------
         O           -1.445390231144     1.815911881599     0.000019878589    15.994914619570
         O            2.857346768856     0.235471881599    -0.000061121411    15.994914619570
         N           -1.140423231144    -0.480320118401     0.000195878589    14.003074004430
         N            0.684077768856     0.958886881599     0.000278878589    14.003074004430
         C           -0.699833231144     0.840366881599    -0.000308121411    12.000000000000
         C           -0.255040231144    -1.540811118401     0.000040878589    12.000000000000
         C           -2.579062231144    -0.736003118401    -0.000074121411    12.000000000000
         C            1.088258768856    -1.383103118401     0.000072878589    12.000000000000
         C            1.659544768856    -0.044977118401    -0.000220121411    12.000000000000
         H           -0.727134231144    -2.519032118401     0.000175878589     1.007825032230
         H           -2.862206231144    -1.297013118401     0.893631878589     1.007825032230
         H           -2.861593231144    -1.298093118401    -0.893344121411     1.007825032230
         H           -3.079555231144     0.229472881599    -0.000819121411     1.007825032230
         H            1.056780868856     2.012739681599     0.000319478589     1.007825032230
         H            1.765897768856    -2.226958118401    -0.000088121411     1.007825032230

  Basis Set: AUG-CC-PVTZ
    Blend: AUG-CC-PVTZ
  Basis Set: (AUG-CC-PVTZ AUX)
    Blend: AUG-CC-PVTZ-JKFIT
	 Reference Energy          =    -451.6499785887647249 [Eh]
	 Singles Energy            =      -0.0000000000000000 [Eh]
	 Same-Spin Energy          =      -0.4589410084378642 [Eh]
	 Opposite-Spin Energy      =      -1.3867428121126528 [Eh]
	 Correlation Energy        =      -1.8456838205505171 [Eh]
	 Total Energy              =    -453.4956624093152300 [Eh]

	 ================> DF-SCS-MP2 Energies <==================
	-----------------------------------------------------------
	 SCS Same-Spin Scale       =       0.3333333333333333 [-]
	 SCS Opposite-Spin Scale   =       1.2000000000000000 [-]
	 SCS Same-Spin Energy      =      -0.1529803361459547 [Eh]
	 SCS Opposite-Spin Energy  =      -1.6640913745351833 [Eh]
	 SCS Correlation Energy    =      -1.8170717106811380 [Eh]
	 SCS Total Energy          =    -453.4670502994458730 [Eh]
	-----------------------------------------------------------

  Dipole Moment: [D]
     X:    -3.1895      Y:    -3.4202      Z:    -0.0008     Total:     4.6766

*** Psi4 exiting successfully. Buy a developer a beer!
