                               Psi4 1.3.2 release

  ==> Input File <==

--------------------------------------------------------------------------
#psi4
#
memory 32 gb

molecule  {
0 1
  O       -1.3945310     1.8555980     0.0000210
  O        2.9082060     0.2751580    -0.0000600
  N       -1.0895640    -0.4406340     0.0001970
  N        0.7349370     0.9985730     0.0002800
  C       -0.6489740     0.8800530    -0.0003070
  C       -0.2682695    -1.4243613     0.0000532
  C       -2.5282030    -0.6963170    -0.0000730
  C        1.1391180    -1.3434170     0.0000740
  C        1.7104040    -0.0052910    -0.0002190
  H       -0.6762750    -2.4793460     0.0001770
  H       -2.8113470    -1.2573270     0.8936330
  H       -2.8107340    -1.2584070    -0.8933430
  H       -3.0286960     0.2691590    -0.0008180
  H        1.0742980     1.9581480     0.0003170
  H        1.8167570    -2.1872720    -0.0000870
units angstrom
no_reorient  #important for SAPT in psi4, default
symmetry c1  #important for SAPT in psi4, default
}

set PROPERTIES_ORIGIN ["COM"]
properties('MP2/aug-cc-pvtz', properties = ['dipole'])
--------------------------------------------------------------------------

    Molecular point group: c1
  Charge       = 0
  Multiplicity = 1
  Basis Set: AUG-CC-PVTZ
    Blend: AUG-CC-PVTZ
  Basis Set: (AUG-CC-PVTZ AUX)
    Blend: AUG-CC-PVTZ-JKFIT

    Orbital Energies [Eh]
    ---------------------

    Doubly Occupied:

       1A    -20.552894     2A    -20.528367     3A    -15.656350
       4A    -15.627430     5A    -11.425344     6A    -11.370580
       7A    -11.341887     8A    -11.298367     9A    -11.249881
      10A     -1.439302    11A     -1.381480    12A     -1.343627
      13A     -1.250036    14A     -1.077018    15A     -1.000958
      16A     -0.945019    17A     -0.871780    18A     -0.775719
      19A     -0.753424    20A     -0.700199    21A     -0.698226
      22A     -0.662773    23A     -0.638135    24A     -0.618496
      25A     -0.612719    26A     -0.587482    27A     -0.581757
      28A     -0.553221    29A     -0.515438    30A     -0.482480
      31A     -0.438110    32A     -0.432404    33A     -0.344813

  @DF-RHF Final Energy:  -451.64648084548696

   => Energetics <=

    Nuclear Repulsion Energy =            442.6419966852196808
    One-Electron Energy =               -1493.0655232251185680
    Two-Electron Energy =                 598.7770456944118678
    Total Energy =                       -451.6464808454869626
  Basis Set: (AUG-CC-PVTZ AUX)
    Blend: AUG-CC-PVTZ-RI
    Molecular point group: c1

    Geometry (in Angstrom), charge = 0, multiplicity = 1:

       Center              X                  Y                   Z               Mass
    ------------   -----------------  -----------------  -----------------  -----------------
         O           -1.439022043581     1.809357377590     0.000018841070    15.994914619570
         O            2.863714956419     0.228917377590    -0.000062158930    15.994914619570
         N           -1.134055043581    -0.486874622410     0.000194841070    14.003074004430
         N            0.690445956419     0.952332377590     0.000277841070    14.003074004430
         C           -0.693465043581     0.833812377590    -0.000309158930    12.000000000000
         C           -0.312760543581    -1.470601922410     0.000051041070    12.000000000000
         C           -2.572694043581    -0.742557622410    -0.000075158930    12.000000000000
         C            1.094626956419    -1.389657622410     0.000071841070    12.000000000000
         C            1.665912956419    -0.051531622410    -0.000221158930    12.000000000000
         H           -0.720766043581    -2.525586622410     0.000174841070     1.007825032230
         H           -2.855838043581    -1.303567622410     0.893630841070     1.007825032230
         H           -2.855225043581    -1.304647622410    -0.893345158930     1.007825032230
         H           -3.073187043581     0.222918377590    -0.000820158930     1.007825032230
         H            1.029806956419     1.911907377590     0.000314841070     1.007825032230
         H            1.772265956419    -2.233512622410    -0.000089158930     1.007825032230

  Basis Set: AUG-CC-PVTZ
    Blend: AUG-CC-PVTZ
  Basis Set: (AUG-CC-PVTZ AUX)
    Blend: AUG-CC-PVTZ-JKFIT
	 Reference Energy          =    -451.6464808454869626 [Eh]
	 Singles Energy            =      -0.0000000000000000 [Eh]
	 Same-Spin Energy          =      -0.4594924357668700 [Eh]
	 Opposite-Spin Energy      =      -1.3856765820278083 [Eh]
	 Correlation Energy        =      -1.8451690177946785 [Eh]
	 Total Energy              =    -453.4916498632816229 [Eh]

	 ================> DF-SCS-MP2 Energies <==================
	-----------------------------------------------------------
	 SCS Same-Spin Scale       =       0.3333333333333333 [-]
	 SCS Opposite-Spin Scale   =       1.2000000000000000 [-]
	 SCS Same-Spin Energy      =      -0.1531641452556233 [Eh]
	 SCS Opposite-Spin Energy  =      -1.6628118984333700 [Eh]
	 SCS Correlation Energy    =      -1.8159760436889933 [Eh]
	 SCS Total Energy          =    -453.4624568891759395 [Eh]
	-----------------------------------------------------------

  Dipole Moment: [D]
     X:    -3.8248      Y:    -3.3105      Z:    -0.0008     Total:     5.0585

*** Psi4 exiting successfully. Buy a developer a beer!
