                               Psi4 1.3.2 release

  ==> Input File <==

--------------------------------------------------------------------------
#psi4
#
memory 32 gb

molecule  {
0 1
  O       -1.3945310     1.8555980     0.0000210
  O        2.9082060     0.2751580    -0.0000600
  N       -1.0895640    -0.4406340     0.0001970
  N        0.7349370     0.9985730     0.0002800
  C       -0.6953337     0.8946248    -0.0002894
  C       -0.2417309    -1.5313784     0.0000659
  C       -2.5282030    -0.6963170    -0.0000730
  C        1.1391180    -1.3434170     0.0000740
  C        1.7104040    -0.0052910    -0.0002190
  H       -0.6762750    -2.4793460     0.0001770
  H       -2.8113470    -1.2573270     0.8936330
  H       -2.8107340    -1.2584070    -0.8933430
  H       -3.0286960     0.2691590    -0.0008180
  H        1.0742980     1.9581480     0.0003170
  H        1.8167570    -2.1872720    -0.0000870
units angstrom
no_reorient  #important for SAPT in psi4, default
symmetry c1  #important for SAPT in psi4, default
}

set PROPERTIES_ORIGIN ["COM"]
properties('MP2/aug-cc-pvtz', properties = ['dipole'])
--------------------------------------------------------------------------

    Molecular point group: c1
  Charge       = 0
  Multiplicity = 1
  Basis Set: AUG-CC-PVTZ
    Blend: AUG-CC-PVTZ
  Basis Set: (AUG-CC-PVTZ AUX)
    Blend: AUG-CC-PVTZ-JKFIT

    Orbital Energies [Eh]
    ---------------------

    Doubly Occupied:

       1A    -20.557416     2A    -20.533089     3A    -15.644602
       4A    -15.618401     5A    -11.421047     6A    -11.374903
       7A    -11.339515     8A    -11.289673     9A    -11.258310
      10A     -1.449245    11A     -1.385677    12A     -1.317982
      13A     -1.232422    14A     -1.081303    15A     -0.987024
      16A     -0.935497    17A     -0.860868    18A     -0.767831
      19A     -0.746956    20A     -0.710701    21A     -0.686185
      22A     -0.667706    23A     -0.643868    24A     -0.612796
      25A     -0.609750    26A     -0.597214    27A     -0.572360
      28A     -0.560926    29A     -0.498513    30A     -0.490134
      31A     -0.441946    32A     -0.429862    33A     -0.353761

  @DF-RHF Final Energy:  -451.65252023603938

   => Energetics <=

    Nuclear Repulsion Energy =            440.3518552472481247
    One-Electron Energy =               -1488.6537856959218971
    Two-Electron Energy =                 596.6494102126345069
    Total Energy =                       -451.6525202360393223
  Basis Set: (AUG-CC-PVTZ AUX)
    Blend: AUG-CC-PVTZ-RI
    Molecular point group: c1

    Geometry (in Angstrom), charge = 0, multiplicity = 1:

       Center              X                  Y                   Z               Mass
    ------------   -----------------  -----------------  -----------------  -----------------
         O           -1.437134962688     1.818158693320     0.000015956339    15.994914619570
         O            2.865602037312     0.237718693320    -0.000065043661    15.994914619570
         N           -1.132167962688    -0.478073306680     0.000191956339    14.003074004430
         N            0.692333037312     0.961133693320     0.000274956339    14.003074004430
         C           -0.737937662688     0.857185493320    -0.000294443661    12.000000000000
         C           -0.284334862688    -1.568817706680     0.000060856339    12.000000000000
         C           -2.570806962688    -0.733756306680    -0.000078043661    12.000000000000
         C            1.096514037312    -1.380856306680     0.000068956339    12.000000000000
         C            1.667800037312    -0.042730306680    -0.000224043661    12.000000000000
         H           -0.718878962688    -2.516785306680     0.000171956339     1.007825032230
         H           -2.853950962688    -1.294766306680     0.893627956339     1.007825032230
         H           -2.853337962688    -1.295846306680    -0.893348043661     1.007825032230
         H           -3.071299962688     0.231719693320    -0.000823043661     1.007825032230
         H            1.031694037312     1.920708693320     0.000311956339     1.007825032230
         H            1.774153037312    -2.224711306680    -0.000092043661     1.007825032230

  Basis Set: AUG-CC-PVTZ
    Blend: AUG-CC-PVTZ
  Basis Set: (AUG-CC-PVTZ AUX)
    Blend: AUG-CC-PVTZ-JKFIT
	 Reference Energy          =    -451.6525202360393791 [Eh]
	 Singles Energy            =      -0.0000000000000000 [Eh]
	 Same-Spin Energy          =      -0.4581003858453353 [Eh]
	 Opposite-Spin Energy      =      -1.3853673979068484 [Eh]
	 Correlation Energy        =      -1.8434677837521836 [Eh]
	 Total Energy              =    -453.4959880197915822 [Eh]

	 ================> DF-SCS-MP2 Energies <==================
	-----------------------------------------------------------
	 SCS Same-Spin Scale       =       0.3333333333333333 [-]
	 SCS Opposite-Spin Scale   =       1.2000000000000000 [-]
	 SCS Same-Spin Energy      =      -0.1527001286151118 [Eh]
	 SCS Opposite-Spin Energy  =      -1.6624408774882180 [Eh]
	 SCS Correlation Energy    =      -1.8151410061033297 [Eh]
	 SCS Total Energy          =    -453.4676612421426967 [Eh]
	-----------------------------------------------------------

  Dipole Moment: [D]
     X:    -3.6488      Y:    -3.3346      Z:    -0.0009     Total:     4.9430

*** Psi4 exiting successfully. Buy a developer a beer!
