                               Psi4 1.3.2 release

  ==> Input File <==

--------------------------------------------------------------------------
#psi4
#
memory 32 gb

molecule  {
0 1
  O       -1.3945310     1.8555980     0.0000210
  O        2.9082060     0.2751580    -0.0000600
  N       -1.0895640    -0.4406340     0.0001970
  N        0.7349370     0.9985730     0.0002800
  C       -0.5493387     0.8885859    -0.0002647
  C       -0.2041810    -1.5011250     0.0000420
  C       -2.5282030    -0.6963170    -0.0000730
  C        1.1391180    -1.3434170     0.0000740
  C        1.7104040    -0.0052910    -0.0002190
  H       -0.6762750    -2.4793460     0.0001770
  H       -2.8113470    -1.2573270     0.8936330
  H       -2.8107340    -1.2584070    -0.8933430
  H       -3.0286960     0.2691590    -0.0008180
  H        1.0742980     1.9581480     0.0003170
  H        1.8167570    -2.1872720    -0.0000870
units angstrom
no_reorient  #important for SAPT in psi4, default
symmetry c1  #important for SAPT in psi4, default
}

set PROPERTIES_ORIGIN ["COM"]
properties('MP2/aug-cc-pvtz', properties = ['dipole'])
--------------------------------------------------------------------------

    Molecular point group: c1
  Charge       = 0
  Multiplicity = 1
  Basis Set: AUG-CC-PVTZ
    Blend: AUG-CC-PVTZ
  Basis Set: (AUG-CC-PVTZ AUX)
    Blend: AUG-CC-PVTZ-JKFIT

    Orbital Energies [Eh]
    ---------------------

    Doubly Occupied:

       1A    -20.548477     2A    -20.530942     3A    -15.642697
       4A    -15.642476     5A    -11.417576     6A    -11.389432
       7A    -11.337929     8A    -11.287331     9A    -11.255735
      10A     -1.425037    11A     -1.383743    12A     -1.293477
      13A     -1.272662    14A     -1.091248    15A     -0.988242
      16A     -0.928388    17A     -0.897622    18A     -0.777364
      19A     -0.759912    20A     -0.700089    21A     -0.685234
      22A     -0.661443    23A     -0.628980    24A     -0.623587
      25A     -0.611458    26A     -0.605448    27A     -0.561713
      28A     -0.547065    29A     -0.499491    30A     -0.467333
      31A     -0.450681    32A     -0.435355    33A     -0.357897

  @DF-RHF Final Energy:  -451.64414733554725

   => Energetics <=

    Nuclear Repulsion Energy =            441.3943843246620986
    One-Electron Energy =               -1490.6649328006037649
    Two-Electron Energy =                 597.6264011403944778
    Total Energy =                       -451.6441473355472453
  Basis Set: (AUG-CC-PVTZ AUX)
    Blend: AUG-CC-PVTZ-RI
    Molecular point group: c1

    Geometry (in Angstrom), charge = 0, multiplicity = 1:

       Center              X                  Y                   Z               Mass
    ------------   -----------------  -----------------  -----------------  -----------------
         O           -1.454609475894     1.815853335885     0.000015880174    15.994914619570
         O            2.848127524106     0.235413335885    -0.000065119826    15.994914619570
         N           -1.149642475894    -0.480378664115     0.000191880174    14.003074004430
         N            0.674858524106     0.958828335885     0.000274880174    14.003074004430
         C           -0.609417175894     0.848841235885    -0.000269819826    12.000000000000
         C           -0.264259475894    -1.540869664115     0.000036880174    12.000000000000
         C           -2.588281475894    -0.736061664115    -0.000078119826    12.000000000000
         C            1.079039524106    -1.383161664115     0.000068880174    12.000000000000
         C            1.650325524106    -0.045035664115    -0.000224119826    12.000000000000
         H           -0.736353475894    -2.519090664115     0.000171880174     1.007825032230
         H           -2.871425475894    -1.297071664115     0.893627880174     1.007825032230
         H           -2.870812475894    -1.298151664115    -0.893348119826     1.007825032230
         H           -3.088774475894     0.229414335885    -0.000823119826     1.007825032230
         H            1.014219524106     1.918403335885     0.000311880174     1.007825032230
         H            1.756678524106    -2.227016664115    -0.000092119826     1.007825032230

  Basis Set: AUG-CC-PVTZ
    Blend: AUG-CC-PVTZ
  Basis Set: (AUG-CC-PVTZ AUX)
    Blend: AUG-CC-PVTZ-JKFIT
	 Reference Energy          =    -451.6441473355472453 [Eh]
	 Singles Energy            =      -0.0000000000000000 [Eh]
	 Same-Spin Energy          =      -0.4591672778008785 [Eh]
	 Opposite-Spin Energy      =      -1.3864817141533354 [Eh]
	 Correlation Energy        =      -1.8456489919542138 [Eh]
	 Total Energy              =    -453.4897963275014376 [Eh]

	 ================> DF-SCS-MP2 Energies <==================
	-----------------------------------------------------------
	 SCS Same-Spin Scale       =       0.3333333333333333 [-]
	 SCS Opposite-Spin Scale   =       1.2000000000000000 [-]
	 SCS Same-Spin Energy      =      -0.1530557592669595 [Eh]
	 SCS Opposite-Spin Energy  =      -1.6637780569840024 [Eh]
	 SCS Correlation Energy    =      -1.8168338162509619 [Eh]
	 SCS Total Energy          =    -453.4609811517981939 [Eh]
	-----------------------------------------------------------

  Dipole Moment: [D]
     X:    -2.5615      Y:    -3.6249      Z:    -0.0007     Total:     4.4386

*** Psi4 exiting successfully. Buy a developer a beer!
