                               Psi4 1.3.2 release

  ==> Input File <==

--------------------------------------------------------------------------
#psi4
#
memory 32 gb

molecule  {
0 1
  O       -1.3945310     1.8555980     0.0000210
  O        2.9082060     0.2751580    -0.0000600
  N       -1.0895640    -0.4406340     0.0001970
  N        0.7349370     0.9985730     0.0002800
  C       -0.6489740     0.8800530    -0.0003070
  C       -0.2041810    -1.5011250     0.0000420
  C       -2.5282030    -0.6963170    -0.0000730
  C        1.1290233    -1.2733303     0.0000625
  C        1.7104040    -0.0052910    -0.0002190
  H       -0.7268241    -2.4532979     0.0001707
  H       -2.8113470    -1.2573270     0.8936330
  H       -2.8107340    -1.2584070    -0.8933430
  H       -3.0286960     0.2691590    -0.0008180
  H        1.0742980     1.9581480     0.0003170
  H        1.8167570    -2.1872720    -0.0000870
units angstrom
no_reorient  #important for SAPT in psi4, default
symmetry c1  #important for SAPT in psi4, default
}

set PROPERTIES_ORIGIN ["COM"]
properties('MP2/aug-cc-pvtz', properties = ['dipole'])
--------------------------------------------------------------------------

    Molecular point group: c1
  Charge       = 0
  Multiplicity = 1
  Basis Set: AUG-CC-PVTZ
    Blend: AUG-CC-PVTZ
  Basis Set: (AUG-CC-PVTZ AUX)
    Blend: AUG-CC-PVTZ-JKFIT

    Orbital Energies [Eh]
    ---------------------

    Doubly Occupied:

       1A    -20.544516     2A    -20.536207     3A    -15.644634
       4A    -15.624722     5A    -11.417749     6A    -11.374785
       7A    -11.342480     8A    -11.290864     9A    -11.256092
      10A     -1.428448    11A     -1.387455    12A     -1.314331
      13A     -1.245869    14A     -1.095397    15A     -0.991845
      16A     -0.941122    17A     -0.869941    18A     -0.774017
      19A     -0.750900    20A     -0.705352    21A     -0.686413
      22A     -0.654599    23A     -0.644240    24A     -0.616369
      25A     -0.610513    26A     -0.597999    27A     -0.560984
      28A     -0.555808    29A     -0.499984    30A     -0.481152
      31A     -0.446935    32A     -0.432037    33A     -0.360963

  @DF-RHF Final Energy:  -451.65158532534747

   => Energetics <=

    Nuclear Repulsion Energy =            442.5120743844179287
    One-Electron Energy =               -1492.9578803337064983
    Two-Electron Energy =                 598.7942206239411007
    Total Energy =                       -451.6515853253474688
  Basis Set: (AUG-CC-PVTZ AUX)
    Blend: AUG-CC-PVTZ-RI
    Molecular point group: c1

    Geometry (in Angstrom), charge = 0, multiplicity = 1:

       Center              X                  Y                   Z               Mass
    ------------   -----------------  -----------------  -----------------  -----------------
         O           -1.443758374002     1.809784788107     0.000021052613    15.994914619570
         O            2.858978625998     0.229344788107    -0.000059947387    15.994914619570
         N           -1.138791374002    -0.486447211893     0.000197052613    14.003074004430
         N            0.685709625998     0.952759788107     0.000280052613    14.003074004430
         C           -0.698201374002     0.834239788107    -0.000306947387    12.000000000000
         C           -0.253408374002    -1.546938211893     0.000042052613    12.000000000000
         C           -2.577430374002    -0.742130211893    -0.000072947387    12.000000000000
         C            1.079795925998    -1.319143511893     0.000062552613    12.000000000000
         C            1.661176625998    -0.051104211893    -0.000218947387    12.000000000000
         H           -0.776051474002    -2.499111111893     0.000170752613     1.007825032230
         H           -2.860574374002    -1.303140211893     0.893633052613     1.007825032230
         H           -2.859961374002    -1.304220211893    -0.893342947387     1.007825032230
         H           -3.077923374002     0.223345788107    -0.000817947387     1.007825032230
         H            1.025070625998     1.912334788107     0.000317052613     1.007825032230
         H            1.767529625998    -2.233085211893    -0.000086947387     1.007825032230

  Basis Set: AUG-CC-PVTZ
    Blend: AUG-CC-PVTZ
  Basis Set: (AUG-CC-PVTZ AUX)
    Blend: AUG-CC-PVTZ-JKFIT
	 Reference Energy          =    -451.6515853253474688 [Eh]
	 Singles Energy            =      -0.0000000000000000 [Eh]
	 Same-Spin Energy          =      -0.4593304376255079 [Eh]
	 Opposite-Spin Energy      =      -1.3862611437768124 [Eh]
	 Correlation Energy        =      -1.8455915814023203 [Eh]
	 Total Energy              =    -453.4971769067498144 [Eh]

	 ================> DF-SCS-MP2 Energies <==================
	-----------------------------------------------------------
	 SCS Same-Spin Scale       =       0.3333333333333333 [-]
	 SCS Opposite-Spin Scale   =       1.2000000000000000 [-]
	 SCS Same-Spin Energy      =      -0.1531101458751693 [Eh]
	 SCS Opposite-Spin Energy  =      -1.6635133725321749 [Eh]
	 SCS Correlation Energy    =      -1.8166235184073443 [Eh]
	 SCS Total Energy          =    -453.4682088437548373 [Eh]
	-----------------------------------------------------------

  Dipole Moment: [D]
     X:    -3.3916      Y:    -3.6311      Z:    -0.0008     Total:     4.9686

*** Psi4 exiting successfully. Buy a developer a beer!
