                               Psi4 1.3.2 release

  ==> Input File <==

--------------------------------------------------------------------------
#psi4
#
memory 32 gb

molecule  {
0 1
  O       -1.3945310     1.8555980     0.0000210
  O        2.9082060     0.2751580    -0.0000600
  N       -1.0895640    -0.4406340     0.0001970
  N        0.7349370     0.9985730     0.0002800
  C       -0.7486093     0.8715201    -0.0003493
  C       -0.2041810    -1.5011250     0.0000420
  C       -2.5282030    -0.6963170    -0.0000730
  C        1.1391180    -1.3434170     0.0000740
  C        1.7104040    -0.0052910    -0.0002190
  H       -0.6762750    -2.4793460     0.0001770
  H       -2.8113470    -1.2573270     0.8936330
  H       -2.8107340    -1.2584070    -0.8933430
  H       -3.0286960     0.2691590    -0.0008180
  H        1.0742980     1.9581480     0.0003170
  H        1.8167570    -2.1872720    -0.0000870
units angstrom
no_reorient  #important for SAPT in psi4, default
symmetry c1  #important for SAPT in psi4, default
}

set PROPERTIES_ORIGIN ["COM"]
properties('MP2/aug-cc-pvtz', properties = ['dipole'])
--------------------------------------------------------------------------

    Molecular point group: c1
  Charge       = 0
  Multiplicity = 1
  Basis Set: AUG-CC-PVTZ
    Blend: AUG-CC-PVTZ
  Basis Set: (AUG-CC-PVTZ AUX)
    Blend: AUG-CC-PVTZ-JKFIT

    Orbital Energies [Eh]
    ---------------------

    Doubly Occupied:

       1A    -20.559444     2A    -20.529364     3A    -15.647056
       4A    -15.608588     5A    -11.419416     6A    -11.369829
       7A    -11.336454     8A    -11.293023     9A    -11.256837
      10A     -1.456139    11A     -1.381985    12A     -1.327900
      13A     -1.216825    14A     -1.091927    15A     -0.992398
      16A     -0.935136    17A     -0.850510    18A     -0.767794
      19A     -0.743831    20A     -0.704295    21A     -0.691244
      22A     -0.664267    23A     -0.643639    24A     -0.609898
      25A     -0.609383    26A     -0.599117    27A     -0.577631
      28A     -0.563024    29A     -0.502596    30A     -0.489408
      31A     -0.436397    32A     -0.422321    33A     -0.363413

  @DF-RHF Final Energy:  -451.65029717372272

   => Energetics <=

    Nuclear Repulsion Energy =            441.0985718939148796
    One-Electron Energy =               -1490.1755575989379849
    Two-Electron Energy =                 597.4266885313004423
    Total Energy =                       -451.6502971737227199
  Basis Set: (AUG-CC-PVTZ AUX)
    Blend: AUG-CC-PVTZ-RI
    Molecular point group: c1

    Geometry (in Angstrom), charge = 0, multiplicity = 1:

       Center              X                  Y                   Z               Mass
    ------------   -----------------  -----------------  -----------------  -----------------
         O           -1.435637787053     1.817478096624     0.000023934573    15.994914619570
         O            2.867099212947     0.237038096624    -0.000057065427    15.994914619570
         N           -1.130670787053    -0.478753903376     0.000199934573    14.003074004430
         N            0.693830212947     0.960453096624     0.000282934573    14.003074004430
         C           -0.789716087053     0.833400196624    -0.000346365427    12.000000000000
         C           -0.245287787053    -1.539244903376     0.000044934573    12.000000000000
         C           -2.569309787053    -0.734436903376    -0.000070065427    12.000000000000
         C            1.098011212947    -1.381536903376     0.000076934573    12.000000000000
         C            1.669297212947    -0.043410903376    -0.000216065427    12.000000000000
         H           -0.717381787053    -2.517465903376     0.000179934573     1.007825032230
         H           -2.852453787053    -1.295446903376     0.893635934573     1.007825032230
         H           -2.851840787053    -1.296526903376    -0.893340065427     1.007825032230
         H           -3.069802787053     0.231039096624    -0.000815065427     1.007825032230
         H            1.033191212947     1.920028096624     0.000319934573     1.007825032230
         H            1.775650212947    -2.225391903376    -0.000084065427     1.007825032230

  Basis Set: AUG-CC-PVTZ
    Blend: AUG-CC-PVTZ
  Basis Set: (AUG-CC-PVTZ AUX)
    Blend: AUG-CC-PVTZ-JKFIT
	 Reference Energy          =    -451.6502971737227199 [Eh]
	 Singles Energy            =      -0.0000000000000000 [Eh]
	 Same-Spin Energy          =      -0.4575460677126654 [Eh]
	 Opposite-Spin Energy      =      -1.3845473214622583 [Eh]
	 Correlation Energy        =      -1.8420933891749238 [Eh]
	 Total Energy              =    -453.4923905628976399 [Eh]

	 ================> DF-SCS-MP2 Energies <==================
	-----------------------------------------------------------
	 SCS Same-Spin Scale       =       0.3333333333333333 [-]
	 SCS Opposite-Spin Scale   =       1.2000000000000000 [-]
	 SCS Same-Spin Energy      =      -0.1525153559042218 [Eh]
	 SCS Opposite-Spin Energy  =      -1.6614567857547100 [Eh]
	 SCS Correlation Energy    =      -1.8139721416589318 [Eh]
	 SCS Total Energy          =    -453.4642693153816708 [Eh]
	-----------------------------------------------------------

  Dipole Moment: [D]
     X:    -3.9457      Y:    -3.4676      Z:    -0.0010     Total:     5.2529

*** Psi4 exiting successfully. Buy a developer a beer!
