                               Psi4 1.3.2 release

  ==> Input File <==

--------------------------------------------------------------------------
#psi4
#
memory 32 gb

molecule  {
0 1
  O       -1.3945310     1.8555980     0.0000210
  O        2.9082060     0.2751580    -0.0000600
  N       -1.0895640    -0.4406340     0.0001970
  N        0.7349370     0.9985730     0.0002800
  C       -0.6489740     0.8800530    -0.0003070
  C       -0.2228240    -1.5164155     0.0000353
  C       -2.5235216    -0.7213858    -0.0000790
  C        1.1391180    -1.3434170     0.0000740
  C        1.7104040    -0.0052910    -0.0002190
  H       -0.6762750    -2.4793460     0.0001770
  H       -2.8113470    -1.2573270     0.8936330
  H       -2.8107340    -1.2584070    -0.8933430
  H       -3.0286960     0.2691590    -0.0008180
  H        1.0742980     1.9581480     0.0003170
  H        1.8167570    -2.1872720    -0.0000870
units angstrom
no_reorient  #important for SAPT in psi4, default
symmetry c1  #important for SAPT in psi4, default
}

set PROPERTIES_ORIGIN ["COM"]
properties('MP2/aug-cc-pvtz', properties = ['dipole'])
--------------------------------------------------------------------------

    Molecular point group: c1
  Charge       = 0
  Multiplicity = 1
  Basis Set: AUG-CC-PVTZ
    Blend: AUG-CC-PVTZ
  Basis Set: (AUG-CC-PVTZ AUX)
    Blend: AUG-CC-PVTZ-JKFIT

    Orbital Energies [Eh]
    ---------------------

    Doubly Occupied:

       1A    -20.546048     2A    -20.538299     3A    -15.645324
       4A    -15.626829     5A    -11.419756     6A    -11.379695
       7A    -11.338572     8A    -11.289621     9A    -11.257802
      10A     -1.428454    11A     -1.387794    12A     -1.312648
      13A     -1.245960    14A     -1.086256    15A     -0.990004
      16A     -0.933565    17A     -0.871505    18A     -0.771267
      19A     -0.752145    20A     -0.705050    21A     -0.687014
      22A     -0.658029    23A     -0.643713    24A     -0.618278
      25A     -0.608576    26A     -0.601762    27A     -0.565184
      28A     -0.554865    29A     -0.499540    30A     -0.480717
      31A     -0.445958    32A     -0.433064    33A     -0.357829

  @DF-RHF Final Energy:  -451.65767236422715

   => Energetics <=

    Nuclear Repulsion Energy =            440.7672775705634649
    One-Electron Energy =               -1489.4876516030931271
    Two-Electron Energy =                 597.0627016683025658
    Total Energy =                       -451.6576723642270963
  Basis Set: (AUG-CC-PVTZ AUX)
    Blend: AUG-CC-PVTZ-RI
    Molecular point group: c1

    Geometry (in Angstrom), charge = 0, multiplicity = 1:

       Center              X                  Y                   Z               Mass
    ------------   -----------------  -----------------  -----------------  -----------------
         O           -1.443794408141     1.820508150018     0.000021116486    15.994914619570
         O            2.858942591859     0.240068150018    -0.000059883514    15.994914619570
         N           -1.138827408141    -0.475723849982     0.000197116486    14.003074004430
         N            0.685673591859     0.963483150018     0.000280116486    14.003074004430
         C           -0.698237408141     0.844963150018    -0.000306883514    12.000000000000
         C           -0.272087408141    -1.551505349982     0.000035416486    12.000000000000
         C           -2.572785008141    -0.756475649982    -0.000078883514    12.000000000000
         C            1.089854591859    -1.378506849982     0.000074116486    12.000000000000
         C            1.661140591859    -0.040380849982    -0.000218883514    12.000000000000
         H           -0.725538408141    -2.514435849982     0.000177116486     1.007825032230
         H           -2.860610408141    -1.292416849982     0.893633116486     1.007825032230
         H           -2.859997408141    -1.293496849982    -0.893342883514     1.007825032230
         H           -3.077959408141     0.234069150018    -0.000817883514     1.007825032230
         H            1.025034591859     1.923058150018     0.000317116486     1.007825032230
         H            1.767493591859    -2.222361849982    -0.000086883514     1.007825032230

  Basis Set: AUG-CC-PVTZ
    Blend: AUG-CC-PVTZ
  Basis Set: (AUG-CC-PVTZ AUX)
    Blend: AUG-CC-PVTZ-JKFIT
	 Reference Energy          =    -451.6576723642271531 [Eh]
	 Singles Energy            =      -0.0000000000000000 [Eh]
	 Same-Spin Energy          =      -0.4583892299585174 [Eh]
	 Opposite-Spin Energy      =      -1.3855346758992213 [Eh]
	 Correlation Energy        =      -1.8439239058577388 [Eh]
	 Total Energy              =    -453.5015962700849173 [Eh]

	 ================> DF-SCS-MP2 Energies <==================
	-----------------------------------------------------------
	 SCS Same-Spin Scale       =       0.3333333333333333 [-]
	 SCS Opposite-Spin Scale   =       1.2000000000000000 [-]
	 SCS Same-Spin Energy      =      -0.1527964099861724 [Eh]
	 SCS Opposite-Spin Energy  =      -1.6626416110790656 [Eh]
	 SCS Correlation Energy    =      -1.8154380210652381 [Eh]
	 SCS Total Energy          =    -453.4731103852923866 [Eh]
	-----------------------------------------------------------

  Dipole Moment: [D]
     X:    -3.2627      Y:    -3.5465      Z:    -0.0009     Total:     4.8189

*** Psi4 exiting successfully. Buy a developer a beer!
