                               Psi4 1.3.2 release

  ==> Input File <==

--------------------------------------------------------------------------
#psi4
#
memory 32 gb

molecule  {
0 1
  O       -1.3945310     1.8555980     0.0000210
  O        2.9082060     0.2751580    -0.0000600
  N       -1.0709210    -0.4253435     0.0001925
  N        0.7349370     0.9985730     0.0002800
  C       -0.6489740     0.8800530    -0.0003070
  C       -0.2041810    -1.5011250     0.0000420
  C       -2.5282030    -0.6963170    -0.0000730
  C        1.1391180    -1.3434170     0.0000740
  C        1.7104040    -0.0052910    -0.0002190
  H       -0.6591308    -2.4874362     0.0001736
  H       -2.8113470    -1.2573270     0.8936330
  H       -2.8107340    -1.2584070    -0.8933430
  H       -3.0286960     0.2691590    -0.0008180
  H        1.0742980     1.9581480     0.0003170
  H        1.8167570    -2.1872720    -0.0000870
units angstrom
no_reorient  #important for SAPT in psi4, default
symmetry c1  #important for SAPT in psi4, default
}

set PROPERTIES_ORIGIN ["COM"]
properties('MP2/aug-cc-pvtz', properties = ['dipole'])
--------------------------------------------------------------------------

    Molecular point group: c1
  Charge       = 0
  Multiplicity = 1
  Basis Set: AUG-CC-PVTZ
    Blend: AUG-CC-PVTZ
  Basis Set: (AUG-CC-PVTZ AUX)
    Blend: AUG-CC-PVTZ-JKFIT

    Orbital Energies [Eh]
    ---------------------

    Doubly Occupied:

       1A    -20.542939     2A    -20.538318     3A    -15.644770
       4A    -15.624827     5A    -11.415822     6A    -11.379355
       7A    -11.337205     8A    -11.292193     9A    -11.256474
      10A     -1.428666    11A     -1.387546    12A     -1.312612
      13A     -1.243509    14A     -1.091375    15A     -0.990696
      16A     -0.932253    17A     -0.871798    18A     -0.773293
      19A     -0.751443    20A     -0.700412    21A     -0.685500
      22A     -0.655647    23A     -0.643069    24A     -0.614032
      25A     -0.610110    26A     -0.598662    27A     -0.573573
      28A     -0.554528    29A     -0.500103    30A     -0.479176
      31A     -0.445351    32A     -0.432135    33A     -0.361572

  @DF-RHF Final Energy:  -451.66014568272175

   => Energetics <=

    Nuclear Repulsion Energy =            441.4649042147105433
    One-Electron Energy =               -1490.9121761815524678
    Two-Electron Energy =                 597.7871262841201769
    Total Energy =                       -451.6601456827218044
  Basis Set: (AUG-CC-PVTZ AUX)
    Blend: AUG-CC-PVTZ-RI
    Molecular point group: c1

    Geometry (in Angstrom), charge = 0, multiplicity = 1:

       Center              X                  Y                   Z               Mass
    ------------   -----------------  -----------------  -----------------  -----------------
         O           -1.447331908195     1.815031665847     0.000020434499    15.994914619570
         O            2.855405091805     0.234591665847    -0.000060565501    15.994914619570
         N           -1.123721908195    -0.465909834153     0.000191934499    14.003074004430
         N            0.682136091805     0.958006665847     0.000279434499    14.003074004430
         C           -0.701774908195     0.839486665847    -0.000307565501    12.000000000000
         C           -0.256981908195    -1.541691334153     0.000041434499    12.000000000000
         C           -2.581003908195    -0.736883334153    -0.000073565501    12.000000000000
         C            1.086317091805    -1.383983334153     0.000073434499    12.000000000000
         C            1.657603091805    -0.045857334153    -0.000219565501    12.000000000000
         H           -0.711931708195    -2.528002534153     0.000173034499     1.007825032230
         H           -2.864147908195    -1.297893334153     0.893632434499     1.007825032230
         H           -2.863534908195    -1.298973334153    -0.893343565501     1.007825032230
         H           -3.081496908195     0.228592665847    -0.000818565501     1.007825032230
         H            1.021497091805     1.917581665847     0.000316434499     1.007825032230
         H            1.763956091805    -2.227838334153    -0.000087565501     1.007825032230

  Basis Set: AUG-CC-PVTZ
    Blend: AUG-CC-PVTZ
  Basis Set: (AUG-CC-PVTZ AUX)
    Blend: AUG-CC-PVTZ-JKFIT
	 Reference Energy          =    -451.6601456827217476 [Eh]
	 Singles Energy            =      -0.0000000000000000 [Eh]
	 Same-Spin Energy          =      -0.4579457420994740 [Eh]
	 Opposite-Spin Energy      =      -1.3846716252169529 [Eh]
	 Correlation Energy        =      -1.8426173673164268 [Eh]
	 Total Energy              =    -453.5027630500381974 [Eh]

	 ================> DF-SCS-MP2 Energies <==================
	-----------------------------------------------------------
	 SCS Same-Spin Scale       =       0.3333333333333333 [-]
	 SCS Opposite-Spin Scale   =       1.2000000000000000 [-]
	 SCS Same-Spin Energy      =      -0.1526485806998246 [Eh]
	 SCS Opposite-Spin Energy  =      -1.6616059502603433 [Eh]
	 SCS Correlation Energy    =      -1.8142545309601679 [Eh]
	 SCS Total Energy          =    -453.4744002136819176 [Eh]
	-----------------------------------------------------------

  Dipole Moment: [D]
     X:    -3.2606      Y:    -3.6516      Z:    -0.0009     Total:     4.8955

*** Psi4 exiting successfully. Buy a developer a beer!
