                               Psi4 1.3.2 release

  ==> Input File <==

--------------------------------------------------------------------------
#psi4
#
memory 32 gb

molecule  {
0 1
  O       -1.3945310     1.8555980     0.0000210
  O        2.9082060     0.2751580    -0.0000600
  N       -1.1353869    -0.4244531     0.0001667
  N        0.7299577     1.0467986     0.0002517
  C       -0.6489740     0.8800530    -0.0003070
  C       -0.2041810    -1.5011250     0.0000420
  C       -2.5282030    -0.6963170    -0.0000730
  C        1.1391180    -1.3434170     0.0000740
  C        1.7104040    -0.0052910    -0.0002190
  H       -0.6762750    -2.4793460     0.0001770
  H       -2.8113470    -1.2573270     0.8936330
  H       -2.8107340    -1.2584070    -0.8933430
  H       -3.0286960     0.2691590    -0.0008180
  H        1.0742980     1.9581480     0.0003170
  H        1.8167570    -2.1872720    -0.0000870
units angstrom
no_reorient  #important for SAPT in psi4, default
symmetry c1  #important for SAPT in psi4, default
}

set PROPERTIES_ORIGIN ["COM"]
properties('MP2/aug-cc-pvtz', properties = ['dipole'])
--------------------------------------------------------------------------

    Molecular point group: c1
  Charge       = 0
  Multiplicity = 1
  Basis Set: AUG-CC-PVTZ
    Blend: AUG-CC-PVTZ
  Basis Set: (AUG-CC-PVTZ AUX)
    Blend: AUG-CC-PVTZ-JKFIT

    Orbital Energies [Eh]
    ---------------------

    Doubly Occupied:

       1A    -20.546048     2A    -20.537845     3A    -15.643509
       4A    -15.623421     5A    -11.414432     6A    -11.386317
       7A    -11.342047     8A    -11.284927     9A    -11.263464
      10A     -1.424878    11A     -1.390740    12A     -1.304542
      13A     -1.244577    14A     -1.095600    15A     -0.989427
      16A     -0.928738    17A     -0.860468    18A     -0.778945
      19A     -0.756580    20A     -0.699578    21A     -0.684090
      22A     -0.661654    23A     -0.645011    24A     -0.614302
      25A     -0.612739    26A     -0.612395    27A     -0.564898
      28A     -0.553281    29A     -0.491202    30A     -0.477580
      31A     -0.446640    32A     -0.432351    33A     -0.365326

  @DF-RHF Final Energy:  -451.65510145716388

   => Energetics <=

    Nuclear Repulsion Energy =            440.0725331930762536
    One-Electron Energy =               -1488.1001629258253161
    Two-Electron Energy =                 596.3725282755851822
    Total Energy =                       -451.6551014571639371
  Basis Set: (AUG-CC-PVTZ AUX)
    Blend: AUG-CC-PVTZ-RI
    Molecular point group: c1

    Geometry (in Angstrom), charge = 0, multiplicity = 1:

       Center              X                  Y                   Z               Mass
    ------------   -----------------  -----------------  -----------------  -----------------
         O           -1.439479626049     1.809510304966     0.000026417697    15.994914619570
         O            2.863257373951     0.229070304966    -0.000054582303    15.994914619570
         N           -1.180335526049    -0.470540795034     0.000172117697    14.003074004430
         N            0.685009073951     1.000710904966     0.000257117697    14.003074004430
         C           -0.693922626049     0.833965304966    -0.000301582303    12.000000000000
         C           -0.249129626049    -1.547212695034     0.000047417697    12.000000000000
         C           -2.573151626049    -0.742404695034    -0.000067582303    12.000000000000
         C            1.094169373951    -1.389504695034     0.000079417697    12.000000000000
         C            1.665455373951    -0.051378695034    -0.000213582303    12.000000000000
         H           -0.721223626049    -2.525433695034     0.000182417697     1.007825032230
         H           -2.856295626049    -1.303414695034     0.893638417697     1.007825032230
         H           -2.855682626049    -1.304494695034    -0.893337582303     1.007825032230
         H           -3.073644626049     0.223071304966    -0.000812582303     1.007825032230
         H            1.029349373951     1.912060304966     0.000322417697     1.007825032230
         H            1.771808373951    -2.233359695034    -0.000081582303     1.007825032230

  Basis Set: AUG-CC-PVTZ
    Blend: AUG-CC-PVTZ
  Basis Set: (AUG-CC-PVTZ AUX)
    Blend: AUG-CC-PVTZ-JKFIT
	 Reference Energy          =    -451.6551014571638802 [Eh]
	 Singles Energy            =      -0.0000000000000000 [Eh]
	 Same-Spin Energy          =      -0.4572423123106188 [Eh]
	 Opposite-Spin Energy      =      -1.3843547574722126 [Eh]
	 Correlation Energy        =      -1.8415970697828314 [Eh]
	 Total Energy              =    -453.4966985269467159 [Eh]

	 ================> DF-SCS-MP2 Energies <==================
	-----------------------------------------------------------
	 SCS Same-Spin Scale       =       0.3333333333333333 [-]
	 SCS Opposite-Spin Scale   =       1.2000000000000000 [-]
	 SCS Same-Spin Energy      =      -0.1524141041035396 [Eh]
	 SCS Opposite-Spin Energy  =      -1.6612257089666551 [Eh]
	 SCS Correlation Energy    =      -1.8136398130701947 [Eh]
	 SCS Total Energy          =    -453.4687412702340907 [Eh]
	-----------------------------------------------------------

  Dipole Moment: [D]
     X:    -2.8309      Y:    -3.7229      Z:    -0.0008     Total:     4.6769

*** Psi4 exiting successfully. Buy a developer a beer!
