                               Psi4 1.3.2 release

  ==> Input File <==

--------------------------------------------------------------------------
#psi4
#
memory 32 gb

molecule  {
0 1
  O       -1.3945310     1.8555980     0.0000210
  O        2.9082060     0.2751580    -0.0000600
  N       -1.0895640    -0.4406340     0.0001970
  N        0.7349370     0.9985730     0.0002800
  C       -0.7186972     0.9013017    -0.0003360
  C       -0.2041810    -1.5011250     0.0000420
  C       -2.5396128    -0.6206741    -0.0001118
  C        1.1391180    -1.3434170     0.0000740
  C        1.7104040    -0.0052910    -0.0002190
  H       -0.6762750    -2.4793460     0.0001770
  H       -2.8113470    -1.2573270     0.8936330
  H       -2.8107340    -1.2584070    -0.8933430
  H       -3.0286960     0.2691590    -0.0008180
  H        1.0742980     1.9581480     0.0003170
  H        1.8167570    -2.1872720    -0.0000870
units angstrom
no_reorient  #important for SAPT in psi4, default
symmetry c1  #important for SAPT in psi4, default
}

set PROPERTIES_ORIGIN ["COM"]
properties('MP2/aug-cc-pvtz', properties = ['dipole'])
--------------------------------------------------------------------------

    Molecular point group: c1
  Charge       = 0
  Multiplicity = 1
  Basis Set: AUG-CC-PVTZ
    Blend: AUG-CC-PVTZ
  Basis Set: (AUG-CC-PVTZ AUX)
    Blend: AUG-CC-PVTZ-JKFIT

    Orbital Energies [Eh]
    ---------------------

    Doubly Occupied:

       1A    -20.561933     2A    -20.531635     3A    -15.642754
       4A    -15.613274     5A    -11.418804     6A    -11.372748
       7A    -11.336652     8A    -11.291958     9A    -11.254493
      10A     -1.462153    11A     -1.384627    12A     -1.319203
      13A     -1.225155    14A     -1.090811    15A     -0.985943
      16A     -0.929808    17A     -0.858339    18A     -0.766961
      19A     -0.746210    20A     -0.705705    21A     -0.683310
      22A     -0.668521    23A     -0.647952    24A     -0.615365
      25A     -0.601389    26A     -0.600366    27A     -0.583550
      28A     -0.564073    29A     -0.495598    30A     -0.491491
      31A     -0.440039    32A     -0.427531    33A     -0.358934

  @DF-RHF Final Energy:  -451.64680817567205

   => Energetics <=

    Nuclear Repulsion Energy =            441.2167694154683204
    One-Electron Energy =               -1490.3725831415829362
    Two-Electron Energy =                 597.5090055504424527
    Total Energy =                       -451.6468081756720494
  Basis Set: (AUG-CC-PVTZ AUX)
    Blend: AUG-CC-PVTZ-RI
    Molecular point group: c1

    Geometry (in Angstrom), charge = 0, multiplicity = 1:

       Center              X                  Y                   Z               Mass
    ------------   -----------------  -----------------  -----------------  -----------------
         O           -1.437399310722     1.807441087601     0.000026362318    15.994914619570
         O            2.865337689278     0.227001087601    -0.000054637682    15.994914619570
         N           -1.132432310722    -0.488790912399     0.000202362318    14.003074004430
         N            0.692068689278     0.950416087601     0.000285362318    14.003074004430
         C           -0.761565510722     0.853144787601    -0.000330637682    12.000000000000
         C           -0.247049310722    -1.549281912399     0.000047362318    12.000000000000
         C           -2.582481110722    -0.668831012399    -0.000106437682    12.000000000000
         C            1.096249689278    -1.391573912399     0.000079362318    12.000000000000
         C            1.667535689278    -0.053447912399    -0.000213637682    12.000000000000
         H           -0.719143310722    -2.527502912399     0.000182362318     1.007825032230
         H           -2.854215310722    -1.305483912399     0.893638362318     1.007825032230
         H           -2.853602310722    -1.306563912399    -0.893337637682     1.007825032230
         H           -3.071564310722     0.221002087601    -0.000812637682     1.007825032230
         H            1.031429689278     1.909991087601     0.000322362318     1.007825032230
         H            1.773888689278    -2.235428912399    -0.000081637682     1.007825032230

  Basis Set: AUG-CC-PVTZ
    Blend: AUG-CC-PVTZ
  Basis Set: (AUG-CC-PVTZ AUX)
    Blend: AUG-CC-PVTZ-JKFIT
	 Reference Energy          =    -451.6468081756720494 [Eh]
	 Singles Energy            =      -0.0000000000000000 [Eh]
	 Same-Spin Energy          =      -0.4573208764389292 [Eh]
	 Opposite-Spin Energy      =      -1.3839699402199728 [Eh]
	 Correlation Energy        =      -1.8412908166589019 [Eh]
	 Total Energy              =    -453.4880989923309471 [Eh]

	 ================> DF-SCS-MP2 Energies <==================
	-----------------------------------------------------------
	 SCS Same-Spin Scale       =       0.3333333333333333 [-]
	 SCS Opposite-Spin Scale   =       1.2000000000000000 [-]
	 SCS Same-Spin Energy      =      -0.1524402921463097 [Eh]
	 SCS Opposite-Spin Energy  =      -1.6607639282639672 [Eh]
	 SCS Correlation Energy    =      -1.8132042204102770 [Eh]
	 SCS Total Energy          =    -453.4600123960823339 [Eh]
	-----------------------------------------------------------

  Dipole Moment: [D]
     X:    -3.7731      Y:    -3.2172      Z:    -0.0010     Total:     4.9585

*** Psi4 exiting successfully. Buy a developer a beer!
