                               Psi4 1.4a3.dev225

  ==> Input File <==

--------------------------------------------------------------------------
#psi4
#
memory 32 gb

molecule  {
0 1
  O       -1.4350980    -1.8086910     0.0000000
  O        2.9075840    -0.3082450     0.0000000
  N       -1.0785060     0.4619330     0.0000000
  N        0.7249750    -1.0056720    -0.0000010
  C       -0.6517050    -0.8641080     0.0000000
  C       -0.1841290     1.5083600     0.0000000
  C       -2.5245930     0.6731660     0.0000000
  C        1.1582900     1.3329580     0.0000000
  C        1.7164880    -0.0081480     0.0000000
  H       -0.6338540     2.4967290    -0.0000010
  H       -2.9690000     0.2175100    -0.8862740
  H       -2.7227548     1.7957467     0.0000000
  H       -2.9689990     0.2175090     0.8862740
  H        1.0585810    -1.9665760     0.0000000
  H        1.8360540     2.1766110     0.0000000
units angstrom
no_reorient  #important for SAPT in psi4, default
symmetry c1  #important for SAPT in psi4, default
}

set PROPERTIES_ORIGIN ["COM"]
properties('MP2/aug-cc-pvtz', properties = ['dipole'])
--------------------------------------------------------------------------

    Molecular point group: c1
  Charge       = 0
  Multiplicity = 1
  Basis Set: AUG-CC-PVTZ
    Blend: AUG-CC-PVTZ
  Basis Set: (AUG-CC-PVTZ AUX)
    Blend: AUG-CC-PVTZ-JKFIT

    Orbital Energies [Eh]
    ---------------------

    Doubly Occupied:

       1A    -20.546279     2A    -20.538650     3A    -15.645419
       4A    -15.626891     5A    -11.416697     6A    -11.379864
       7A    -11.338224     8A    -11.298557     9A    -11.253553
      10A     -1.429438    11A     -1.388986    12A     -1.312285
      13A     -1.246387    14A     -1.091048    15A     -0.985420
      16A     -0.931434    17A     -0.871773    18A     -0.771840
      19A     -0.751440    20A     -0.701223    21A     -0.686520
      22A     -0.658255    23A     -0.643822    24A     -0.611087
      25A     -0.603099    26A     -0.602787    27A     -0.572866
      28A     -0.550929    29A     -0.503468    30A     -0.480436
      31A     -0.446239    32A     -0.433165    33A     -0.358761

  @DF-RHF Final Energy:  -451.65920618490094

   => Energetics <=

    Nuclear Repulsion Energy =            441.3694414083688571
    One-Electron Energy =               -1490.7036145949195998
    Two-Electron Energy =                 597.6749670016498612
    Total Energy =                       -451.6592061849008815
  Basis Set: (AUG-CC-PVTZ AUX)
    Blend: AUG-CC-PVTZ-RI
    Molecular point group: c1

    Geometry (in Angstrom), charge = 0, multiplicity = 1:

       Center              X                  Y                   Z               Mass
    ------------   -----------------  -----------------  -----------------  -----------------
         O           -1.485270797694    -1.770677554110     0.000000119094    15.994914619570
         O            2.857411202306    -0.270231554110     0.000000119094    15.994914619570
         N           -1.128678797694     0.499946445890     0.000000119094    14.003074004430
         N            0.674802202306    -0.967658554110    -0.000000880906    14.003074004430
         C           -0.701877797694    -0.826094554110     0.000000119094    12.000000000000
         C           -0.234301797694     1.546373445890     0.000000119094    12.000000000000
         C           -2.574765797694     0.711179445890     0.000000119094    12.000000000000
         C            1.108117202306     1.370971445890     0.000000119094    12.000000000000
         C            1.666315202306     0.029865445890     0.000000119094    12.000000000000
         H           -0.684026797694     2.534742445890    -0.000000880906     1.007825032230
         H           -3.019172797694     0.255523445890    -0.886273880906     1.007825032230
         H           -2.772927597694     1.833760145890     0.000000119094     1.007825032230
         H           -3.019171797694     0.255522445890     0.886274119094     1.007825032230
         H            1.008408202306    -1.928562554110     0.000000119094     1.007825032230
         H            1.785881202306     2.214624445890     0.000000119094     1.007825032230

  Basis Set: AUG-CC-PVTZ
    Blend: AUG-CC-PVTZ
  Basis Set: (AUG-CC-PVTZ AUX)
    Blend: AUG-CC-PVTZ-JKFIT
	 Reference Energy          =    -451.6592061849009383 [Eh]
	 Singles Energy            =      -0.0000000000000000 [Eh]
	 Same-Spin Energy          =      -0.4580469547891778 [Eh]
	 Opposite-Spin Energy      =      -1.3850179356348273 [Eh]
	 Correlation Energy        =      -1.8430648904240052 [Eh]
	 Total Energy              =    -453.5022710753249271 [Eh]

	 ================> DF-SCS-MP2 Energies <==================
	-----------------------------------------------------------
	 SCS Same-Spin Scale       =       0.3333333333333333 [-]
	 SCS Opposite-Spin Scale   =       1.2000000000000000 [-]
	 SCS Same-Spin Energy      =      -0.1526823182630593 [Eh]
	 SCS Opposite-Spin Energy  =      -1.6620215227617927 [Eh]
	 SCS Correlation Energy    =      -1.8147038410248519 [Eh]
	 SCS Total Energy          =    -453.4739100259258180 [Eh]
	-----------------------------------------------------------

  Dipole Moment: [D]
     X:    -3.2071      Y:     3.5325      Z:     0.0000     Total:     4.7712

*** Psi4 exiting successfully. Buy a developer a beer!
