                               Psi4 1.3.2 release

  ==> Input File <==

--------------------------------------------------------------------------
#psi4
#
memory 32 gb

molecule  {
0 1
  O       -1.3945310     1.8555980     0.0000210
  O        2.9082060     0.2751580    -0.0000600
  N       -1.0895640    -0.4406340     0.0001970
  N        0.7349370     0.9985730     0.0002800
  C       -0.6466948     0.8559185    -0.0003032
  C       -0.2041810    -1.5011250     0.0000420
  C       -2.5282030    -0.6963170    -0.0000730
  C        1.1391180    -1.3434170     0.0000740
  C        1.7104040    -0.0052910    -0.0002190
  H       -0.6762750    -2.4793460     0.0001770
  H       -2.8113470    -1.2573270     0.8936330
  H       -2.8107340    -1.2584070    -0.8933430
  H       -3.0286960     0.2691590    -0.0008180
  H        1.0909932     1.9520792     0.0003249
  H        1.8167570    -2.1872720    -0.0000870
units angstrom
no_reorient  #important for SAPT in psi4, default
symmetry c1  #important for SAPT in psi4, default
}

set PROPERTIES_ORIGIN ["COM"]
properties('MP2/aug-cc-pvtz', properties = ['dipole'])
--------------------------------------------------------------------------

    Molecular point group: c1
  Charge       = 0
  Multiplicity = 1
  Basis Set: AUG-CC-PVTZ
    Blend: AUG-CC-PVTZ
  Basis Set: (AUG-CC-PVTZ AUX)
    Blend: AUG-CC-PVTZ-JKFIT

    Orbital Energies [Eh]
    ---------------------

    Doubly Occupied:

       1A    -20.539684     2A    -20.539497     3A    -15.648007
       4A    -15.627394     5A    -11.417843     6A    -11.380067
       7A    -11.338715     8A    -11.291771     9A    -11.258876
      10A     -1.422032    11A     -1.386411    12A     -1.311795
      13A     -1.246092    14A     -1.093268    15A     -0.994418
      16A     -0.934455    17A     -0.871431    18A     -0.776385
      19A     -0.753255    20A     -0.700609    21A     -0.687605
      22A     -0.655699    23A     -0.641070    24A     -0.614862
      25A     -0.611023    26A     -0.603007    27A     -0.573406
      28A     -0.551483    29A     -0.499165    30A     -0.475707
      31A     -0.445273    32A     -0.430977    33A     -0.363124

  @DF-RHF Final Energy:  -451.65860122830901

   => Energetics <=

    Nuclear Repulsion Energy =            441.3178851976376791
    One-Electron Energy =               -1490.5841582900975482
    Two-Electron Energy =                 597.6076718641509160
    Total Energy =                       -451.6586012283089531
  Basis Set: (AUG-CC-PVTZ AUX)
    Blend: AUG-CC-PVTZ-RI
    Molecular point group: c1

    Geometry (in Angstrom), charge = 0, multiplicity = 1:

       Center              X                  Y                   Z               Mass
    ------------   -----------------  -----------------  -----------------  -----------------
         O           -1.445474117148     1.819011982678     0.000019482425    15.994914619570
         O            2.857262882852     0.238571982678    -0.000061517575    15.994914619570
         N           -1.140507117148    -0.477220017322     0.000195482425    14.003074004430
         N            0.683993882852     0.961986982678     0.000278482425    14.003074004430
         C           -0.697637917148     0.819332482678    -0.000304717575    12.000000000000
         C           -0.255124117148    -1.537711017322     0.000040482425    12.000000000000
         C           -2.579146117148    -0.732903017322    -0.000074517575    12.000000000000
         C            1.088174882852    -1.380003017322     0.000072482425    12.000000000000
         C            1.659460882852    -0.041877017322    -0.000220517575    12.000000000000
         H           -0.727218117148    -2.515932017322     0.000175482425     1.007825032230
         H           -2.862290117148    -1.293913017322     0.893631482425     1.007825032230
         H           -2.861677117148    -1.294993017322    -0.893344517575     1.007825032230
         H           -3.079639117148     0.232572982678    -0.000819517575     1.007825032230
         H            1.040050082852     1.915493182678     0.000323382425     1.007825032230
         H            1.765813882852    -2.223858017322    -0.000088517575     1.007825032230

  Basis Set: AUG-CC-PVTZ
    Blend: AUG-CC-PVTZ
  Basis Set: (AUG-CC-PVTZ AUX)
    Blend: AUG-CC-PVTZ-JKFIT
	 Reference Energy          =    -451.6586012283090099 [Eh]
	 Singles Energy            =      -0.0000000000000000 [Eh]
	 Same-Spin Energy          =      -0.4583045822134533 [Eh]
	 Opposite-Spin Energy      =      -1.3853464298292397 [Eh]
	 Correlation Energy        =      -1.8436510120426930 [Eh]
	 Total Energy              =    -453.5022522403517087 [Eh]

	 ================> DF-SCS-MP2 Energies <==================
	-----------------------------------------------------------
	 SCS Same-Spin Scale       =       0.3333333333333333 [-]
	 SCS Opposite-Spin Scale   =       1.2000000000000000 [-]
	 SCS Same-Spin Energy      =      -0.1527681940711511 [Eh]
	 SCS Opposite-Spin Energy  =      -1.6624157157950876 [Eh]
	 SCS Correlation Energy    =      -1.8151839098662388 [Eh]
	 SCS Total Energy          =    -453.4737851381752307 [Eh]
	-----------------------------------------------------------

  Dipole Moment: [D]
     X:    -3.1563      Y:    -3.7659      Z:    -0.0008     Total:     4.9137

*** Psi4 exiting successfully. Buy a developer a beer!
