                               Psi4 1.3.2 release

  ==> Input File <==

--------------------------------------------------------------------------
#psi4
#
memory 32 gb

molecule  {
0 1
  O       -1.3945310     1.8555980     0.0000210
  O        2.9082060     0.2751580    -0.0000600
  N       -1.0895640    -0.4406340     0.0001970
  N        0.7349370     0.9985730     0.0002800
  C       -0.6489740     0.8800530    -0.0003070
  C       -0.2041810    -1.5011250     0.0000420
  C       -2.5282030    -0.6963170    -0.0000730
  C        1.1391180    -1.3434170     0.0000740
  C        1.7220595    -0.0103273    -0.0002225
  H       -0.6762750    -2.4793460     0.0001770
  H       -2.8113470    -1.2573270     0.8936330
  H       -2.8107340    -1.2584070    -0.8933430
  H       -3.0286960     0.2691590    -0.0008180
  H        1.0742980     1.9581480     0.0003170
  H        1.8240951    -2.1813264    -0.0000899
units angstrom
no_reorient  #important for SAPT in psi4, default
symmetry c1  #important for SAPT in psi4, default
}

set PROPERTIES_ORIGIN ["COM"]
properties('MP2/aug-cc-pvtz', properties = ['dipole'])
--------------------------------------------------------------------------

    Molecular point group: c1
  Charge       = 0
  Multiplicity = 1
  Basis Set: AUG-CC-PVTZ
    Blend: AUG-CC-PVTZ
  Basis Set: (AUG-CC-PVTZ AUX)
    Blend: AUG-CC-PVTZ-JKFIT

    Orbital Energies [Eh]
    ---------------------

    Doubly Occupied:

       1A    -20.544175     2A    -20.541377     3A    -15.643754
       4A    -15.624228     5A    -11.417204     6A    -11.379967
       7A    -11.337362     8A    -11.289471     9A    -11.255811
      10A     -1.427393    11A     -1.394246    12A     -1.311614
      13A     -1.242826    14A     -1.090710    15A     -0.988733
      16A     -0.930320    17A     -0.869399    18A     -0.770502
      19A     -0.751703    20A     -0.699642    21A     -0.684207
      22A     -0.657639    23A     -0.645209    24A     -0.614220
      25A     -0.609375    26A     -0.604687    27A     -0.571231
      28A     -0.556057    29A     -0.498823    30A     -0.479871
      31A     -0.446823    32A     -0.433134    33A     -0.360666

  @DF-RHF Final Energy:  -451.66096932395851

   => Energetics <=

    Nuclear Repulsion Energy =            441.0894573698405452
    One-Electron Energy =               -1490.1560981287991581
    Two-Electron Energy =                 597.4056714350000448
    Total Energy =                       -451.6609693239585113
  Basis Set: (AUG-CC-PVTZ AUX)
    Blend: AUG-CC-PVTZ-RI
    Molecular point group: c1

    Geometry (in Angstrom), charge = 0, multiplicity = 1:

       Center              X                  Y                   Z               Mass
    ------------   -----------------  -----------------  -----------------  -----------------
         O           -1.446291975655     1.817097660169     0.000020263782    15.994914619570
         O            2.856445024345     0.236657660169    -0.000060736218    15.994914619570
         N           -1.141324975655    -0.479134339831     0.000196263782    14.003074004430
         N            0.683176024345     0.960072660169     0.000279263782    14.003074004430
         C           -0.700734975655     0.841552660169    -0.000307736218    12.000000000000
         C           -0.255941975655    -1.539625339831     0.000041263782    12.000000000000
         C           -2.579963975655    -0.734817339831    -0.000073736218    12.000000000000
         C            1.087357024345    -1.381917339831     0.000073263782    12.000000000000
         C            1.670298524345    -0.048827639831    -0.000223236218    12.000000000000
         H           -0.728035975655    -2.517846339831     0.000176263782     1.007825032230
         H           -2.863107975655    -1.295827339831     0.893632263782     1.007825032230
         H           -2.862494975655    -1.296907339831    -0.893343736218     1.007825032230
         H           -3.080456975655     0.230658660169    -0.000818736218     1.007825032230
         H            1.022537024345     1.919647660169     0.000316263782     1.007825032230
         H            1.772334124345    -2.219826739831    -0.000090636218     1.007825032230

  Basis Set: AUG-CC-PVTZ
    Blend: AUG-CC-PVTZ
  Basis Set: (AUG-CC-PVTZ AUX)
    Blend: AUG-CC-PVTZ-JKFIT
	 Reference Energy          =    -451.6609693239585113 [Eh]
	 Singles Energy            =      -0.0000000000000000 [Eh]
	 Same-Spin Energy          =      -0.4578673555406203 [Eh]
	 Opposite-Spin Energy      =      -1.3844875860797767 [Eh]
	 Correlation Energy        =      -1.8423549416203970 [Eh]
	 Total Energy              =    -453.5033242655788968 [Eh]

	 ================> DF-SCS-MP2 Energies <==================
	-----------------------------------------------------------
	 SCS Same-Spin Scale       =       0.3333333333333333 [-]
	 SCS Opposite-Spin Scale   =       1.2000000000000000 [-]
	 SCS Same-Spin Energy      =      -0.1526224518468734 [Eh]
	 SCS Opposite-Spin Energy  =      -1.6613851032957321 [Eh]
	 SCS Correlation Energy    =      -1.8140075551426056 [Eh]
	 SCS Total Energy          =    -453.4749768791011206 [Eh]
	-----------------------------------------------------------

  Dipole Moment: [D]
     X:    -3.1273      Y:    -3.5643      Z:    -0.0009     Total:     4.7418

*** Psi4 exiting successfully. Buy a developer a beer!
