                               Psi4 1.4a3.dev225

  ==> Input File <==

--------------------------------------------------------------------------
#psi4
#
memory 32 gb

molecule  {
0 1
  O       -1.4350980    -1.8086910     0.0000000
  O        2.9075840    -0.3082450     0.0000000
  N       -1.0785060     0.4619330     0.0000000
  N        0.7249750    -1.0056720    -0.0000010
  C       -0.6517050    -0.8641080     0.0000000
  C       -0.1841290     1.5083600     0.0000000
  C       -2.5245930     0.6731660     0.0000000
  C        1.1582900     1.3329580     0.0000000
  C        1.7649728    -0.0203638     0.0000000
  H       -0.6338540     2.4967290    -0.0000010
  H       -2.9690000     0.2175100    -0.8862740
  H       -2.7140630     1.7465080     0.0000000
  H       -2.9689990     0.2175090     0.8862740
  H        1.0585810    -1.9665760     0.0000000
  H        1.8360540     2.1766110     0.0000000
units angstrom
no_reorient  #important for SAPT in psi4, default
symmetry c1  #important for SAPT in psi4, default
}

set PROPERTIES_ORIGIN ["COM"]
properties('MP2/aug-cc-pvtz', properties = ['dipole'])
--------------------------------------------------------------------------

    Molecular point group: c1
  Charge       = 0
  Multiplicity = 1
  Basis Set: AUG-CC-PVTZ
    Blend: AUG-CC-PVTZ
  Basis Set: (AUG-CC-PVTZ AUX)
    Blend: AUG-CC-PVTZ-JKFIT

    Orbital Energies [Eh]
    ---------------------

    Doubly Occupied:

       1A    -20.549945     2A    -20.542037     3A    -15.640029
       4A    -15.619821     5A    -11.412682     6A    -11.380391
       7A    -11.334019     8A    -11.289611     9A    -11.252117
      10A     -1.434732    11A     -1.414935    12A     -1.308201
      13A     -1.240563    14A     -1.083986    15A     -0.985016
      16A     -0.924358    17A     -0.866378    18A     -0.767995
      19A     -0.746012    20A     -0.699641    21A     -0.682149
      22A     -0.664392    23A     -0.645431    24A     -0.612586
      25A     -0.609299    26A     -0.605460    27A     -0.575515
      28A     -0.559963    29A     -0.500114    30A     -0.479115
      31A     -0.448303    32A     -0.435080    33A     -0.356224

  @DF-RHF Final Energy:  -451.66079229608454

   => Energetics <=

    Nuclear Repulsion Energy =            441.3481353510172767
    One-Electron Energy =               -1490.6856598858157668
    Two-Electron Energy =                 597.6767322387138393
    Total Energy =                       -451.6607922960845372
  Basis Set: (AUG-CC-PVTZ AUX)
    Blend: AUG-CC-PVTZ-RI
    Molecular point group: c1

    Geometry (in Angstrom), charge = 0, multiplicity = 1:

       Center              X                  Y                   Z               Mass
    ------------   -----------------  -----------------  -----------------  -----------------
         O           -1.489956323693    -1.769120833726     0.000000119094    15.994914619570
         O            2.852725676307    -0.268674833726     0.000000119094    15.994914619570
         N           -1.133364323693     0.501503166274     0.000000119094    14.003074004430
         N            0.670116676307    -0.966101833726    -0.000000880906    14.003074004430
         C           -0.706563323693    -0.824537833726     0.000000119094    12.000000000000
         C           -0.238987323693     1.547930166274     0.000000119094    12.000000000000
         C           -2.579451323693     0.712736166274     0.000000119094    12.000000000000
         C            1.103431676307     1.372528166274     0.000000119094    12.000000000000
         C            1.710114476307     0.019206366274     0.000000119094    12.000000000000
         H           -0.688712323693     2.536299166274    -0.000000880906     1.007825032230
         H           -3.023858323693     0.257080166274    -0.886273880906     1.007825032230
         H           -2.768921323693     1.786078166274     0.000000119094     1.007825032230
         H           -3.023857323693     0.257079166274     0.886274119094     1.007825032230
         H            1.003722676307    -1.927005833726     0.000000119094     1.007825032230
         H            1.781195676307     2.216181166274     0.000000119094     1.007825032230

  Basis Set: AUG-CC-PVTZ
    Blend: AUG-CC-PVTZ
  Basis Set: (AUG-CC-PVTZ AUX)
    Blend: AUG-CC-PVTZ-JKFIT
	 Reference Energy          =    -451.6607922960845372 [Eh]
	 Singles Energy            =      -0.0000000000000000 [Eh]
	 Same-Spin Energy          =      -0.4568046799298638 [Eh]
	 Opposite-Spin Energy      =      -1.3825850675474358 [Eh]
	 Correlation Energy        =      -1.8393897474772996 [Eh]
	 Total Energy              =    -453.5001820435618356 [Eh]

	 ================> DF-SCS-MP2 Energies <==================
	-----------------------------------------------------------
	 SCS Same-Spin Scale       =       0.3333333333333333 [-]
	 SCS Opposite-Spin Scale   =       1.2000000000000000 [-]
	 SCS Same-Spin Energy      =      -0.1522682266432879 [Eh]
	 SCS Opposite-Spin Energy  =      -1.6591020810569230 [Eh]
	 SCS Correlation Energy    =      -1.8113703077002110 [Eh]
	 SCS Total Energy          =    -453.4721626037847386 [Eh]
	-----------------------------------------------------------

  Dipole Moment: [D]
     X:    -2.7178      Y:     3.4856      Z:     0.0000     Total:     4.4200

*** Psi4 exiting successfully. Buy a developer a beer!
