                               Psi4 1.4a3.dev225

  ==> Input File <==

--------------------------------------------------------------------------
#psi4
#
memory 32 gb

molecule  {
0 1
  O       -1.4350980    -1.8086910     0.0000000
  O        2.9075840    -0.3082450     0.0000000
  N       -1.0785060     0.4619330     0.0000000
  N        0.7249750    -1.0056720    -0.0000010
  C       -0.6517050    -0.8641080     0.0000000
  C       -0.1841290     1.5083600     0.0000000
  C       -2.5245930     0.6731660     0.0000000
  C        1.1582900     1.3329580     0.0000000
  C        1.7305873     0.0060368     0.0000000
  H       -0.6338540     2.4967290    -0.0000010
  H       -2.9690000     0.2175100    -0.8862740
  H       -2.7140630     1.7465080     0.0000000
  H       -2.9689990     0.2175090     0.8862740
  H        1.0585810    -1.9665760     0.0000000
  H        1.8360540     2.1766110     0.0000000
units angstrom
no_reorient  #important for SAPT in psi4, default
symmetry c1  #important for SAPT in psi4, default
}

set PROPERTIES_ORIGIN ["COM"]
properties('MP2/aug-cc-pvtz', properties = ['dipole'])
--------------------------------------------------------------------------

    Molecular point group: c1
  Charge       = 0
  Multiplicity = 1
  Basis Set: AUG-CC-PVTZ
    Blend: AUG-CC-PVTZ
  Basis Set: (AUG-CC-PVTZ AUX)
    Blend: AUG-CC-PVTZ-JKFIT

    Orbital Energies [Eh]
    ---------------------

    Doubly Occupied:

       1A    -20.543913     2A    -20.541399     3A    -15.644465
       4A    -15.623181     5A    -11.414146     6A    -11.380162
       7A    -11.339590     8A    -11.292270     9A    -11.253059
      10A     -1.427432    11A     -1.394886    12A     -1.311321
      13A     -1.241224    14A     -1.092124    15A     -0.988087
      16A     -0.932030    17A     -0.867371    18A     -0.771146
      19A     -0.751095    20A     -0.701140    21A     -0.684758
      22A     -0.657533    23A     -0.644479    24A     -0.609385
      25A     -0.607589    26A     -0.605574    27A     -0.577716
      28A     -0.552467    29A     -0.502626    30A     -0.480051
      31A     -0.446707    32A     -0.432099    33A     -0.359148

  @DF-RHF Final Energy:  -451.66130599048324

   => Energetics <=

    Nuclear Repulsion Energy =            441.4605991260573319
    One-Electron Energy =               -1490.9034660616960082
    Two-Electron Energy =                 597.7815609451554337
    Total Energy =                       -451.6613059904832426
  Basis Set: (AUG-CC-PVTZ AUX)
    Blend: AUG-CC-PVTZ-RI
    Molecular point group: c1

    Geometry (in Angstrom), charge = 0, multiplicity = 1:

       Center              X                  Y                   Z               Mass
    ------------   -----------------  -----------------  -----------------  -----------------
         O           -1.486682629497    -1.771634320253     0.000000119094    15.994914619570
         O            2.855999370503    -0.271188320253     0.000000119094    15.994914619570
         N           -1.130090629497     0.498989679747     0.000000119094    14.003074004430
         N            0.673390370503    -0.968615320253    -0.000000880906    14.003074004430
         C           -0.703289629497    -0.827051320253     0.000000119094    12.000000000000
         C           -0.235713629497     1.545416679747     0.000000119094    12.000000000000
         C           -2.576177629497     0.710222679747     0.000000119094    12.000000000000
         C            1.106705370503     1.370014679747     0.000000119094    12.000000000000
         C            1.679002670503     0.043093479747     0.000000119094    12.000000000000
         H           -0.685438629497     2.533785679747    -0.000000880906     1.007825032230
         H           -3.020584629497     0.254566679747    -0.886273880906     1.007825032230
         H           -2.765647629497     1.783564679747     0.000000119094     1.007825032230
         H           -3.020583629497     0.254565679747     0.886274119094     1.007825032230
         H            1.006996370503    -1.929519320253     0.000000119094     1.007825032230
         H            1.784469370503     2.213667679747     0.000000119094     1.007825032230

  Basis Set: AUG-CC-PVTZ
    Blend: AUG-CC-PVTZ
  Basis Set: (AUG-CC-PVTZ AUX)
    Blend: AUG-CC-PVTZ-JKFIT
	 Reference Energy          =    -451.6613059904832426 [Eh]
	 Singles Energy            =      -0.0000000000000000 [Eh]
	 Same-Spin Energy          =      -0.4579358275997281 [Eh]
	 Opposite-Spin Energy      =      -1.3844501973744152 [Eh]
	 Correlation Energy        =      -1.8423860249741433 [Eh]
	 Total Energy              =    -453.5036920154573750 [Eh]

	 ================> DF-SCS-MP2 Energies <==================
	-----------------------------------------------------------
	 SCS Same-Spin Scale       =       0.3333333333333333 [-]
	 SCS Opposite-Spin Scale   =       1.2000000000000000 [-]
	 SCS Same-Spin Energy      =      -0.1526452758665760 [Eh]
	 SCS Opposite-Spin Energy  =      -1.6613402368492982 [Eh]
	 SCS Correlation Energy    =      -1.8139855127158742 [Eh]
	 SCS Total Energy          =    -453.4752915031991165 [Eh]
	-----------------------------------------------------------

  Dipole Moment: [D]
     X:    -3.1015      Y:     3.6202      Z:     0.0000     Total:     4.7671

*** Psi4 exiting successfully. Buy a developer a beer!
