                               Psi4 1.3.2 release

  ==> Input File <==

--------------------------------------------------------------------------
#psi4
#
memory 32 gb

molecule  {
0 1
  O       -1.3945310     1.8555980     0.0000210
  O        2.9082060     0.2751580    -0.0000600
  N       -1.0895640    -0.4406340     0.0001970
  N        0.7349370     0.9985730     0.0002800
  C       -0.6489740     0.8800530    -0.0003070
  C       -0.2055061    -1.4893966     0.0000442
  C       -2.5282030    -0.6963170    -0.0000730
  C        1.1391180    -1.3434170     0.0000740
  C        1.7104040    -0.0052910    -0.0002190
  H       -0.6762750    -2.4793460     0.0001770
  H       -2.8113470    -1.2573270     0.8936330
  H       -2.8107340    -1.2584070    -0.8933430
  H       -3.0286960     0.2691590    -0.0008180
  H        1.0742980     1.9581480     0.0003170
  H        1.8240951    -2.1813264    -0.0000858
units angstrom
no_reorient  #important for SAPT in psi4, default
symmetry c1  #important for SAPT in psi4, default
}

set PROPERTIES_ORIGIN ["COM"]
properties('MP2/aug-cc-pvtz', properties = ['dipole'])
--------------------------------------------------------------------------

    Molecular point group: c1
  Charge       = 0
  Multiplicity = 1
  Basis Set: AUG-CC-PVTZ
    Blend: AUG-CC-PVTZ
  Basis Set: (AUG-CC-PVTZ AUX)
    Blend: AUG-CC-PVTZ-JKFIT

    Orbital Energies [Eh]
    ---------------------

    Doubly Occupied:

       1A    -20.546008     2A    -20.537999     3A    -15.645448
       4A    -15.626562     5A    -11.418933     6A    -11.378864
       7A    -11.337214     8A    -11.290825     9A    -11.255139
      10A     -1.429134    11A     -1.387636    12A     -1.314983
      13A     -1.246100    14A     -1.090829    15A     -0.990806
      16A     -0.930965    17A     -0.872609    18A     -0.772387
      19A     -0.752822    20A     -0.697811    21A     -0.686492
      22A     -0.658137    23A     -0.644051    24A     -0.615224
      25A     -0.610486    26A     -0.600998    27A     -0.573153
      28A     -0.554152    29A     -0.501111    30A     -0.479890
      31A     -0.445478    32A     -0.433011    33A     -0.360011

  @DF-RHF Final Energy:  -451.66053814735068

   => Energetics <=

    Nuclear Repulsion Energy =            441.4110475477822320
    One-Electron Energy =               -1490.7726286212669038
    Two-Electron Energy =                 597.7010429261338231
    Total Energy =                       -451.6605381473507350
  Basis Set: (AUG-CC-PVTZ AUX)
    Blend: AUG-CC-PVTZ-RI
    Molecular point group: c1

    Geometry (in Angstrom), charge = 0, multiplicity = 1:

       Center              X                  Y                   Z               Mass
    ------------   -----------------  -----------------  -----------------  -----------------
         O           -1.445056149074     1.815501565854     0.000019688326    15.994914619570
         O            2.857680850926     0.235061565854    -0.000061311674    15.994914619570
         N           -1.140089149074    -0.480730434146     0.000195688326    14.003074004430
         N            0.684411850926     0.958476565854     0.000278688326    14.003074004430
         C           -0.699499149074     0.839956565854    -0.000308311674    12.000000000000
         C           -0.256031249074    -1.529493034146     0.000042888326    12.000000000000
         C           -2.578728149074    -0.736413434146    -0.000074311674    12.000000000000
         C            1.088592850926    -1.383513434146     0.000072688326    12.000000000000
         C            1.659878850926    -0.045387434146    -0.000220311674    12.000000000000
         H           -0.726800149074    -2.519442434146     0.000175688326     1.007825032230
         H           -2.861872149074    -1.297423434146     0.893631688326     1.007825032230
         H           -2.861259149074    -1.298503434146    -0.893344311674     1.007825032230
         H           -3.079221149074     0.229062565854    -0.000819311674     1.007825032230
         H            1.023772850926     1.918051565854     0.000315688326     1.007825032230
         H            1.773569950926    -2.221422834146    -0.000087111674     1.007825032230

  Basis Set: AUG-CC-PVTZ
    Blend: AUG-CC-PVTZ
  Basis Set: (AUG-CC-PVTZ AUX)
    Blend: AUG-CC-PVTZ-JKFIT
	 Reference Energy          =    -451.6605381473506782 [Eh]
	 Singles Energy            =      -0.0000000000000000 [Eh]
	 Same-Spin Energy          =      -0.4581203782229579 [Eh]
	 Opposite-Spin Energy      =      -1.3847451486792637 [Eh]
	 Correlation Energy        =      -1.8428655269022216 [Eh]
	 Total Energy              =    -453.5034036742529224 [Eh]

	 ================> DF-SCS-MP2 Energies <==================
	-----------------------------------------------------------
	 SCS Same-Spin Scale       =       0.3333333333333333 [-]
	 SCS Opposite-Spin Scale   =       1.2000000000000000 [-]
	 SCS Same-Spin Energy      =      -0.1527067927409860 [Eh]
	 SCS Opposite-Spin Energy  =      -1.6616941784151165 [Eh]
	 SCS Correlation Energy    =      -1.8144009711561024 [Eh]
	 SCS Total Energy          =    -453.4749391185067680 [Eh]
	-----------------------------------------------------------

  Dipole Moment: [D]
     X:    -3.2811      Y:    -3.5146      Z:    -0.0009     Total:     4.8081

*** Psi4 exiting successfully. Buy a developer a beer!
