                               Psi4 1.3.2 release

  ==> Input File <==

--------------------------------------------------------------------------
#psi4
#
memory 32 gb

molecule  {
0 1
  O       -1.3945310     1.8555980     0.0000210
  O        2.9082060     0.2751580    -0.0000600
  N       -1.0885203    -0.4468127    -0.0109083
  N        0.7349370     0.9985730     0.0002800
  C       -0.6489740     0.8800530    -0.0003070
  C       -0.2041810    -1.5011250     0.0000420
  C       -2.5282030    -0.6963170    -0.0000730
  C        1.1391180    -1.3434170     0.0000740
  C        1.7104040    -0.0052910    -0.0002190
  H       -0.6762750    -2.4793460     0.0001770
  H       -2.8113470    -1.2573270     0.8936330
  H       -2.8016284    -1.2584099    -0.8961703
  H       -3.0286960     0.2691590    -0.0008180
  H        1.0742980     1.9581480     0.0003170
  H        1.8167570    -2.1872720    -0.0000870
units angstrom
no_reorient  #important for SAPT in psi4, default
symmetry c1  #important for SAPT in psi4, default
}

set PROPERTIES_ORIGIN ["COM"]
properties('MP2/aug-cc-pvtz', properties = ['dipole'])
--------------------------------------------------------------------------

    Molecular point group: c1
  Charge       = 0
  Multiplicity = 1
  Basis Set: AUG-CC-PVTZ
    Blend: AUG-CC-PVTZ
  Basis Set: (AUG-CC-PVTZ AUX)
    Blend: AUG-CC-PVTZ-JKFIT

    Orbital Energies [Eh]
    ---------------------

    Doubly Occupied:

       1A    -20.546614     2A    -20.538421     3A    -15.644546
       4A    -15.626765     5A    -11.419442     6A    -11.379533
       7A    -11.336653     8A    -11.290174     9A    -11.255288
      10A     -1.428456    11A     -1.387919    12A     -1.313159
      13A     -1.245891    14A     -1.090811    15A     -0.989210
      16A     -0.930739    17A     -0.872662    18A     -0.771676
      19A     -0.751989    20A     -0.700166    21A     -0.685393
      22A     -0.658293    23A     -0.643953    24A     -0.615354
      25A     -0.609717    26A     -0.601990    27A     -0.572346
      28A     -0.554141    29A     -0.500384    30A     -0.480337
      31A     -0.445989    32A     -0.433165    33A     -0.359803

  @DF-RHF Final Energy:  -451.66031065429502

   => Energetics <=

    Nuclear Repulsion Energy =            441.1600354779345139
    One-Electron Energy =               -1490.2787413380092403
    Two-Electron Energy =                 597.4583952057796523
    Total Energy =                       -451.6603106542950172
  Basis Set: (AUG-CC-PVTZ AUX)
    Blend: AUG-CC-PVTZ-RI
    Molecular point group: c1

    Geometry (in Angstrom), charge = 0, multiplicity = 1:

       Center              X                  Y                   Z               Mass
    ------------   -----------------  -----------------  -----------------  -----------------
         O           -1.445312391449     1.817352178540     0.001276286963    15.994914619570
         O            2.857424608551     0.236912178540     0.001195286963    15.994914619570
         N           -1.139301691449    -0.485058521460    -0.009653013037    14.003074004430
         N            0.684155608551     0.960327178540     0.001535286963    14.003074004430
         C           -0.699755391449     0.841807178540     0.000948286963    12.000000000000
         C           -0.254962391449    -1.539370821460     0.001297286963    12.000000000000
         C           -2.578984391449    -0.734562821460     0.001182286963    12.000000000000
         C            1.088336608551    -1.381662821460     0.001329286963    12.000000000000
         C            1.659622608551    -0.043536821460     0.001036286963    12.000000000000
         H           -0.727056391449    -2.517591821460     0.001432286963     1.007825032230
         H           -2.862128391449    -1.295572821460     0.894888286963     1.007825032230
         H           -2.852409791449    -1.296655721460    -0.894915013037     1.007825032230
         H           -3.079477391449     0.230913178540     0.000437286963     1.007825032230
         H            1.023516608551     1.919902178540     0.001572286963     1.007825032230
         H            1.765975608551    -2.225517821460     0.001168286963     1.007825032230

  Basis Set: AUG-CC-PVTZ
    Blend: AUG-CC-PVTZ
  Basis Set: (AUG-CC-PVTZ AUX)
    Blend: AUG-CC-PVTZ-JKFIT
	 Reference Energy          =    -451.6603106542950172 [Eh]
	 Singles Energy            =      -0.0000000000000000 [Eh]
	 Same-Spin Energy          =      -0.4581370174054156 [Eh]
	 Opposite-Spin Energy      =      -1.3849067214953228 [Eh]
	 Correlation Energy        =      -1.8430437389007384 [Eh]
	 Total Energy              =    -453.5033543931957638 [Eh]

	 ================> DF-SCS-MP2 Energies <==================
	-----------------------------------------------------------
	 SCS Same-Spin Scale       =       0.3333333333333333 [-]
	 SCS Opposite-Spin Scale   =       1.2000000000000000 [-]
	 SCS Same-Spin Energy      =      -0.1527123391351385 [Eh]
	 SCS Opposite-Spin Energy  =      -1.6618880657943873 [Eh]
	 SCS Correlation Energy    =      -1.8146004049295259 [Eh]
	 SCS Total Energy          =    -453.4749110592245529 [Eh]
	-----------------------------------------------------------

  Dipole Moment: [D]
     X:    -3.2639      Y:    -3.5050      Z:     0.0076     Total:     4.7893

*** Psi4 exiting successfully. Buy a developer a beer!
