                               Psi4 1.4a3.dev225

  ==> Input File <==

--------------------------------------------------------------------------
#psi4
#
memory 32 gb

molecule  {
0 1
  O       -1.4350980    -1.8086910     0.0000000
  O        2.9075840    -0.3082450     0.0000000
  N       -1.0785060     0.4619330     0.0000000
  N        0.7249750    -1.0056720    -0.0000010
  C       -0.6517050    -0.8641080     0.0000000
  C       -0.1841290     1.5083600     0.0000000
  C       -2.5245930     0.6731660     0.0000000
  C        1.2078686     1.3264800     0.0000000
  C        1.7164880    -0.0081480     0.0000000
  H       -0.6338540     2.4967290    -0.0000010
  H       -2.9690000     0.2175100    -0.8862740
  H       -2.7140630     1.7465080     0.0000000
  H       -2.9689990     0.2175090     0.8862740
  H        1.0585810    -1.9665760     0.0000000
  H        1.8360540     2.1766110     0.0000000
units angstrom
no_reorient  #important for SAPT in psi4, default
symmetry c1  #important for SAPT in psi4, default
}

set PROPERTIES_ORIGIN ["COM"]
properties('MP2/aug-cc-pvtz', properties = ['dipole'])
--------------------------------------------------------------------------

    Molecular point group: c1
  Charge       = 0
  Multiplicity = 1
  Basis Set: AUG-CC-PVTZ
    Blend: AUG-CC-PVTZ
  Basis Set: (AUG-CC-PVTZ AUX)
    Blend: AUG-CC-PVTZ-JKFIT

    Orbital Energies [Eh]
    ---------------------

    Doubly Occupied:

       1A    -20.547300     2A    -20.532485     3A    -15.649816
       4A    -15.626831     5A    -11.417590     6A    -11.374856
       7A    -11.348034     8A    -11.294964     9A    -11.253945
      10A     -1.430136    11A     -1.386235    12A     -1.313410
      13A     -1.246206    14A     -1.084513    15A     -0.991589
      16A     -0.936051    17A     -0.870640    18A     -0.772909
      19A     -0.752876    20A     -0.700034    21A     -0.687264
      22A     -0.658923    23A     -0.642813    24A     -0.616187
      25A     -0.611433    26A     -0.598044    27A     -0.581719
      28A     -0.550622    29A     -0.501056    30A     -0.481006
      31A     -0.443553    32A     -0.432353    33A     -0.352624

  @DF-RHF Final Energy:  -451.65637132016730

   => Energetics <=

    Nuclear Repulsion Energy =            441.1652853232056941
    One-Electron Energy =               -1490.2672765646411790
    Two-Electron Energy =                 597.4456199212680758
    Total Energy =                       -451.6563713201672954
  Basis Set: (AUG-CC-PVTZ AUX)
    Blend: AUG-CC-PVTZ-RI
    Molecular point group: c1

    Geometry (in Angstrom), charge = 0, multiplicity = 1:

       Center              X                  Y                   Z               Mass
    ------------   -----------------  -----------------  -----------------  -----------------
         O           -1.490060459643    -1.769667104757     0.000000119094    15.994914619570
         O            2.852621540357    -0.269221104757     0.000000119094    15.994914619570
         N           -1.133468459643     0.500956895243     0.000000119094    14.003074004430
         N            0.670012540357    -0.966648104757    -0.000000880906    14.003074004430
         C           -0.706667459643    -0.825084104757     0.000000119094    12.000000000000
         C           -0.239091459643     1.547383895243     0.000000119094    12.000000000000
         C           -2.579555459643     0.712189895243     0.000000119094    12.000000000000
         C            1.152906140357     1.365503895243     0.000000119094    12.000000000000
         C            1.661525540357     0.030875895243     0.000000119094    12.000000000000
         H           -0.688816459643     2.535752895243    -0.000000880906     1.007825032230
         H           -3.023962459643     0.256533895243    -0.886273880906     1.007825032230
         H           -2.769025459643     1.785531895243     0.000000119094     1.007825032230
         H           -3.023961459643     0.256532895243     0.886274119094     1.007825032230
         H            1.003618540357    -1.927552104757     0.000000119094     1.007825032230
         H            1.781091540357     2.215634895243     0.000000119094     1.007825032230

  Basis Set: AUG-CC-PVTZ
    Blend: AUG-CC-PVTZ
  Basis Set: (AUG-CC-PVTZ AUX)
    Blend: AUG-CC-PVTZ-JKFIT
	 Reference Energy          =    -451.6563713201672954 [Eh]
	 Singles Energy            =      -0.0000000000000000 [Eh]
	 Same-Spin Energy          =      -0.4586422469170978 [Eh]
	 Opposite-Spin Energy      =      -1.3856226419388986 [Eh]
	 Correlation Energy        =      -1.8442648888559963 [Eh]
	 Total Energy              =    -453.5006362090232983 [Eh]

	 ================> DF-SCS-MP2 Energies <==================
	-----------------------------------------------------------
	 SCS Same-Spin Scale       =       0.3333333333333333 [-]
	 SCS Opposite-Spin Scale   =       1.2000000000000000 [-]
	 SCS Same-Spin Energy      =      -0.1528807489723659 [Eh]
	 SCS Opposite-Spin Energy  =      -1.6627471703266783 [Eh]
	 SCS Correlation Energy    =      -1.8156279192990441 [Eh]
	 SCS Total Energy          =    -453.4719992394663564 [Eh]
	-----------------------------------------------------------

  Dipole Moment: [D]
     X:    -3.3863      Y:     3.5784      Z:     0.0000     Total:     4.9266

*** Psi4 exiting successfully. Buy a developer a beer!
