                               Psi4 1.4a3.dev225

  ==> Input File <==

--------------------------------------------------------------------------
#psi4
#
memory 32 gb

molecule  {
0 1
  O       -1.4350980    -1.8086910     0.0000000
  O        2.9075840    -0.3082450     0.0000000
  N       -1.0785060     0.4619330     0.0000000
  N        0.7249750    -1.0056720    -0.0000010
  C       -0.6517050    -0.8641080     0.0000000
  C       -0.1841290     1.5083600     0.0000000
  C       -2.5245930     0.6731660     0.0000000
  C        1.1582900     1.3329580     0.0000000
  C        1.7088027     0.0103165     0.0000000
  H       -0.6338540     2.4967290    -0.0000010
  H       -2.9690000     0.2175100    -0.8862740
  H       -2.7140630     1.7465080     0.0000000
  H       -2.9689990     0.2175090     0.8862740
  H        1.0585810    -1.9665760     0.0000000
  H        1.8360540     2.1766110     0.0000000
units angstrom
no_reorient  #important for SAPT in psi4, default
symmetry c1  #important for SAPT in psi4, default
}

set PROPERTIES_ORIGIN ["COM"]
properties('MP2/aug-cc-pvtz', properties = ['dipole'])
--------------------------------------------------------------------------

    Molecular point group: c1
  Charge       = 0
  Multiplicity = 1
  Basis Set: AUG-CC-PVTZ
    Blend: AUG-CC-PVTZ
  Basis Set: (AUG-CC-PVTZ AUX)
    Blend: AUG-CC-PVTZ-JKFIT

    Orbital Energies [Eh]
    ---------------------

    Doubly Occupied:

       1A    -20.545676     2A    -20.536255     3A    -15.646649
       4A    -15.626303     5A    -11.415781     6A    -11.379663
       7A    -11.341384     8A    -11.293637     9A    -11.253542
      10A     -1.428595    11A     -1.381183    12A     -1.312802
      13A     -1.243429    14A     -1.095290    15A     -0.989856
      16A     -0.934954    17A     -0.870078    18A     -0.773363
      19A     -0.753765    20A     -0.702282    21A     -0.686593
      22A     -0.657135    23A     -0.642382    24A     -0.609527
      25A     -0.608798    26A     -0.601516    27A     -0.579297
      28A     -0.548626    29A     -0.503880    30A     -0.480248
      31A     -0.444787    32A     -0.430896    33A     -0.359915

  @DF-RHF Final Energy:  -451.65951097143477

   => Energetics <=

    Nuclear Repulsion Energy =            441.5922921562416832
    One-Electron Energy =               -1491.1474346966858775
    Two-Electron Energy =                 597.8956315690094243
    Total Energy =                       -451.6595109714347700
  Basis Set: (AUG-CC-PVTZ AUX)
    Blend: AUG-CC-PVTZ-RI
    Molecular point group: c1

    Geometry (in Angstrom), charge = 0, multiplicity = 1:

       Center              X                  Y                   Z               Mass
    ------------   -----------------  -----------------  -----------------  -----------------
         O           -1.484608612293    -1.772041771913     0.000000119094    15.994914619570
         O            2.858073387707    -0.271595771913     0.000000119094    15.994914619570
         N           -1.128016612293     0.498582228087     0.000000119094    14.003074004430
         N            0.675464387707    -0.969022771913    -0.000000880906    14.003074004430
         C           -0.701215612293    -0.827458771913     0.000000119094    12.000000000000
         C           -0.233639612293     1.545009228087     0.000000119094    12.000000000000
         C           -2.574103612293     0.709815228087     0.000000119094    12.000000000000
         C            1.108779387707     1.369607228087     0.000000119094    12.000000000000
         C            1.659292087707     0.046965728087     0.000000119094    12.000000000000
         H           -0.683364612293     2.533378228087    -0.000000880906     1.007825032230
         H           -3.018510612293     0.254159228087    -0.886273880906     1.007825032230
         H           -2.763573612293     1.783157228087     0.000000119094     1.007825032230
         H           -3.018509612293     0.254158228087     0.886274119094     1.007825032230
         H            1.009070387707    -1.929926771913     0.000000119094     1.007825032230
         H            1.786543387707     2.213260228087     0.000000119094     1.007825032230

  Basis Set: AUG-CC-PVTZ
    Blend: AUG-CC-PVTZ
  Basis Set: (AUG-CC-PVTZ AUX)
    Blend: AUG-CC-PVTZ-JKFIT
	 Reference Energy          =    -451.6595109714347700 [Eh]
	 Singles Energy            =      -0.0000000000000000 [Eh]
	 Same-Spin Energy          =      -0.4584906725469644 [Eh]
	 Opposite-Spin Energy      =      -1.3853828186917410 [Eh]
	 Correlation Energy        =      -1.8438734912387054 [Eh]
	 Total Energy              =    -453.5033844626734663 [Eh]

	 ================> DF-SCS-MP2 Energies <==================
	-----------------------------------------------------------
	 SCS Same-Spin Scale       =       0.3333333333333333 [-]
	 SCS Opposite-Spin Scale   =       1.2000000000000000 [-]
	 SCS Same-Spin Energy      =      -0.1528302241823215 [Eh]
	 SCS Opposite-Spin Energy  =      -1.6624593824300891 [Eh]
	 SCS Correlation Energy    =      -1.8152896066124105 [Eh]
	 SCS Total Energy          =    -453.4748005780471658 [Eh]
	-----------------------------------------------------------

  Dipole Moment: [D]
     X:    -3.3161      Y:     3.6407      Z:     0.0000     Total:     4.9246

*** Psi4 exiting successfully. Buy a developer a beer!
