                               Psi4 1.3.2 release

  ==> Input File <==

--------------------------------------------------------------------------
#psi4
#
memory 32 gb

molecule  {
0 1
  O       -1.3945310     1.8555980     0.0000210
  O        2.9082060     0.2751580    -0.0000600
  N       -1.0895640    -0.4406340     0.0001970
  N        0.7349370     0.9985730     0.0002800
  C       -0.6489740     0.8800530    -0.0003070
  C       -0.2041810    -1.5011250     0.0000420
  C       -2.5282030    -0.6963170    -0.0000730
  C        1.1391180    -1.3434170     0.0000740
  C        1.7889327     0.1786471    -0.0002593
  H       -0.6762750    -2.4793460     0.0001770
  H       -2.8113470    -1.2573270     0.8936330
  H       -2.8107340    -1.2584070    -0.8933430
  H       -3.0286960     0.2691590    -0.0008180
  H        1.0742980     1.9581480     0.0003170
  H        1.8167570    -2.1872720    -0.0000870
units angstrom
no_reorient  #important for SAPT in psi4, default
symmetry c1  #important for SAPT in psi4, default
}

set PROPERTIES_ORIGIN ["COM"]
properties('MP2/aug-cc-pvtz', properties = ['dipole'])
--------------------------------------------------------------------------

    Molecular point group: c1
  Charge       = 0
  Multiplicity = 1
  Basis Set: AUG-CC-PVTZ
    Blend: AUG-CC-PVTZ
  Basis Set: (AUG-CC-PVTZ AUX)
    Blend: AUG-CC-PVTZ-JKFIT

    Orbital Energies [Eh]
    ---------------------

    Doubly Occupied:

       1A    -20.560325     2A    -20.548533     3A    -15.632274
       4A    -15.631828     5A    -11.424492     6A    -11.383200
       7A    -11.308853     8A    -11.282467     9A    -11.245413
      10A     -1.476754    11A     -1.424827    12A     -1.309510
      13A     -1.269433    14A     -1.057594    15A     -0.988979
      16A     -0.899015    17A     -0.891900    18A     -0.768469
      19A     -0.732579    20A     -0.699343    21A     -0.684893
      22A     -0.679467    23A     -0.646612    24A     -0.634095
      25A     -0.608874    26A     -0.602269    27A     -0.576235
      28A     -0.564849    29A     -0.489494    30A     -0.478073
      31A     -0.454652    32A     -0.427313    33A     -0.344470

  @DF-RHF Final Energy:  -451.62115002927982

   => Energetics <=

    Nuclear Repulsion Energy =            441.2901755653373925
    One-Electron Energy =               -1490.3684832189039753
    Two-Electron Energy =                 597.4571576242867650
    Total Energy =                       -451.6211500292797609
  Basis Set: (AUG-CC-PVTZ AUX)
    Blend: AUG-CC-PVTZ-RI
    Molecular point group: c1

    Geometry (in Angstrom), charge = 0, multiplicity = 1:

       Center              X                  Y                   Z               Mass
    ------------   -----------------  -----------------  -----------------  -----------------
         O           -1.452600008126     1.799153768184     0.000023744162    15.994914619570
         O            2.850136991874     0.218713768184    -0.000057255838    15.994914619570
         N           -1.147633008126    -0.497078231816     0.000199744162    14.003074004430
         N            0.676867991874     0.942128768184     0.000282744162    14.003074004430
         C           -0.707043008126     0.823608768184    -0.000304255838    12.000000000000
         C           -0.262250008126    -1.557569231816     0.000044744162    12.000000000000
         C           -2.586272008126    -0.752761231816    -0.000070255838    12.000000000000
         C            1.081048991874    -1.399861231816     0.000076744162    12.000000000000
         C            1.730863691874     0.122202868184    -0.000256555838    12.000000000000
         H           -0.734344008126    -2.535790231816     0.000179744162     1.007825032230
         H           -2.869416008126    -1.313771231816     0.893635744162     1.007825032230
         H           -2.868803008126    -1.314851231816    -0.893340255838     1.007825032230
         H           -3.086765008126     0.212714768184    -0.000815255838     1.007825032230
         H            1.016228991874     1.901703768184     0.000319744162     1.007825032230
         H            1.758687991874    -2.243716231816    -0.000084255838     1.007825032230

  Basis Set: AUG-CC-PVTZ
    Blend: AUG-CC-PVTZ
  Basis Set: (AUG-CC-PVTZ AUX)
    Blend: AUG-CC-PVTZ-JKFIT
	 Reference Energy          =    -451.6211500292798178 [Eh]
	 Singles Energy            =      -0.0000000000000000 [Eh]
	 Same-Spin Energy          =      -0.4558929849886889 [Eh]
	 Opposite-Spin Energy      =      -1.3818697521851173 [Eh]
	 Correlation Energy        =      -1.8377627371738061 [Eh]
	 Total Energy              =    -453.4589127664536363 [Eh]

	 ================> DF-SCS-MP2 Energies <==================
	-----------------------------------------------------------
	 SCS Same-Spin Scale       =       0.3333333333333333 [-]
	 SCS Opposite-Spin Scale   =       1.2000000000000000 [-]
	 SCS Same-Spin Energy      =      -0.1519643283295630 [Eh]
	 SCS Opposite-Spin Energy  =      -1.6582437026221408 [Eh]
	 SCS Correlation Energy    =      -1.8102080309517037 [Eh]
	 SCS Total Energy          =    -453.4313580602315028 [Eh]
	-----------------------------------------------------------

  Dipole Moment: [D]
     X:    -2.2823      Y:    -2.5461      Z:    -0.0011     Total:     3.4193

*** Psi4 exiting successfully. Buy a developer a beer!
