                               Psi4 1.3.2 release

  ==> Input File <==

--------------------------------------------------------------------------
#psi4
#
memory 32 gb

molecule  {
0 1
  O       -1.3945310     1.8555980     0.0000210
  O        2.9082060     0.2751580    -0.0000600
  N       -1.0981235    -0.4039869     0.0667985
  N        0.7349370     0.9985730     0.0002800
  C       -0.6489740     0.8800530    -0.0003070
  C       -0.2041810    -1.5011250     0.0000420
  C       -2.5282030    -0.6963170    -0.0000730
  C        1.1391180    -1.3434170     0.0000740
  C        1.7104040    -0.0052910    -0.0002190
  H       -0.6762750    -2.4793460     0.0001770
  H       -2.8113470    -1.2573270     0.8936330
  H       -2.8648914    -1.2574908    -0.8749587
  H       -3.0286960     0.2691590    -0.0008180
  H        1.0742980     1.9581480     0.0003170
  H        1.8167570    -2.1872720    -0.0000870
units angstrom
no_reorient  #important for SAPT in psi4, default
symmetry c1  #important for SAPT in psi4, default
}

set PROPERTIES_ORIGIN ["COM"]
properties('MP2/aug-cc-pvtz', properties = ['dipole'])
--------------------------------------------------------------------------

    Molecular point group: c1
  Charge       = 0
  Multiplicity = 1
  Basis Set: AUG-CC-PVTZ
    Blend: AUG-CC-PVTZ
  Basis Set: (AUG-CC-PVTZ AUX)
    Blend: AUG-CC-PVTZ-JKFIT

    Orbital Energies [Eh]
    ---------------------

    Doubly Occupied:

       1A    -20.541446     2A    -20.539205     3A    -15.644175
       4A    -15.625645     5A    -11.413242     6A    -11.381888
       7A    -11.339902     8A    -11.288784     9A    -11.261477
      10A     -1.428072    11A     -1.389657    12A     -1.307123
      13A     -1.244381    14A     -1.093332    15A     -0.992359
      16A     -0.929383    17A     -0.870286    18A     -0.773288
      19A     -0.754053    20A     -0.698246    21A     -0.684036
      22A     -0.656198    23A     -0.646169    24A     -0.614348
      25A     -0.611660    26A     -0.602882    27A     -0.566897
      28A     -0.554541    29A     -0.493367    30A     -0.477847
      31A     -0.446996    32A     -0.432611    33A     -0.366126

  @DF-RHF Final Energy:  -451.65757497776667

   => Energetics <=

    Nuclear Repulsion Energy =            441.1827886286796456
    One-Electron Energy =               -1490.3414820788491397
    Two-Electron Energy =                 597.5011184724028226
    Total Energy =                       -451.6575749777666715
  Basis Set: (AUG-CC-PVTZ AUX)
    Blend: AUG-CC-PVTZ-RI
    Molecular point group: c1

    Geometry (in Angstrom), charge = 0, multiplicity = 1:

       Center              X                  Y                   Z               Mass
    ------------   -----------------  -----------------  -----------------  -----------------
         O           -1.443739654610     1.812586983452    -0.007526362063    15.994914619570
         O            2.858997345390     0.232146983452    -0.007607362063    15.994914619570
         N           -1.147332154610    -0.446997916548     0.059251137937    14.003074004430
         N            0.685728345390     0.955561983452    -0.007267362063    14.003074004430
         C           -0.698182654610     0.837041983452    -0.007854362063    12.000000000000
         C           -0.253389654610    -1.544136016548    -0.007505362063    12.000000000000
         C           -2.577411654610    -0.739328016548    -0.007620362063    12.000000000000
         C            1.089909345390    -1.386428016548    -0.007473362063    12.000000000000
         C            1.661195345390    -0.048302016548    -0.007766362063    12.000000000000
         H           -0.725483654610    -2.522357016548    -0.007370362063     1.007825032230
         H           -2.860555654610    -1.300338016548     0.886085637937     1.007825032230
         H           -2.914100054610    -1.300501816548    -0.882506062063     1.007825032230
         H           -3.077904654610     0.226147983452    -0.008365362063     1.007825032230
         H            1.025089345390     1.915136983452    -0.007230362063     1.007825032230
         H            1.767548345390    -2.230283016548    -0.007634362063     1.007825032230

  Basis Set: AUG-CC-PVTZ
    Blend: AUG-CC-PVTZ
  Basis Set: (AUG-CC-PVTZ AUX)
    Blend: AUG-CC-PVTZ-JKFIT
	 Reference Energy          =    -451.6575749777666715 [Eh]
	 Singles Energy            =      -0.0000000000000000 [Eh]
	 Same-Spin Energy          =      -0.4576432762239936 [Eh]
	 Opposite-Spin Energy      =      -1.3845866712794799 [Eh]
	 Correlation Energy        =      -1.8422299475034736 [Eh]
	 Total Energy              =    -453.4998049252701549 [Eh]

	 ================> DF-SCS-MP2 Energies <==================
	-----------------------------------------------------------
	 SCS Same-Spin Scale       =       0.3333333333333333 [-]
	 SCS Opposite-Spin Scale   =       1.2000000000000000 [-]
	 SCS Same-Spin Energy      =      -0.1525477587413312 [Eh]
	 SCS Opposite-Spin Energy  =      -1.6615040055353758 [Eh]
	 SCS Correlation Energy    =      -1.8140517642767069 [Eh]
	 SCS Total Energy          =    -453.4716267420433837 [Eh]
	-----------------------------------------------------------

  Dipole Moment: [D]
     X:    -3.0485      Y:    -3.7335      Z:    -0.0524     Total:     4.8203

*** Psi4 exiting successfully. Buy a developer a beer!
