                               Psi4 1.3.2 release

  ==> Input File <==

--------------------------------------------------------------------------
#psi4
#
memory 32 gb

molecule  {
0 1
  O       -1.3945310     1.8555980     0.0000210
  O        2.9106077     0.2646947    -0.0000653
  N       -1.0895640    -0.4406340     0.0001970
  N        0.7262139     0.9900223     0.0002755
  C       -0.6489740     0.8800530    -0.0003070
  C       -0.2041810    -1.5011250     0.0000420
  C       -2.5282030    -0.6963170    -0.0000730
  C        1.1391180    -1.3434170     0.0000740
  C        1.7104040    -0.0052910    -0.0002190
  H       -0.6762750    -2.4793460     0.0001770
  H       -2.8113470    -1.2573270     0.8936330
  H       -2.8107340    -1.2584070    -0.8933430
  H       -3.0286960     0.2691590    -0.0008180
  H        1.0742980     1.9581480     0.0003170
  H        1.8167570    -2.1872720    -0.0000870
units angstrom
no_reorient  #important for SAPT in psi4, default
symmetry c1  #important for SAPT in psi4, default
}

set PROPERTIES_ORIGIN ["COM"]
properties('MP2/aug-cc-pvtz', properties = ['dipole'])
--------------------------------------------------------------------------

    Molecular point group: c1
  Charge       = 0
  Multiplicity = 1
  Basis Set: AUG-CC-PVTZ
    Blend: AUG-CC-PVTZ
  Basis Set: (AUG-CC-PVTZ AUX)
    Blend: AUG-CC-PVTZ-JKFIT

    Orbital Energies [Eh]
    ---------------------

    Doubly Occupied:

       1A    -20.544885     2A    -20.539978     3A    -15.643820
       4A    -15.628104     5A    -11.417884     6A    -11.380578
       7A    -11.336561     8A    -11.289559     9A    -11.255445
      10A     -1.428944    11A     -1.388439    12A     -1.312459
      13A     -1.247216    14A     -1.090856    15A     -0.989889
      16A     -0.929793    17A     -0.874989    18A     -0.771405
      19A     -0.751086    20A     -0.698638    21A     -0.685652
      22A     -0.657881    23A     -0.644323    24A     -0.615527
      25A     -0.609600    26A     -0.602043    27A     -0.571010
      28A     -0.554373    29A     -0.499149    30A     -0.479715
      31A     -0.446916    32A     -0.434073    33A     -0.360238

  @DF-RHF Final Energy:  -451.65992922484423

   => Energetics <=

    Nuclear Repulsion Energy =            441.3733010278398297
    One-Electron Energy =               -1490.7044060020220968
    Two-Electron Energy =                 597.6711757493380901
    Total Energy =                       -451.6599292248442907
  Basis Set: (AUG-CC-PVTZ AUX)
    Blend: AUG-CC-PVTZ-RI
    Molecular point group: c1

    Geometry (in Angstrom), charge = 0, multiplicity = 1:

       Center              X                  Y                   Z               Mass
    ------------   -----------------  -----------------  -----------------  -----------------
         O           -1.444459292505     1.818943477338     0.000021079886    15.994914619570
         O            2.860679407495     0.228040177338    -0.000065220114    15.994914619570
         N           -1.139492292505    -0.477288522662     0.000197079886    14.003074004430
         N            0.676285607495     0.953367777338     0.000275579886    14.003074004430
         C           -0.698902292505     0.843398477338    -0.000306920114    12.000000000000
         C           -0.254109292505    -1.537779522662     0.000042079886    12.000000000000
         C           -2.578131292505    -0.732971522662    -0.000072920114    12.000000000000
         C            1.089189707495    -1.380071522662     0.000074079886    12.000000000000
         C            1.660475707495    -0.041945522662    -0.000218920114    12.000000000000
         H           -0.726203292505    -2.516000522662     0.000177079886     1.007825032230
         H           -2.861275292505    -1.293981522662     0.893633079886     1.007825032230
         H           -2.860662292505    -1.295061522662    -0.893342920114     1.007825032230
         H           -3.078624292505     0.232504477338    -0.000817920114     1.007825032230
         H            1.024369707495     1.921493477338     0.000317079886     1.007825032230
         H            1.766828707495    -2.223926522662    -0.000086920114     1.007825032230

  Basis Set: AUG-CC-PVTZ
    Blend: AUG-CC-PVTZ
  Basis Set: (AUG-CC-PVTZ AUX)
    Blend: AUG-CC-PVTZ-JKFIT
	 Reference Energy          =    -451.6599292248442339 [Eh]
	 Singles Energy            =      -0.0000000000000000 [Eh]
	 Same-Spin Energy          =      -0.4582395135505765 [Eh]
	 Opposite-Spin Energy      =      -1.3850299244771229 [Eh]
	 Correlation Energy        =      -1.8432694380276995 [Eh]
	 Total Energy              =    -453.5031986628719096 [Eh]

	 ================> DF-SCS-MP2 Energies <==================
	-----------------------------------------------------------
	 SCS Same-Spin Scale       =       0.3333333333333333 [-]
	 SCS Opposite-Spin Scale   =       1.2000000000000000 [-]
	 SCS Same-Spin Energy      =      -0.1527465045168588 [Eh]
	 SCS Opposite-Spin Energy  =      -1.6620359093725474 [Eh]
	 SCS Correlation Energy    =      -1.8147824138894062 [Eh]
	 SCS Total Energy          =    -453.4747116387336519 [Eh]
	-----------------------------------------------------------

  Dipole Moment: [D]
     X:    -3.1948      Y:    -3.5082      Z:    -0.0008     Total:     4.7449

*** Psi4 exiting successfully. Buy a developer a beer!
