                               Psi4 1.3.2 release

  ==> Input File <==

--------------------------------------------------------------------------
#psi4
#
memory 32 gb

molecule  {
0 1
  O       -1.3945310     1.8555980     0.0000210
  O        2.9082060     0.2751580    -0.0000600
  N       -1.0895640    -0.4406340     0.0001970
  N        0.7349370     0.9985730     0.0002800
  C       -0.6489740     0.8800530    -0.0003070
  C       -0.2041810    -1.5011250     0.0000420
  C       -2.5282030    -0.6963170    -0.0000730
  C        1.1391180    -1.3434170     0.0000740
  C        1.7104040    -0.0052910    -0.0002190
  H       -0.6762750    -2.4793460     0.0001770
  H       -2.8113470    -1.2573270     0.8936330
  H       -2.8107340    -1.2584070    -0.8933430
  H       -3.0286960     0.2691590    -0.0008180
  H        1.0742980     1.9581480     0.0003170
  H        1.8793703    -2.2652436    -0.0001019
units angstrom
no_reorient  #important for SAPT in psi4, default
symmetry c1  #important for SAPT in psi4, default
}

set PROPERTIES_ORIGIN ["COM"]
properties('MP2/aug-cc-pvtz', properties = ['dipole'])
--------------------------------------------------------------------------

    Molecular point group: c1
  Charge       = 0
  Multiplicity = 1
  Basis Set: AUG-CC-PVTZ
    Blend: AUG-CC-PVTZ
  Basis Set: (AUG-CC-PVTZ AUX)
    Blend: AUG-CC-PVTZ-JKFIT

    Orbital Energies [Eh]
    ---------------------

    Doubly Occupied:

       1A    -20.545658     2A    -20.538845     3A    -15.644729
       4A    -15.627130     5A    -11.418747     6A    -11.380604
       7A    -11.337435     8A    -11.290138     9A    -11.266318
      10A     -1.428581    11A     -1.388171    12A     -1.312570
      13A     -1.245998    14A     -1.088719    15A     -0.989462
      16A     -0.929867    17A     -0.870342    18A     -0.770893
      19A     -0.746993    20A     -0.699951    21A     -0.685461
      22A     -0.655565    23A     -0.643448    24A     -0.615155
      25A     -0.602753    26A     -0.598922    27A     -0.564012
      28A     -0.554349    29A     -0.499676    30A     -0.480140
      31A     -0.446342    32A     -0.433277    33A     -0.360749

  @DF-RHF Final Energy:  -451.65300361486919

   => Energetics <=

    Nuclear Repulsion Energy =            440.6720519292123868
    One-Electron Energy =               -1489.3281143623109983
    Two-Electron Energy =                 597.0030588182295332
    Total Energy =                       -451.6530036148691352
  Basis Set: (AUG-CC-PVTZ AUX)
    Blend: AUG-CC-PVTZ-RI
    Molecular point group: c1

    Geometry (in Angstrom), charge = 0, multiplicity = 1:

       Center              X                  Y                   Z               Mass
    ------------   -----------------  -----------------  -----------------  -----------------
         O           -1.445624280358     1.817289168374     0.000020026513    15.994914619570
         O            2.857112719642     0.236849168374    -0.000060973487    15.994914619570
         N           -1.140657280358    -0.478942831626     0.000196026513    14.003074004430
         N            0.683843719642     0.960264168374     0.000279026513    14.003074004430
         C           -0.700067280358     0.841744168374    -0.000307973487    12.000000000000
         C           -0.255274280358    -1.539433831626     0.000041026513    12.000000000000
         C           -2.579296280358    -0.734625831626    -0.000073973487    12.000000000000
         C            1.088024719642    -1.381725831626     0.000073026513    12.000000000000
         C            1.659310719642    -0.043599831626    -0.000219973487    12.000000000000
         H           -0.727368280358    -2.517654831626     0.000176026513     1.007825032230
         H           -2.862440280358    -1.295635831626     0.893632026513     1.007825032230
         H           -2.861827280358    -1.296715831626    -0.893343973487     1.007825032230
         H           -3.079789280358     0.230850168374    -0.000818973487     1.007825032230
         H            1.023204719642     1.919839168374     0.000316026513     1.007825032230
         H            1.828277019642    -2.303552431626    -0.000102873487     1.007825032230

  Basis Set: AUG-CC-PVTZ
    Blend: AUG-CC-PVTZ
  Basis Set: (AUG-CC-PVTZ AUX)
    Blend: AUG-CC-PVTZ-JKFIT
	 Reference Energy          =    -451.6530036148691920 [Eh]
	 Singles Energy            =      -0.0000000000000000 [Eh]
	 Same-Spin Energy          =      -0.4582835877630260 [Eh]
	 Opposite-Spin Energy      =      -1.3856527273869830 [Eh]
	 Correlation Energy        =      -1.8439363151500090 [Eh]
	 Total Energy              =    -453.4969399300192094 [Eh]

	 ================> DF-SCS-MP2 Energies <==================
	-----------------------------------------------------------
	 SCS Same-Spin Scale       =       0.3333333333333333 [-]
	 SCS Opposite-Spin Scale   =       1.2000000000000000 [-]
	 SCS Same-Spin Energy      =      -0.1527611959210087 [Eh]
	 SCS Opposite-Spin Energy  =      -1.6627832728643794 [Eh]
	 SCS Correlation Energy    =      -1.8155444687853881 [Eh]
	 SCS Total Energy          =    -453.4685480836545821 [Eh]
	-----------------------------------------------------------

  Dipole Moment: [D]
     X:    -3.2161      Y:    -3.5427      Z:    -0.0009     Total:     4.7847

*** Psi4 exiting successfully. Buy a developer a beer!
