                               Psi4 1.4a3.dev225

  ==> Input File <==

--------------------------------------------------------------------------
#psi4
#
memory 32 gb

molecule  {
0 1
  O       -1.4350980    -1.8086910     0.0000000
  O        2.9075840    -0.3082450     0.0000000
  N       -1.0785060     0.4619330     0.0000000
  N        0.7249750    -1.0056720    -0.0000010
  C       -0.6517050    -0.8641080     0.0000000
  C       -0.1841290     1.5083600     0.0000000
  C       -2.5245930     0.6731660     0.0000000
  C        1.1582900     1.3329580     0.0000000
  C        1.7164880    -0.0081480     0.0000000
  H       -0.6338540     2.4967290    -0.0000010
  H       -2.9690000     0.2175100    -0.8862740
  H       -2.7105863     1.7268125     0.0000000
  H       -2.9689990     0.2175090     0.8862740
  H        1.0585810    -1.9665760     0.0000000
  H        1.8360540     2.1766110     0.0000000
units angstrom
no_reorient  #important for SAPT in psi4, default
symmetry c1  #important for SAPT in psi4, default
}

set PROPERTIES_ORIGIN ["COM"]
properties('MP2/aug-cc-pvtz', properties = ['dipole'])
--------------------------------------------------------------------------

    Molecular point group: c1
  Charge       = 0
  Multiplicity = 1
  Basis Set: AUG-CC-PVTZ
    Blend: AUG-CC-PVTZ
  Basis Set: (AUG-CC-PVTZ AUX)
    Blend: AUG-CC-PVTZ-JKFIT

    Orbital Energies [Eh]
    ---------------------

    Doubly Occupied:

       1A    -20.545798     2A    -20.538498     3A    -15.644771
       4A    -15.626590     5A    -11.416101     6A    -11.379719
       7A    -11.338309     8A    -11.290314     9A    -11.253531
      10A     -1.428985    11A     -1.388786    12A     -1.312109
      13A     -1.246234    14A     -1.091304    15A     -0.990757
      16A     -0.931364    17A     -0.872460    18A     -0.773304
      19A     -0.751608    20A     -0.701133    21A     -0.685936
      22A     -0.658265    23A     -0.643464    24A     -0.610544
      25A     -0.610524    26A     -0.602503    27A     -0.580151
      28A     -0.550558    29A     -0.503133    30A     -0.480045
      31A     -0.446045    32A     -0.432862    33A     -0.358518

  @DF-RHF Final Energy:  -451.66142482336949

   => Energetics <=

    Nuclear Repulsion Energy =            441.6853959095571440
    One-Electron Energy =               -1491.3251961653047601
    Two-Electron Energy =                 597.9783754323780158
    Total Energy =                       -451.6614248233695434
  Basis Set: (AUG-CC-PVTZ AUX)
    Blend: AUG-CC-PVTZ-RI
    Molecular point group: c1

    Geometry (in Angstrom), charge = 0, multiplicity = 1:

       Center              X                  Y                   Z               Mass
    ------------   -----------------  -----------------  -----------------  -----------------
         O           -1.485368095647    -1.770126364021     0.000000119094    15.994914619570
         O            2.857313904353    -0.269680364021     0.000000119094    15.994914619570
         N           -1.128776095647     0.500497635979     0.000000119094    14.003074004430
         N            0.674704904353    -0.967107364021    -0.000000880906    14.003074004430
         C           -0.701975095647    -0.825543364021     0.000000119094    12.000000000000
         C           -0.234399095647     1.546924635979     0.000000119094    12.000000000000
         C           -2.574863095647     0.711730635979     0.000000119094    12.000000000000
         C            1.108019904353     1.371522635979     0.000000119094    12.000000000000
         C            1.666217904353     0.030416635979     0.000000119094    12.000000000000
         H           -0.684124095647     2.535293635979    -0.000000880906     1.007825032230
         H           -3.019270095647     0.256074635979    -0.886273880906     1.007825032230
         H           -2.760856395647     1.765377135979     0.000000119094     1.007825032230
         H           -3.019269095647     0.256073635979     0.886274119094     1.007825032230
         H            1.008310904353    -1.928011364021     0.000000119094     1.007825032230
         H            1.785783904353     2.215175635979     0.000000119094     1.007825032230

  Basis Set: AUG-CC-PVTZ
    Blend: AUG-CC-PVTZ
  Basis Set: (AUG-CC-PVTZ AUX)
    Blend: AUG-CC-PVTZ-JKFIT
	 Reference Energy          =    -451.6614248233694866 [Eh]
	 Singles Energy            =      -0.0000000000000000 [Eh]
	 Same-Spin Energy          =      -0.4580131621640579 [Eh]
	 Opposite-Spin Energy      =      -1.3845023278483715 [Eh]
	 Correlation Energy        =      -1.8425154900124294 [Eh]
	 Total Energy              =    -453.5039403133819178 [Eh]

	 ================> DF-SCS-MP2 Energies <==================
	-----------------------------------------------------------
	 SCS Same-Spin Scale       =       0.3333333333333333 [-]
	 SCS Opposite-Spin Scale   =       1.2000000000000000 [-]
	 SCS Same-Spin Energy      =      -0.1526710540546860 [Eh]
	 SCS Opposite-Spin Energy  =      -1.6614027934180458 [Eh]
	 SCS Correlation Energy    =      -1.8140738474727316 [Eh]
	 SCS Total Energy          =    -453.4754986708422280 [Eh]
	-----------------------------------------------------------

  Dipole Moment: [D]
     X:    -3.2238      Y:     3.5562      Z:     0.0000     Total:     4.8000

*** Psi4 exiting successfully. Buy a developer a beer!
