                               Psi4 1.3.2 release

  ==> Input File <==

--------------------------------------------------------------------------
#psi4
#
memory 32 gb

molecule  {
0 1
  O       -1.3945310     1.8555980     0.0000210
  O        2.9082060     0.2751580    -0.0000600
  N       -1.0875863    -0.4530105    -0.0220127
  N        0.7349370     0.9985730     0.0002800
  C       -0.6489740     0.8800530    -0.0003070
  C       -0.2041810    -1.5011250     0.0000420
  C       -2.5282030    -0.6963170    -0.0000730
  C        1.1391180    -1.3434170     0.0000740
  C        1.7104040    -0.0052910    -0.0002190
  H       -0.6762750    -2.4793460     0.0001770
  H       -2.8113470    -1.2573270     0.8936330
  H       -2.7925020    -1.2583700    -0.8989293
  H       -3.0286960     0.2691590    -0.0008180
  H        1.0742980     1.9581480     0.0003170
  H        1.8167570    -2.1872720    -0.0000870
units angstrom
no_reorient  #important for SAPT in psi4, default
symmetry c1  #important for SAPT in psi4, default
}

set PROPERTIES_ORIGIN ["COM"]
properties('MP2/aug-cc-pvtz', properties = ['dipole'])
--------------------------------------------------------------------------

    Molecular point group: c1
  Charge       = 0
  Multiplicity = 1
  Basis Set: AUG-CC-PVTZ
    Blend: AUG-CC-PVTZ
  Basis Set: (AUG-CC-PVTZ AUX)
    Blend: AUG-CC-PVTZ-JKFIT

    Orbital Energies [Eh]
    ---------------------

    Doubly Occupied:

       1A    -20.547748     2A    -20.538045     3A    -15.644610
       4A    -15.626961     5A    -11.420347     6A    -11.379227
       7A    -11.336164     8A    -11.290341     9A    -11.254427
      10A     -1.428557    11A     -1.387719    12A     -1.313962
      13A     -1.246145    14A     -1.090449    15A     -0.988765
      16A     -0.930725    17A     -0.872954    18A     -0.771342
      19A     -0.751740    20A     -0.700438    21A     -0.685554
      22A     -0.658783    23A     -0.643724    24A     -0.615796
      25A     -0.609234    26A     -0.601683    27A     -0.572725
      28A     -0.554060    29A     -0.501307    30A     -0.480687
      31A     -0.445844    32A     -0.433271    33A     -0.358980

  @DF-RHF Final Energy:  -451.65986519762293

   => Energetics <=

    Nuclear Repulsion Energy =            441.1393956370271212
    One-Electron Energy =               -1490.2338967330490505
    Two-Electron Energy =                 597.4346358983990513
    Total Energy =                       -451.6598651976229348
  Basis Set: (AUG-CC-PVTZ AUX)
    Blend: AUG-CC-PVTZ-RI
    Molecular point group: c1

    Geometry (in Angstrom), charge = 0, multiplicity = 1:

       Center              X                  Y                   Z               Mass
    ------------   -----------------  -----------------  -----------------  -----------------
         O           -1.445489130327     1.818040420567     0.002532020446    15.994914619570
         O            2.857247869673     0.237600420567     0.002451020446    15.994914619570
         N           -1.138544430327    -0.490568079433    -0.019501679554    14.003074004430
         N            0.683978869673     0.961015420567     0.002791020446    14.003074004430
         C           -0.699932130327     0.842495420567     0.002204020446    12.000000000000
         C           -0.255139130327    -1.538682579433     0.002553020446    12.000000000000
         C           -2.579161130327    -0.733874579433     0.002438020446    12.000000000000
         C            1.088159869673    -1.380974579433     0.002585020446    12.000000000000
         C            1.659445869673    -0.042848579433     0.002292020446    12.000000000000
         H           -0.727233130327    -2.516903579433     0.002688020446     1.007825032230
         H           -2.862305130327    -1.294884579433     0.896144020446     1.007825032230
         H           -2.843460130327    -1.295927579433    -0.896418279554     1.007825032230
         H           -3.079654130327     0.231601420567     0.001693020446     1.007825032230
         H            1.023339869673     1.920590420567     0.002828020446     1.007825032230
         H            1.765798869673    -2.224829579433     0.002424020446     1.007825032230

  Basis Set: AUG-CC-PVTZ
    Blend: AUG-CC-PVTZ
  Basis Set: (AUG-CC-PVTZ AUX)
    Blend: AUG-CC-PVTZ-JKFIT
	 Reference Energy          =    -451.6598651976229348 [Eh]
	 Singles Energy            =      -0.0000000000000000 [Eh]
	 Same-Spin Energy          =      -0.4582259239224173 [Eh]
	 Opposite-Spin Energy      =      -1.3850102440701686 [Eh]
	 Correlation Energy        =      -1.8432361679925859 [Eh]
	 Total Energy              =    -453.5031013656155210 [Eh]

	 ================> DF-SCS-MP2 Energies <==================
	-----------------------------------------------------------
	 SCS Same-Spin Scale       =       0.3333333333333333 [-]
	 SCS Opposite-Spin Scale   =       1.2000000000000000 [-]
	 SCS Same-Spin Energy      =      -0.1527419746408058 [Eh]
	 SCS Opposite-Spin Energy  =      -1.6620122928842023 [Eh]
	 SCS Correlation Energy    =      -1.8147542675250081 [Eh]
	 SCS Total Energy          =    -453.4746194651479527 [Eh]
	-----------------------------------------------------------

  Dipole Moment: [D]
     X:    -3.2912      Y:    -3.4690      Z:     0.0160     Total:     4.7819

*** Psi4 exiting successfully. Buy a developer a beer!
