                               Psi4 1.3.2 release

  ==> Input File <==

--------------------------------------------------------------------------
#psi4
#
memory 32 gb

molecule  {
0 1
  O       -1.3945310     1.8555980     0.0000210
  O        2.9031291     0.2960198    -0.0000494
  N       -1.0895640    -0.4406340     0.0001970
  N        0.7526054     1.0154444     0.0002888
  C       -0.6489740     0.8800530    -0.0003070
  C       -0.2041810    -1.5011250     0.0000420
  C       -2.5282030    -0.6963170    -0.0000730
  C        1.1391180    -1.3434170     0.0000740
  C        1.7104040    -0.0052910    -0.0002190
  H       -0.6762750    -2.4793460     0.0001770
  H       -2.8113470    -1.2573270     0.8936330
  H       -2.8107340    -1.2584070    -0.8933430
  H       -3.0286960     0.2691590    -0.0008180
  H        1.0742980     1.9581480     0.0003170
  H        1.8167570    -2.1872720    -0.0000870
units angstrom
no_reorient  #important for SAPT in psi4, default
symmetry c1  #important for SAPT in psi4, default
}

set PROPERTIES_ORIGIN ["COM"]
properties('MP2/aug-cc-pvtz', properties = ['dipole'])
--------------------------------------------------------------------------

    Molecular point group: c1
  Charge       = 0
  Multiplicity = 1
  Basis Set: AUG-CC-PVTZ
    Blend: AUG-CC-PVTZ
  Basis Set: (AUG-CC-PVTZ AUX)
    Blend: AUG-CC-PVTZ-JKFIT

    Orbital Energies [Eh]
    ---------------------

    Doubly Occupied:

       1A    -20.546690     2A    -20.536495     3A    -15.645782
       4A    -15.623471     5A    -11.419767     6A    -11.378511
       7A    -11.338304     8A    -11.290852     9A    -11.257591
      10A     -1.427296    11A     -1.387611    12A     -1.312223
      13A     -1.242403    14A     -1.091901    15A     -0.989312
      16A     -0.932541    17A     -0.867183    18A     -0.773116
      19A     -0.754561    20A     -0.702308    21A     -0.684485
      22A     -0.657688    23A     -0.644056    24A     -0.613727
      25A     -0.611547    26A     -0.602331    27A     -0.573454
      28A     -0.553967    29A     -0.499986    30A     -0.480448
      31A     -0.444361    32A     -0.430986    33A     -0.361470

  @DF-RHF Final Energy:  -451.66009865368125

   => Energetics <=

    Nuclear Repulsion Energy =            440.7948254649487012
    One-Electron Energy =               -1489.5570019295034854
    Two-Electron Energy =                 597.1020778108736522
    Total Energy =                       -451.6600986536811888
  Basis Set: (AUG-CC-PVTZ AUX)
    Blend: AUG-CC-PVTZ-RI
    Molecular point group: c1

    Geometry (in Angstrom), charge = 0, multiplicity = 1:

       Center              X                  Y                   Z               Mass
    ------------   -----------------  -----------------  -----------------  -----------------
         O           -1.446442288014     1.812143969702     0.000017584569    15.994914619570
         O            2.851217811986     0.252565769702    -0.000052815431    15.994914619570
         N           -1.141475288014    -0.484088030298     0.000193584569    14.003074004430
         N            0.700694111986     0.971990369702     0.000285384569    14.003074004430
         C           -0.700885288014     0.836598969702    -0.000310415431    12.000000000000
         C           -0.256092288014    -1.544579030298     0.000038584569    12.000000000000
         C           -2.580114288014    -0.739771030298    -0.000076415431    12.000000000000
         C            1.087206711986    -1.386871030298     0.000070584569    12.000000000000
         C            1.658492711986    -0.048745030298    -0.000222415431    12.000000000000
         H           -0.728186288014    -2.522800030298     0.000173584569     1.007825032230
         H           -2.863258288014    -1.300781030298     0.893629584569     1.007825032230
         H           -2.862645288014    -1.301861030298    -0.893346415431     1.007825032230
         H           -3.080607288014     0.225704969702    -0.000821415431     1.007825032230
         H            1.022386711986     1.914693969702     0.000313584569     1.007825032230
         H            1.764845711986    -2.230726030298    -0.000090415431     1.007825032230

  Basis Set: AUG-CC-PVTZ
    Blend: AUG-CC-PVTZ
  Basis Set: (AUG-CC-PVTZ AUX)
    Blend: AUG-CC-PVTZ-JKFIT
	 Reference Energy          =    -451.6600986536812457 [Eh]
	 Singles Energy            =      -0.0000000000000000 [Eh]
	 Same-Spin Energy          =      -0.4577260094672406 [Eh]
	 Opposite-Spin Energy      =      -1.3845042365053999 [Eh]
	 Correlation Energy        =      -1.8422302459726405 [Eh]
	 Total Energy              =    -453.5023288996538895 [Eh]

	 ================> DF-SCS-MP2 Energies <==================
	-----------------------------------------------------------
	 SCS Same-Spin Scale       =       0.3333333333333333 [-]
	 SCS Opposite-Spin Scale   =       1.2000000000000000 [-]
	 SCS Same-Spin Energy      =      -0.1525753364890802 [Eh]
	 SCS Opposite-Spin Energy  =      -1.6614050838064798 [Eh]
	 SCS Correlation Energy    =      -1.8139804202955601 [Eh]
	 SCS Total Energy          =    -453.4740790739767817 [Eh]
	-----------------------------------------------------------

  Dipole Moment: [D]
     X:    -3.3153      Y:    -3.6058      Z:    -0.0009     Total:     4.8983

*** Psi4 exiting successfully. Buy a developer a beer!
