                               Psi4 1.4a3.dev225

  ==> Input File <==

--------------------------------------------------------------------------
#psi4
#
memory 32 gb

molecule  {
0 1
  O       -1.4350980    -1.8086910     0.0000000
  O        2.9075840    -0.3082450     0.0000000
  N       -1.0785060     0.4619330     0.0000000
  N        0.7249750    -1.0056720    -0.0000010
  C       -0.7014427    -0.8589935     0.0000000
  C       -0.1841290     1.5083600     0.0000000
  C       -2.5245930     0.6731660     0.0000000
  C        1.1582900     1.3329580     0.0000000
  C        1.7164880    -0.0081480     0.0000000
  H       -0.6338540     2.4967290    -0.0000010
  H       -2.9690000     0.2175100    -0.8862740
  H       -2.7140630     1.7465080     0.0000000
  H       -2.9689990     0.2175090     0.8862740
  H        1.0585810    -1.9665760     0.0000000
  H        1.8360540     2.1766110     0.0000000
units angstrom
no_reorient  #important for SAPT in psi4, default
symmetry c1  #important for SAPT in psi4, default
}

set PROPERTIES_ORIGIN ["COM"]
properties('MP2/aug-cc-pvtz', properties = ['dipole'])
--------------------------------------------------------------------------

    Molecular point group: c1
  Charge       = 0
  Multiplicity = 1
  Basis Set: AUG-CC-PVTZ
    Blend: AUG-CC-PVTZ
  Basis Set: (AUG-CC-PVTZ AUX)
    Blend: AUG-CC-PVTZ-JKFIT

    Orbital Energies [Eh]
    ---------------------

    Doubly Occupied:

       1A    -20.553048     2A    -20.533899     3A    -15.645709
       4A    -15.618037     5A    -11.416386     6A    -11.374883
       7A    -11.337906     8A    -11.294060     9A    -11.253770
      10A     -1.441918    11A     -1.386496    12A     -1.320435
      13A     -1.231243    14A     -1.091548    15A     -0.990225
      16A     -0.933498    17A     -0.860609    18A     -0.770455
      19A     -0.747213    20A     -0.702203    21A     -0.688986
      22A     -0.660665    23A     -0.646088    24A     -0.607472
      25A     -0.606940    26A     -0.600602    27A     -0.581447
      28A     -0.555716    29A     -0.504716    30A     -0.486304
      31A     -0.441540    32A     -0.428652    33A     -0.359820

  @DF-RHF Final Energy:  -451.65950974844316

   => Energetics <=

    Nuclear Repulsion Energy =            441.5645798085412252
    One-Electron Energy =               -1491.1031996838221403
    Two-Electron Energy =                 597.8791101268376451
    Total Energy =                       -451.6595097484431562
  Basis Set: (AUG-CC-PVTZ AUX)
    Blend: AUG-CC-PVTZ-RI
    Molecular point group: c1

    Geometry (in Angstrom), charge = 0, multiplicity = 1:

       Center              X                  Y                   Z               Mass
    ------------   -----------------  -----------------  -----------------  -----------------
         O           -1.480604985828    -1.770770776362     0.000000119094    15.994914619570
         O            2.862077014172    -0.270324776362     0.000000119094    15.994914619570
         N           -1.124012985828     0.499853223638     0.000000119094    14.003074004430
         N            0.679468014172    -0.967751776362    -0.000000880906    14.003074004430
         C           -0.746949685828    -0.821073276362     0.000000119094    12.000000000000
         C           -0.229635985828     1.546280223638     0.000000119094    12.000000000000
         C           -2.570099985828     0.711086223638     0.000000119094    12.000000000000
         C            1.112783014172     1.370878223638     0.000000119094    12.000000000000
         C            1.670981014172     0.029772223638     0.000000119094    12.000000000000
         H           -0.679360985828     2.534649223638    -0.000000880906     1.007825032230
         H           -3.014506985828     0.255430223638    -0.886273880906     1.007825032230
         H           -2.759569985828     1.784428223638     0.000000119094     1.007825032230
         H           -3.014505985828     0.255429223638     0.886274119094     1.007825032230
         H            1.013074014172    -1.928655776362     0.000000119094     1.007825032230
         H            1.790547014172     2.214531223638     0.000000119094     1.007825032230

  Basis Set: AUG-CC-PVTZ
    Blend: AUG-CC-PVTZ
  Basis Set: (AUG-CC-PVTZ AUX)
    Blend: AUG-CC-PVTZ-JKFIT
	 Reference Energy          =    -451.6595097484431562 [Eh]
	 Singles Energy            =      -0.0000000000000000 [Eh]
	 Same-Spin Energy          =      -0.4576354052423762 [Eh]
	 Opposite-Spin Energy      =      -1.3841781254855778 [Eh]
	 Correlation Energy        =      -1.8418135307279542 [Eh]
	 Total Energy              =    -453.5013232791711175 [Eh]

	 ================> DF-SCS-MP2 Energies <==================
	-----------------------------------------------------------
	 SCS Same-Spin Scale       =       0.3333333333333333 [-]
	 SCS Opposite-Spin Scale   =       1.2000000000000000 [-]
	 SCS Same-Spin Energy      =      -0.1525451350807921 [Eh]
	 SCS Opposite-Spin Energy  =      -1.6610137505826934 [Eh]
	 SCS Correlation Energy    =      -1.8135588856634854 [Eh]
	 SCS Total Energy          =    -453.4730686341066530 [Eh]
	-----------------------------------------------------------

  Dipole Moment: [D]
     X:    -3.5666      Y:     3.5148      Z:     0.0000     Total:     5.0075

*** Psi4 exiting successfully. Buy a developer a beer!
