                               Psi4 1.3.2 release

  ==> Input File <==

--------------------------------------------------------------------------
#psi4
#
memory 32 gb

molecule  {
0 1
  O       -1.3945310     1.8555980     0.0000210
  O        2.9082060     0.2751580    -0.0000600
  N       -1.0895640    -0.4406340     0.0001970
  N        0.7349370     0.9985730     0.0002800
  C       -0.6522673     0.9284230    -0.0002676
  C       -0.2041810    -1.5011250     0.0000420
  C       -2.5282030    -0.6963170    -0.0000730
  C        1.1391180    -1.3434170     0.0000740
  C        1.7448441     0.0293638    -0.0001778
  H       -0.6762750    -2.4793460     0.0001770
  H       -2.8113470    -1.2573270     0.8936330
  H       -2.8107340    -1.2584070    -0.8933430
  H       -3.0286960     0.2691590    -0.0008180
  H        1.0742980     1.9581480     0.0003170
  H        1.8167570    -2.1872720    -0.0000870
units angstrom
no_reorient  #important for SAPT in psi4, default
symmetry c1  #important for SAPT in psi4, default
}

set PROPERTIES_ORIGIN ["COM"]
properties('MP2/aug-cc-pvtz', properties = ['dipole'])
--------------------------------------------------------------------------

    Molecular point group: c1
  Charge       = 0
  Multiplicity = 1
  Basis Set: AUG-CC-PVTZ
    Blend: AUG-CC-PVTZ
  Basis Set: (AUG-CC-PVTZ AUX)
    Blend: AUG-CC-PVTZ-JKFIT

    Orbital Energies [Eh]
    ---------------------

    Doubly Occupied:

       1A    -20.555970     2A    -20.545833     3A    -15.632517
       4A    -15.622950     5A    -11.419419     6A    -11.379385
       7A    -11.327130     8A    -11.283787     9A    -11.249407
      10A     -1.448660    11A     -1.418014    12A     -1.307181
      13A     -1.245449    14A     -1.077376    15A     -0.978426
      16A     -0.914101    17A     -0.874677    18A     -0.762342
      19A     -0.743179    20A     -0.699383    21A     -0.679717
      22A     -0.666117    23A     -0.655329    24A     -0.617131
      25A     -0.605570    26A     -0.603130    27A     -0.569942
      28A     -0.565539    29A     -0.495991    30A     -0.485640
      31A     -0.448970    32A     -0.441695    33A     -0.351920

  @DF-RHF Final Energy:  -451.65853470831939

   => Energetics <=

    Nuclear Repulsion Energy =            440.8290246381812949
    One-Electron Energy =               -1489.6313680801451937
    Two-Electron Energy =                 597.1438087336443914
    Total Energy =                       -451.6585347083193938
  Basis Set: (AUG-CC-PVTZ AUX)
    Blend: AUG-CC-PVTZ-RI
    Molecular point group: c1

    Geometry (in Angstrom), charge = 0, multiplicity = 1:

       Center              X                  Y                   Z               Mass
    ------------   -----------------  -----------------  -----------------  -----------------
         O           -1.448088983101     1.808761285437     0.000012233798    15.994914619570
         O            2.854648016899     0.228321285437    -0.000068766202    15.994914619570
         N           -1.143121983101    -0.487470714563     0.000188233798    14.003074004430
         N            0.681379016899     0.951736285437     0.000271233798    14.003074004430
         C           -0.705825283101     0.881586285437    -0.000276366202    12.000000000000
         C           -0.257738983101    -1.547961714563     0.000033233798    12.000000000000
         C           -2.581760983101    -0.743153714563    -0.000081766202    12.000000000000
         C            1.085560016899    -1.390253714563     0.000065233798    12.000000000000
         C            1.691286116899    -0.017472914563    -0.000186566202    12.000000000000
         H           -0.729832983101    -2.526182714563     0.000168233798     1.007825032230
         H           -2.864904983101    -1.304163714563     0.893624233798     1.007825032230
         H           -2.864291983101    -1.305243714563    -0.893351766202     1.007825032230
         H           -3.082253983101     0.222322285437    -0.000826766202     1.007825032230
         H            1.020740016899     1.911311285437     0.000308233798     1.007825032230
         H            1.763199016899    -2.234108714563    -0.000095766202     1.007825032230

  Basis Set: AUG-CC-PVTZ
    Blend: AUG-CC-PVTZ
  Basis Set: (AUG-CC-PVTZ AUX)
    Blend: AUG-CC-PVTZ-JKFIT
	 Reference Energy          =    -451.6585347083193938 [Eh]
	 Singles Energy            =      -0.0000000000000000 [Eh]
	 Same-Spin Energy          =      -0.4564400949695662 [Eh]
	 Opposite-Spin Energy      =      -1.3820267051854338 [Eh]
	 Correlation Energy        =      -1.8384668001550000 [Eh]
	 Total Energy              =    -453.4970015084743977 [Eh]

	 ================> DF-SCS-MP2 Energies <==================
	-----------------------------------------------------------
	 SCS Same-Spin Scale       =       0.3333333333333333 [-]
	 SCS Opposite-Spin Scale   =       1.2000000000000000 [-]
	 SCS Same-Spin Energy      =      -0.1521466983231887 [Eh]
	 SCS Opposite-Spin Energy  =      -1.6584320462225206 [Eh]
	 SCS Correlation Energy    =      -1.8105787445457093 [Eh]
	 SCS Total Energy          =    -453.4691134528650878 [Eh]
	-----------------------------------------------------------

  Dipole Moment: [D]
     X:    -2.9934      Y:    -2.9054      Z:    -0.0009     Total:     4.1715

*** Psi4 exiting successfully. Buy a developer a beer!
