                               Psi4 1.3.2 release

  ==> Input File <==

--------------------------------------------------------------------------
#psi4
#
memory 32 gb

molecule  {
0 1
  O       -1.3945310     1.8555980     0.0000210
  O        2.9212420     0.2120855    -0.0000920
  N       -1.0895640    -0.4406340     0.0001970
  N        0.6837357     0.9461452     0.0002526
  C       -0.6489740     0.8800530    -0.0003070
  C       -0.2041810    -1.5011250     0.0000420
  C       -2.5282030    -0.6963170    -0.0000730
  C        1.1391180    -1.3434170     0.0000740
  C        1.7104040    -0.0052910    -0.0002190
  H       -0.6762750    -2.4793460     0.0001770
  H       -2.8113470    -1.2573270     0.8936330
  H       -2.8107340    -1.2584070    -0.8933430
  H       -3.0286960     0.2691590    -0.0008180
  H        1.0742980     1.9581480     0.0003170
  H        1.8167570    -2.1872720    -0.0000870
units angstrom
no_reorient  #important for SAPT in psi4, default
symmetry c1  #important for SAPT in psi4, default
}

set PROPERTIES_ORIGIN ["COM"]
properties('MP2/aug-cc-pvtz', properties = ['dipole'])
--------------------------------------------------------------------------

    Molecular point group: c1
  Charge       = 0
  Multiplicity = 1
  Basis Set: AUG-CC-PVTZ
    Blend: AUG-CC-PVTZ
  Basis Set: (AUG-CC-PVTZ AUX)
    Blend: AUG-CC-PVTZ-JKFIT

    Orbital Energies [Eh]
    ---------------------

    Doubly Occupied:

       1A    -20.545816     2A    -20.541763     3A    -15.640385
       4A    -15.635439     5A    -11.414334     6A    -11.384791
       7A    -11.333729     8A    -11.287279     9A    -11.251914
      10A     -1.432361    11A     -1.390379    12A     -1.313864
      13A     -1.254257    14A     -1.089784    15A     -0.991670
      16A     -0.925614    17A     -0.887728    18A     -0.768478
      19A     -0.745553    20A     -0.692175    21A     -0.688397
      22A     -0.657770    23A     -0.645022    24A     -0.618252
      25A     -0.607560    26A     -0.599098    27A     -0.566101
      28A     -0.555463    29A     -0.497586    30A     -0.478129
      31A     -0.449814    32A     -0.438773    33A     -0.358197

  @DF-RHF Final Energy:  -451.64877180561410

   => Energetics <=

    Nuclear Repulsion Energy =            442.4160139990597145
    One-Electron Energy =               -1492.7546194535659652
    Two-Electron Energy =                 598.6898336488922041
    Total Energy =                       -451.6487718056140466
  Basis Set: (AUG-CC-PVTZ AUX)
    Blend: AUG-CC-PVTZ-RI
    Molecular point group: c1

    Geometry (in Angstrom), charge = 0, multiplicity = 1:

       Center              X                  Y                   Z               Mass
    ------------   -----------------  -----------------  -----------------  -----------------
         O           -1.441089562316     1.830494255872     0.000027012267    15.994914619570
         O            2.874683437684     0.186981755872    -0.000085987733    15.994914619570
         N           -1.136122562316    -0.465737744128     0.000203012267    14.003074004430
         N            0.637177137684     0.921041455872     0.000258612267    14.003074004430
         C           -0.695532562316     0.854949255872    -0.000300987733    12.000000000000
         C           -0.250739562316    -1.526228744128     0.000048012267    12.000000000000
         C           -2.574761562316    -0.721420744128    -0.000066987733    12.000000000000
         C            1.092559437684    -1.368520744128     0.000080012267    12.000000000000
         C            1.663845437684    -0.030394744128    -0.000212987733    12.000000000000
         H           -0.722833562316    -2.504449744128     0.000183012267     1.007825032230
         H           -2.857905562316    -1.282430744128     0.893639012267     1.007825032230
         H           -2.857292562316    -1.283510744128    -0.893336987733     1.007825032230
         H           -3.075254562316     0.244055255872    -0.000811987733     1.007825032230
         H            1.027739437684     1.933044255872     0.000323012267     1.007825032230
         H            1.770198437684    -2.212375744128    -0.000080987733     1.007825032230

  Basis Set: AUG-CC-PVTZ
    Blend: AUG-CC-PVTZ
  Basis Set: (AUG-CC-PVTZ AUX)
    Blend: AUG-CC-PVTZ-JKFIT
	 Reference Energy          =    -451.6487718056141034 [Eh]
	 Singles Energy            =      -0.0000000000000000 [Eh]
	 Same-Spin Energy          =      -0.4594068712036936 [Eh]
	 Opposite-Spin Energy      =      -1.3866360991922346 [Eh]
	 Correlation Energy        =      -1.8460429703959282 [Eh]
	 Total Energy              =    -453.4948147760100596 [Eh]

	 ================> DF-SCS-MP2 Energies <==================
	-----------------------------------------------------------
	 SCS Same-Spin Scale       =       0.3333333333333333 [-]
	 SCS Opposite-Spin Scale   =       1.2000000000000000 [-]
	 SCS Same-Spin Energy      =      -0.1531356237345645 [Eh]
	 SCS Opposite-Spin Energy  =      -1.6639633190306815 [Eh]
	 SCS Correlation Energy    =      -1.8170989427652460 [Eh]
	 SCS Total Energy          =    -453.4658707483793592 [Eh]
	-----------------------------------------------------------

  Dipole Moment: [D]
     X:    -2.9859      Y:    -3.3568      Z:    -0.0008     Total:     4.4927

*** Psi4 exiting successfully. Buy a developer a beer!
