                               Psi4 1.3.2 release

  ==> Input File <==

--------------------------------------------------------------------------
#psi4
#
memory 32 gb

molecule  {
0 1
  O       -1.3945310     1.8555980     0.0000210
  O        2.9082060     0.2751580    -0.0000600
  N       -1.0895640    -0.4406340     0.0001970
  N        0.7349370     0.9985730     0.0002800
  C       -0.6489740     0.8800530    -0.0003070
  C       -0.2608962    -1.5460090     0.0000222
  C       -2.5128500    -0.7712591    -0.0000906
  C        1.1391180    -1.3434170     0.0000740
  C        1.7104040    -0.0052910    -0.0002190
  H       -0.6762750    -2.4793460     0.0001770
  H       -2.8113470    -1.2573270     0.8936330
  H       -2.8107340    -1.2584070    -0.8933430
  H       -3.0286960     0.2691590    -0.0008180
  H        1.0742980     1.9581480     0.0003170
  H        1.8167570    -2.1872720    -0.0000870
units angstrom
no_reorient  #important for SAPT in psi4, default
symmetry c1  #important for SAPT in psi4, default
}

set PROPERTIES_ORIGIN ["COM"]
properties('MP2/aug-cc-pvtz', properties = ['dipole'])
--------------------------------------------------------------------------

    Molecular point group: c1
  Charge       = 0
  Multiplicity = 1
  Basis Set: AUG-CC-PVTZ
    Blend: AUG-CC-PVTZ
  Basis Set: (AUG-CC-PVTZ AUX)
    Blend: AUG-CC-PVTZ-JKFIT

    Orbital Energies [Eh]
    ---------------------

    Doubly Occupied:

       1A    -20.547356     2A    -20.537322     3A    -15.647498
       4A    -15.627478     5A    -11.422375     6A    -11.379455
       7A    -11.341840     8A    -11.289666     9A    -11.261113
      10A     -1.428895    11A     -1.387201    12A     -1.313720
      13A     -1.246789    14A     -1.077198    15A     -0.991719
      16A     -0.939223    17A     -0.870277    18A     -0.770540
      19A     -0.754811    20A     -0.713834    21A     -0.691634
      22A     -0.658781    23A     -0.643654    24A     -0.624675
      25A     -0.606685    26A     -0.599740    27A     -0.556086
      28A     -0.547934    29A     -0.499907    30A     -0.481711
      31A     -0.445617    32A     -0.433185    33A     -0.352106

  @DF-RHF Final Energy:  -451.64155461671942

   => Energetics <=

    Nuclear Repulsion Energy =            440.0036971039789933
    One-Electron Energy =               -1487.9104491753730599
    Two-Electron Energy =                 596.2651974546746487
    Total Energy =                       -451.6415546167194179
  Basis Set: (AUG-CC-PVTZ AUX)
    Blend: AUG-CC-PVTZ-RI
    Molecular point group: c1

    Geometry (in Angstrom), charge = 0, multiplicity = 1:

       Center              X                  Y                   Z               Mass
    ------------   -----------------  -----------------  -----------------  -----------------
         O           -1.441185715955     1.828073839099     0.000023468065    15.994914619570
         O            2.861551284045     0.247633839099    -0.000057531935    15.994914619570
         N           -1.136218715955    -0.468158160901     0.000199468065    14.003074004430
         N            0.688282284045     0.971048839099     0.000282468065    14.003074004430
         C           -0.695628715955     0.852528839099    -0.000304531935    12.000000000000
         C           -0.307550915955    -1.573533160901     0.000024668065    12.000000000000
         C           -2.559504715955    -0.798783260901    -0.000088131935    12.000000000000
         C            1.092463284045    -1.370941160901     0.000076468065    12.000000000000
         C            1.663749284045    -0.032815160901    -0.000216531935    12.000000000000
         H           -0.722929715955    -2.506870160901     0.000179468065     1.007825032230
         H           -2.858001715955    -1.284851160901     0.893635468065     1.007825032230
         H           -2.857388715955    -1.285931160901    -0.893340531935     1.007825032230
         H           -3.075350715955     0.241634839099    -0.000815531935     1.007825032230
         H            1.027643284045     1.930623839099     0.000319468065     1.007825032230
         H            1.770102284045    -2.214796160901    -0.000084531935     1.007825032230

  Basis Set: AUG-CC-PVTZ
    Blend: AUG-CC-PVTZ
  Basis Set: (AUG-CC-PVTZ AUX)
    Blend: AUG-CC-PVTZ-JKFIT
	 Reference Energy          =    -451.6415546167194179 [Eh]
	 Singles Energy            =      -0.0000000000000000 [Eh]
	 Same-Spin Energy          =      -0.4593440498844915 [Eh]
	 Opposite-Spin Energy      =      -1.3876525498246395 [Eh]
	 Correlation Energy        =      -1.8469965997091311 [Eh]
	 Total Energy              =    -453.4885512164285615 [Eh]

	 ================> DF-SCS-MP2 Energies <==================
	-----------------------------------------------------------
	 SCS Same-Spin Scale       =       0.3333333333333333 [-]
	 SCS Opposite-Spin Scale   =       1.2000000000000000 [-]
	 SCS Same-Spin Energy      =      -0.1531146832948305 [Eh]
	 SCS Opposite-Spin Energy  =      -1.6651830597895674 [Eh]
	 SCS Correlation Energy    =      -1.8182977430843978 [Eh]
	 SCS Total Energy          =    -453.4598523598037900 [Eh]
	-----------------------------------------------------------

  Dipole Moment: [D]
     X:    -3.2989      Y:    -3.5466      Z:    -0.0009     Total:     4.8436

*** Psi4 exiting successfully. Buy a developer a beer!
