                               Psi4 1.3.2 release

  ==> Input File <==

--------------------------------------------------------------------------
#psi4
#
memory 32 gb

molecule  {
0 1
  O       -1.4281229     1.8289842    -0.0000080
  O        2.9082060     0.2751580    -0.0000600
  N       -1.0895640    -0.4406340     0.0001970
  N        0.7382303     0.9502030     0.0002512
  C       -0.6489740     0.8800530    -0.0003070
  C       -0.2041810    -1.5011250     0.0000420
  C       -2.5282030    -0.6963170    -0.0000730
  C        1.1391180    -1.3434170     0.0000740
  C        1.7104040    -0.0052910    -0.0002190
  H       -0.6762750    -2.4793460     0.0001770
  H       -2.8113470    -1.2573270     0.8936330
  H       -2.8107340    -1.2584070    -0.8933430
  H       -3.0286960     0.2691590    -0.0008180
  H        1.0742980     1.9581480     0.0003170
  H        1.8167570    -2.1872720    -0.0000870
units angstrom
no_reorient  #important for SAPT in psi4, default
symmetry c1  #important for SAPT in psi4, default
}

set PROPERTIES_ORIGIN ["COM"]
properties('MP2/aug-cc-pvtz', properties = ['dipole'])
--------------------------------------------------------------------------

    Molecular point group: c1
  Charge       = 0
  Multiplicity = 1
  Basis Set: AUG-CC-PVTZ
    Blend: AUG-CC-PVTZ
  Basis Set: (AUG-CC-PVTZ AUX)
    Blend: AUG-CC-PVTZ-JKFIT

    Orbital Energies [Eh]
    ---------------------

    Doubly Occupied:

       1A    -20.550068     2A    -20.535909     3A    -15.642032
       4A    -15.633459     5A    -11.422039     6A    -11.377058
       7A    -11.334676     8A    -11.288007     9A    -11.253804
      10A     -1.431621    11A     -1.389405    12A     -1.313165
      13A     -1.250914    14A     -1.089626    15A     -0.991739
      16A     -0.927214    17A     -0.883073    18A     -0.768871
      19A     -0.747962    20A     -0.695615    21A     -0.686664
      22A     -0.658669    23A     -0.645347    24A     -0.617723
      25A     -0.609056    26A     -0.597856    27A     -0.568040
      28A     -0.556136    29A     -0.498164    30A     -0.481085
      31A     -0.447259    32A     -0.436000    33A     -0.359161

  @DF-RHF Final Energy:  -451.65445540947997

   => Energetics <=

    Nuclear Repulsion Energy =            442.1006390625991571
    One-Electron Energy =               -1492.1353557717968670
    Two-Electron Energy =                 598.3802612997177448
    Total Energy =                       -451.6544554094799651
  Basis Set: (AUG-CC-PVTZ AUX)
    Blend: AUG-CC-PVTZ-RI
    Molecular point group: c1

    Geometry (in Angstrom), charge = 0, multiplicity = 1:

       Center              X                  Y                   Z               Mass
    ------------   -----------------  -----------------  -----------------  -----------------
         O           -1.474818579389     1.798803015350    -0.000002212898    15.994914619570
         O            2.861510320611     0.244976815350    -0.000054212898    15.994914619570
         N           -1.136259679389    -0.470815184650     0.000202787102    14.003074004430
         N            0.691534620611     0.920021815350     0.000256987102    14.003074004430
         C           -0.695669679389     0.849871815350    -0.000301212898    12.000000000000
         C           -0.250876679389    -1.531306184650     0.000047787102    12.000000000000
         C           -2.574898679389    -0.726498184650    -0.000067212898    12.000000000000
         C            1.092422320611    -1.373598184650     0.000079787102    12.000000000000
         C            1.663708320611    -0.035472184650    -0.000213212898    12.000000000000
         H           -0.722970679389    -2.509527184650     0.000182787102     1.007825032230
         H           -2.858042679389    -1.287508184650     0.893638787102     1.007825032230
         H           -2.857429679389    -1.288588184650    -0.893337212898     1.007825032230
         H           -3.075391679389     0.238977815350    -0.000812212898     1.007825032230
         H            1.027602320611     1.927966815350     0.000322787102     1.007825032230
         H            1.770061320611    -2.217453184650    -0.000081212898     1.007825032230

  Basis Set: AUG-CC-PVTZ
    Blend: AUG-CC-PVTZ
  Basis Set: (AUG-CC-PVTZ AUX)
    Blend: AUG-CC-PVTZ-JKFIT
	 Reference Energy          =    -451.6544554094799651 [Eh]
	 Singles Energy            =      -0.0000000000000000 [Eh]
	 Same-Spin Energy          =      -0.4590228197389937 [Eh]
	 Opposite-Spin Energy      =      -1.3860394414639239 [Eh]
	 Correlation Energy        =      -1.8450622612029175 [Eh]
	 Total Energy              =    -453.4995176706829056 [Eh]

	 ================> DF-SCS-MP2 Energies <==================
	-----------------------------------------------------------
	 SCS Same-Spin Scale       =       0.3333333333333333 [-]
	 SCS Opposite-Spin Scale   =       1.2000000000000000 [-]
	 SCS Same-Spin Energy      =      -0.1530076065796646 [Eh]
	 SCS Opposite-Spin Energy  =      -1.6632473297567085 [Eh]
	 SCS Correlation Energy    =      -1.8162549363363731 [Eh]
	 SCS Total Energy          =    -453.4707103458163147 [Eh]
	-----------------------------------------------------------

  Dipole Moment: [D]
     X:    -3.2879      Y:    -3.3406      Z:    -0.0008     Total:     4.6872

*** Psi4 exiting successfully. Buy a developer a beer!
