                               Psi4 1.4a3.dev225

  ==> Input File <==

--------------------------------------------------------------------------
#psi4
#
memory 32 gb

molecule  {
0 1
  O       -1.4350980    -1.8086910     0.0000000
  O        2.9075840    -0.3082450     0.0000000
  N       -1.0785060     0.4619330     0.0000000
  N        0.7249750    -1.0056720    -0.0000010
  C       -0.6517050    -0.8641080     0.0000000
  C       -0.1841290     1.5083600     0.0000000
  C       -2.5245930     0.6731660     0.0000000
  C        1.1087114     1.3394360     0.0000000
  C        1.7164880    -0.0081480     0.0000000
  H       -0.6338540     2.4967290    -0.0000010
  H       -2.9690000     0.2175100    -0.8862740
  H       -2.7140630     1.7465080     0.0000000
  H       -2.9689990     0.2175090     0.8862740
  H        1.0585810    -1.9665760     0.0000000
  H        1.8360540     2.1766110     0.0000000
units angstrom
no_reorient  #important for SAPT in psi4, default
symmetry c1  #important for SAPT in psi4, default
}

set PROPERTIES_ORIGIN ["COM"]
properties('MP2/aug-cc-pvtz', properties = ['dipole'])
--------------------------------------------------------------------------

    Molecular point group: c1
  Charge       = 0
  Multiplicity = 1
  Basis Set: AUG-CC-PVTZ
    Blend: AUG-CC-PVTZ
  Basis Set: (AUG-CC-PVTZ AUX)
    Blend: AUG-CC-PVTZ-JKFIT

    Orbital Energies [Eh]
    ---------------------

    Doubly Occupied:

       1A    -20.544672     2A    -20.544268     3A    -15.640236
       4A    -15.626508     5A    -11.415008     6A    -11.384520
       7A    -11.327869     8A    -11.290488     9A    -11.252854
      10A     -1.428243    11A     -1.391336    12A     -1.311247
      13A     -1.246225    14A     -1.099070    15A     -0.986635
      16A     -0.926538    17A     -0.873994    18A     -0.773613
      19A     -0.749505    20A     -0.702569    21A     -0.685093
      22A     -0.658320    23A     -0.643745    24A     -0.609957
      25A     -0.607626    26A     -0.599807    27A     -0.573044
      28A     -0.550744    29A     -0.506395    30A     -0.478930
      31A     -0.447820    32A     -0.433547    33A     -0.364572

  @DF-RHF Final Energy:  -451.65897506614874

   => Energetics <=

    Nuclear Repulsion Energy =            442.0613232313937715
    One-Electron Energy =               -1492.0905984436510607
    Two-Electron Energy =                 598.3703001461085478
    Total Energy =                       -451.6589750661487415
  Basis Set: (AUG-CC-PVTZ AUX)
    Blend: AUG-CC-PVTZ-RI
    Molecular point group: c1

    Geometry (in Angstrom), charge = 0, multiplicity = 1:

       Center              X                  Y                   Z               Mass
    ------------   -----------------  -----------------  -----------------  -----------------
         O           -1.480620133049    -1.770900589278     0.000000119094    15.994914619570
         O            2.862061866951    -0.270454589278     0.000000119094    15.994914619570
         N           -1.124028133049     0.499723410722     0.000000119094    14.003074004430
         N            0.679452866951    -0.967881589278    -0.000000880906    14.003074004430
         C           -0.697227133049    -0.826317589278     0.000000119094    12.000000000000
         C           -0.229651133049     1.546150410722     0.000000119094    12.000000000000
         C           -2.570115133049     0.710956410722     0.000000119094    12.000000000000
         C            1.063189266951     1.377226410722     0.000000119094    12.000000000000
         C            1.670965866951     0.029642410722     0.000000119094    12.000000000000
         H           -0.679376133049     2.534519410722    -0.000000880906     1.007825032230
         H           -3.014522133049     0.255300410722    -0.886273880906     1.007825032230
         H           -2.759585133049     1.784298410722     0.000000119094     1.007825032230
         H           -3.014521133049     0.255299410722     0.886274119094     1.007825032230
         H            1.013058866951    -1.928785589278     0.000000119094     1.007825032230
         H            1.790531866951     2.214401410722     0.000000119094     1.007825032230

  Basis Set: AUG-CC-PVTZ
    Blend: AUG-CC-PVTZ
  Basis Set: (AUG-CC-PVTZ AUX)
    Blend: AUG-CC-PVTZ-JKFIT
	 Reference Energy          =    -451.6589750661487415 [Eh]
	 Singles Energy            =      -0.0000000000000000 [Eh]
	 Same-Spin Energy          =      -0.4575324510785953 [Eh]
	 Opposite-Spin Energy      =      -1.3838927344552170 [Eh]
	 Correlation Energy        =      -1.8414251855338124 [Eh]
	 Total Energy              =    -453.5004002516825494 [Eh]

	 ================> DF-SCS-MP2 Energies <==================
	-----------------------------------------------------------
	 SCS Same-Spin Scale       =       0.3333333333333333 [-]
	 SCS Opposite-Spin Scale   =       1.2000000000000000 [-]
	 SCS Same-Spin Energy      =      -0.1525108170261984 [Eh]
	 SCS Opposite-Spin Energy  =      -1.6606712813462603 [Eh]
	 SCS Correlation Energy    =      -1.8131820983724587 [Eh]
	 SCS Total Energy          =    -453.4721571645212066 [Eh]
	-----------------------------------------------------------

  Dipole Moment: [D]
     X:    -3.0385      Y:     3.5162      Z:     0.0000     Total:     4.6472

*** Psi4 exiting successfully. Buy a developer a beer!
