                               Psi4 1.3.2 release

  ==> Input File <==

--------------------------------------------------------------------------
#psi4
#
memory 32 gb

molecule  {
0 1
  O       -1.3945310     1.8555980     0.0000210
  O        2.9082060     0.2751580    -0.0000600
  N       -1.0895640    -0.4406340     0.0001970
  N        0.7349370     0.9985730     0.0002800
  C       -0.6374658     0.8761579    -0.0003020
  C       -0.2041810    -1.5011250     0.0000420
  C       -2.5259170    -0.7088616    -0.0000665
  C        1.1391180    -1.3434170     0.0000740
  C        1.7104040    -0.0052910    -0.0002190
  H       -0.6762750    -2.4793460     0.0001770
  H       -2.8113470    -1.2573270     0.8936330
  H       -2.8107340    -1.2584070    -0.8933430
  H       -3.0286960     0.2691590    -0.0008180
  H        1.0742980     1.9581480     0.0003170
  H        1.8167570    -2.1872720    -0.0000870
units angstrom
no_reorient  #important for SAPT in psi4, default
symmetry c1  #important for SAPT in psi4, default
}

set PROPERTIES_ORIGIN ["COM"]
properties('MP2/aug-cc-pvtz', properties = ['dipole'])
--------------------------------------------------------------------------

    Molecular point group: c1
  Charge       = 0
  Multiplicity = 1
  Basis Set: AUG-CC-PVTZ
    Blend: AUG-CC-PVTZ
  Basis Set: (AUG-CC-PVTZ AUX)
    Blend: AUG-CC-PVTZ-JKFIT

    Orbital Energies [Eh]
    ---------------------

    Doubly Occupied:

       1A    -20.542774     2A    -20.540003     3A    -15.644929
       4A    -15.628657     5A    -11.418492     6A    -11.380987
       7A    -11.337255     8A    -11.289884     9A    -11.256485
      10A     -1.425066    11A     -1.387815    12A     -1.310437
      13A     -1.249036    14A     -1.091302    15A     -0.990484
      16A     -0.930932    17A     -0.874906    18A     -0.773181
      19A     -0.753405    20A     -0.699819    21A     -0.686126
      22A     -0.657437    23A     -0.642228    24A     -0.617461
      25A     -0.609773    26A     -0.602667    27A     -0.568324
      28A     -0.553023    29A     -0.499889    30A     -0.477582
      31A     -0.446855    32A     -0.433377    33A     -0.360926

  @DF-RHF Final Energy:  -451.65962589036201

   => Energetics <=

    Nuclear Repulsion Energy =            441.1900722333965632
    One-Electron Energy =               -1490.3363590498695430
    Two-Electron Energy =                 597.4866609261110852
    Total Energy =                       -451.6596258903620082
  Basis Set: (AUG-CC-PVTZ AUX)
    Blend: AUG-CC-PVTZ-RI
    Molecular point group: c1

    Geometry (in Angstrom), charge = 0, multiplicity = 1:

       Center              X                  Y                   Z               Mass
    ------------   -----------------  -----------------  -----------------  -----------------
         O           -1.446436917378     1.818230868731     0.000018812509    15.994914619570
         O            2.856300082622     0.237790868731    -0.000062187491    15.994914619570
         N           -1.141469917378    -0.478001131269     0.000194812509    14.003074004430
         N            0.683031082622     0.961205868731     0.000277812509    14.003074004430
         C           -0.689371717378     0.838790768731    -0.000304187491    12.000000000000
         C           -0.256086917378    -1.538492131269     0.000039812509    12.000000000000
         C           -2.577822917378    -0.746228731269    -0.000068687491    12.000000000000
         C            1.087212082622    -1.380784131269     0.000071812509    12.000000000000
         C            1.658498082622    -0.042658131269    -0.000221187491    12.000000000000
         H           -0.728180917378    -2.516713131269     0.000174812509     1.007825032230
         H           -2.863252917378    -1.294694131269     0.893630812509     1.007825032230
         H           -2.862639917378    -1.295774131269    -0.893345187491     1.007825032230
         H           -3.080601917378     0.231791868731    -0.000820187491     1.007825032230
         H            1.022392082622     1.920780868731     0.000314812509     1.007825032230
         H            1.764851082622    -2.224639131269    -0.000089187491     1.007825032230

  Basis Set: AUG-CC-PVTZ
    Blend: AUG-CC-PVTZ
  Basis Set: (AUG-CC-PVTZ AUX)
    Blend: AUG-CC-PVTZ-JKFIT
	 Reference Energy          =    -451.6596258903620082 [Eh]
	 Singles Energy            =      -0.0000000000000000 [Eh]
	 Same-Spin Energy          =      -0.4582355963821135 [Eh]
	 Opposite-Spin Energy      =      -1.3851034283205248 [Eh]
	 Correlation Energy        =      -1.8433390247026384 [Eh]
	 Total Energy              =    -453.5029649150646378 [Eh]

	 ================> DF-SCS-MP2 Energies <==================
	-----------------------------------------------------------
	 SCS Same-Spin Scale       =       0.3333333333333333 [-]
	 SCS Opposite-Spin Scale   =       1.2000000000000000 [-]
	 SCS Same-Spin Energy      =      -0.1527451987940378 [Eh]
	 SCS Opposite-Spin Energy  =      -1.6621241139846297 [Eh]
	 SCS Correlation Energy    =      -1.8148693127786675 [Eh]
	 SCS Total Energy          =    -453.4744952031406910 [Eh]
	-----------------------------------------------------------

  Dipole Moment: [D]
     X:    -3.1466      Y:    -3.5942      Z:    -0.0008     Total:     4.7770

*** Psi4 exiting successfully. Buy a developer a beer!
