                               Psi4 1.3.2 release

  ==> Input File <==

--------------------------------------------------------------------------
#psi4
#
memory 32 gb

molecule  {
0 1
  O       -1.3945310     1.8555980     0.0000210
  O        2.9082060     0.2751580    -0.0000600
  N       -1.0895640    -0.4406340     0.0001970
  N        0.7349370     0.9985730     0.0002800
  C       -0.7096960     0.9595064    -0.0002803
  C       -0.2041810    -1.5011250     0.0000420
  C       -2.5282030    -0.6963170    -0.0000730
  C        1.1391180    -1.3434170     0.0000740
  C        1.7104040    -0.0052910    -0.0002190
  H       -0.6762750    -2.4793460     0.0001770
  H       -2.8113470    -1.2573270     0.8936330
  H       -2.8107340    -1.2584070    -0.8933430
  H       -3.0286960     0.2691590    -0.0008180
  H        1.0742980     1.9581480     0.0003170
  H        1.8167570    -2.1872720    -0.0000870
units angstrom
no_reorient  #important for SAPT in psi4, default
symmetry c1  #important for SAPT in psi4, default
}

set PROPERTIES_ORIGIN ["COM"]
properties('MP2/aug-cc-pvtz', properties = ['dipole'])
--------------------------------------------------------------------------

    Molecular point group: c1
  Charge       = 0
  Multiplicity = 1
  Basis Set: AUG-CC-PVTZ
    Blend: AUG-CC-PVTZ
  Basis Set: (AUG-CC-PVTZ AUX)
    Blend: AUG-CC-PVTZ-JKFIT

    Orbital Energies [Eh]
    ---------------------

    Doubly Occupied:

       1A    -20.574082     2A    -20.530691     3A    -15.632788
       4A    -15.614326     5A    -11.420314     6A    -11.372627
       7A    -11.330698     8A    -11.285526     9A    -11.246479
      10A     -1.494869    11A     -1.384569    12A     -1.307084
      13A     -1.226904    14A     -1.083125    15A     -0.975658
      16A     -0.917968    17A     -0.862084    18A     -0.762557
      19A     -0.740472    20A     -0.715284    21A     -0.685219
      22A     -0.674767    23A     -0.639622    24A     -0.617677
      25A     -0.604531    26A     -0.601989    27A     -0.572397
      28A     -0.569325    29A     -0.497377    30A     -0.494383
      31A     -0.440742    32A     -0.431472    33A     -0.352379

  @DF-RHF Final Energy:  -451.64575883881099

   => Energetics <=

    Nuclear Repulsion Energy =            440.7890279953783761
    One-Electron Energy =               -1489.5496031938153010
    Two-Electron Energy =                 597.1148163596260474
    Total Energy =                       -451.6457588388109343
  Basis Set: (AUG-CC-PVTZ AUX)
    Blend: AUG-CC-PVTZ-RI
    Molecular point group: c1

    Geometry (in Angstrom), charge = 0, multiplicity = 1:

       Center              X                  Y                   Z               Mass
    ------------   -----------------  -----------------  -----------------  -----------------
         O           -1.439342553433     1.809101302928     0.000017365383    15.994914619570
         O            2.863394446567     0.228661302928    -0.000063634617    15.994914619570
         N           -1.134375553433    -0.487130697072     0.000193365383    14.003074004430
         N            0.690125446567     0.952076302928     0.000276365383    14.003074004430
         C           -0.754507553433     0.913009702928    -0.000283934617    12.000000000000
         C           -0.248992553433    -1.547621697072     0.000038365383    12.000000000000
         C           -2.573014553433    -0.742813697072    -0.000076634617    12.000000000000
         C            1.094306446567    -1.389913697072     0.000070365383    12.000000000000
         C            1.665592446567    -0.051787697072    -0.000222634617    12.000000000000
         H           -0.721086553433    -2.525842697072     0.000173365383     1.007825032230
         H           -2.856158553433    -1.303823697072     0.893629365383     1.007825032230
         H           -2.855545553433    -1.304903697072    -0.893346634617     1.007825032230
         H           -3.073507553433     0.222662302928    -0.000821634617     1.007825032230
         H            1.029486446567     1.911651302928     0.000313365383     1.007825032230
         H            1.771945446567    -2.233768697072    -0.000090634617     1.007825032230

  Basis Set: AUG-CC-PVTZ
    Blend: AUG-CC-PVTZ
  Basis Set: (AUG-CC-PVTZ AUX)
    Blend: AUG-CC-PVTZ-JKFIT
	 Reference Energy          =    -451.6457588388109912 [Eh]
	 Singles Energy            =      -0.0000000000000000 [Eh]
	 Same-Spin Energy          =      -0.4567547252866665 [Eh]
	 Opposite-Spin Energy      =      -1.3825507538711130 [Eh]
	 Correlation Energy        =      -1.8393054791577796 [Eh]
	 Total Energy              =    -453.4850643179687495 [Eh]

	 ================> DF-SCS-MP2 Energies <==================
	-----------------------------------------------------------
	 SCS Same-Spin Scale       =       0.3333333333333333 [-]
	 SCS Opposite-Spin Scale   =       1.2000000000000000 [-]
	 SCS Same-Spin Energy      =      -0.1522515750955555 [Eh]
	 SCS Opposite-Spin Energy  =      -1.6590609046453355 [Eh]
	 SCS Correlation Energy    =      -1.8113124797408910 [Eh]
	 SCS Total Energy          =    -453.4570713185518684 [Eh]
	-----------------------------------------------------------

  Dipole Moment: [D]
     X:    -3.8828      Y:    -2.6765      Z:    -0.0010     Total:     4.7159

*** Psi4 exiting successfully. Buy a developer a beer!
