                               Psi4 1.3.2 release

  ==> Input File <==

--------------------------------------------------------------------------
#psi4
#
memory 32 gb

molecule  {
0 1
  O       -1.3945310     1.8555980     0.0000210
  O        2.9082060     0.2751580    -0.0000600
  N       -1.0895640    -0.4406340     0.0001970
  N        0.7349370     0.9985730     0.0002800
  C       -0.6489740     0.8800530    -0.0003070
  C       -0.2041810    -1.5011250     0.0000420
  C       -2.5282030    -0.6963170    -0.0000730
  C        1.1391180    -1.3434170     0.0000740
  C        1.7104040    -0.0052910    -0.0002190
  H       -0.6762750    -2.4793460     0.0001770
  H       -2.8113470    -1.2573270     0.8936330
  H       -2.8365934    -1.3098538    -0.9751019
  H       -3.0286960     0.2691590    -0.0008180
  H        1.0742980     1.9581480     0.0003170
  H        1.8167570    -2.1872720    -0.0000870
units angstrom
no_reorient  #important for SAPT in psi4, default
symmetry c1  #important for SAPT in psi4, default
}

set PROPERTIES_ORIGIN ["COM"]
properties('MP2/aug-cc-pvtz', properties = ['dipole'])
--------------------------------------------------------------------------

    Molecular point group: c1
  Charge       = 0
  Multiplicity = 1
  Basis Set: AUG-CC-PVTZ
    Blend: AUG-CC-PVTZ
  Basis Set: (AUG-CC-PVTZ AUX)
    Blend: AUG-CC-PVTZ-JKFIT

    Orbital Energies [Eh]
    ---------------------

    Doubly Occupied:

       1A    -20.546138     2A    -20.539315     3A    -15.645694
       4A    -15.627089     5A    -11.419275     6A    -11.380297
       7A    -11.337329     8A    -11.301429     9A    -11.256671
      10A     -1.428995    11A     -1.388615    12A     -1.312836
      13A     -1.246039    14A     -1.091158    15A     -0.983617
      16A     -0.931188    17A     -0.871461    18A     -0.771563
      19A     -0.751776    20A     -0.700059    21A     -0.682292
      22A     -0.657763    23A     -0.644703    24A     -0.613065
      25A     -0.604142    26A     -0.601497    27A     -0.570127
      28A     -0.552624    29A     -0.496286    30A     -0.480576
      31A     -0.446625    32A     -0.433511    33A     -0.360866

  @DF-RHF Final Energy:  -451.65398972577884

   => Energetics <=

    Nuclear Repulsion Energy =            440.7372484686198959
    One-Electron Energy =               -1489.4332366962119067
    Two-Electron Energy =                 597.0419985018130546
    Total Energy =                       -451.6539897257788425
  Basis Set: (AUG-CC-PVTZ AUX)
    Blend: AUG-CC-PVTZ-RI
    Molecular point group: c1

    Geometry (in Angstrom), charge = 0, multiplicity = 1:

       Center              X                  Y                   Z               Mass
    ------------   -----------------  -----------------  -----------------  -----------------
         O           -1.444916862627     1.817077079065     0.000673642317    15.994914619570
         O            2.857820137373     0.236637079065     0.000592642317    15.994914619570
         N           -1.139949862627    -0.479154920935     0.000849642317    14.003074004430
         N            0.684551137373     0.960052079065     0.000932642317    14.003074004430
         C           -0.699359862627     0.841532079065     0.000345642317    12.000000000000
         C           -0.254566862627    -1.539645920935     0.000694642317    12.000000000000
         C           -2.578588862627    -0.734837920935     0.000579642317    12.000000000000
         C            1.088732137373    -1.381937920935     0.000726642317    12.000000000000
         C            1.660018137373    -0.043811920935     0.000433642317    12.000000000000
         H           -0.726660862627    -2.517866920935     0.000829642317     1.007825032230
         H           -2.861732862627    -1.295847920935     0.894285642317     1.007825032230
         H           -2.886979262627    -1.348374720935    -0.974449257683     1.007825032230
         H           -3.079081862627     0.230638079065    -0.000165357683     1.007825032230
         H            1.023912137373     1.919627079065     0.000969642317     1.007825032230
         H            1.766371137373    -2.225792920935     0.000565642317     1.007825032230

  Basis Set: AUG-CC-PVTZ
    Blend: AUG-CC-PVTZ
  Basis Set: (AUG-CC-PVTZ AUX)
    Blend: AUG-CC-PVTZ-JKFIT
	 Reference Energy          =    -451.6539897257788425 [Eh]
	 Singles Energy            =      -0.0000000000000000 [Eh]
	 Same-Spin Energy          =      -0.4580630537478541 [Eh]
	 Opposite-Spin Energy      =      -1.3855253730307515 [Eh]
	 Correlation Energy        =      -1.8435884267786056 [Eh]
	 Total Energy              =    -453.4975781525574234 [Eh]

	 ================> DF-SCS-MP2 Energies <==================
	-----------------------------------------------------------
	 SCS Same-Spin Scale       =       0.3333333333333333 [-]
	 SCS Opposite-Spin Scale   =       1.2000000000000000 [-]
	 SCS Same-Spin Energy      =      -0.1526876845826180 [Eh]
	 SCS Opposite-Spin Energy  =      -1.6626304476369018 [Eh]
	 SCS Correlation Energy    =      -1.8153181322195198 [Eh]
	 SCS Total Energy          =    -453.4693078579983876 [Eh]
	-----------------------------------------------------------

  Dipole Moment: [D]
     X:    -3.1777      Y:    -3.5091      Z:     0.0337     Total:     4.7342

*** Psi4 exiting successfully. Buy a developer a beer!
