                               Psi4 1.3.2 release

  ==> Input File <==

--------------------------------------------------------------------------
#psi4
#
memory 32 gb

molecule  {
0 1
  O       -1.3945310     1.8555980     0.0000210
  O        2.9082060     0.2751580    -0.0000600
  N       -1.0895640    -0.4406340     0.0001970
  N        0.7349370     0.9985730     0.0002800
  C       -0.6489740     0.8800530    -0.0003070
  C       -0.1940863    -1.5712117     0.0000594
  C       -2.5282030    -0.6963170    -0.0000730
  C        1.1391180    -1.3434170     0.0000740
  C        1.7796532    -0.0370237    -0.0002077
  H       -0.6762750    -2.4793460     0.0001770
  H       -2.8113470    -1.2573270     0.8936330
  H       -2.8107340    -1.2584070    -0.8933430
  H       -3.0286960     0.2691590    -0.0008180
  H        1.0742980     1.9581480     0.0003170
  H        1.8167570    -2.1872720    -0.0000870
units angstrom
no_reorient  #important for SAPT in psi4, default
symmetry c1  #important for SAPT in psi4, default
}

set PROPERTIES_ORIGIN ["COM"]
properties('MP2/aug-cc-pvtz', properties = ['dipole'])
--------------------------------------------------------------------------

    Molecular point group: c1
  Charge       = 0
  Multiplicity = 1
  Basis Set: AUG-CC-PVTZ
    Blend: AUG-CC-PVTZ
  Basis Set: (AUG-CC-PVTZ AUX)
    Blend: AUG-CC-PVTZ-JKFIT

    Orbital Energies [Eh]
    ---------------------

    Doubly Occupied:

       1A    -20.559020     2A    -20.534458     3A    -15.634257
       4A    -15.611708     5A    -11.407800     6A    -11.386463
       7A    -11.338936     8A    -11.281978     9A    -11.261458
      10A     -1.441617    11A     -1.409055    12A     -1.291962
      13A     -1.224144    14A     -1.091466    15A     -0.977477
      16A     -0.930356    17A     -0.853288    18A     -0.761343
      19A     -0.744003    20A     -0.716590    21A     -0.672398
      22A     -0.665974    23A     -0.644190    24A     -0.619208
      25A     -0.613332    26A     -0.600627    27A     -0.565788
      28A     -0.558933    29A     -0.487034    30A     -0.482654
      31A     -0.447226    32A     -0.430152    33A     -0.364256

  @DF-RHF Final Energy:  -451.64831915269724

   => Energetics <=

    Nuclear Repulsion Energy =            439.3449356150794074
    One-Electron Energy =               -1486.7682100390084088
    Two-Electron Energy =                 595.7749552712316472
    Total Energy =                       -451.6483191526972405
  Basis Set: (AUG-CC-PVTZ AUX)
    Blend: AUG-CC-PVTZ-RI
    Molecular point group: c1

    Geometry (in Angstrom), charge = 0, multiplicity = 1:

       Center              X                  Y                   Z               Mass
    ------------   -----------------  -----------------  -----------------  -----------------
         O           -1.452677619780     1.826359499355     0.000017174971    15.994914619570
         O            2.850059380220     0.245919499355    -0.000063825029    15.994914619570
         N           -1.147710619780    -0.469872500645     0.000193174971    14.003074004430
         N            0.676790380220     0.969334499355     0.000276174971    14.003074004430
         C           -0.707120619780     0.850814499355    -0.000310825029    12.000000000000
         C           -0.252232919780    -1.600450200645     0.000055574971    12.000000000000
         C           -2.586349619780    -0.725555500645    -0.000076825029    12.000000000000
         C            1.080971380220    -1.372655500645     0.000070174971    12.000000000000
         C            1.721506580220    -0.066262200645    -0.000211525029    12.000000000000
         H           -0.734421619780    -2.508584500645     0.000173174971     1.007825032230
         H           -2.869493619780    -1.286565500645     0.893629174971     1.007825032230
         H           -2.868880619780    -1.287645500645    -0.893346825029     1.007825032230
         H           -3.086842619780     0.239920499355    -0.000821825029     1.007825032230
         H            1.016151380220     1.928909499355     0.000313174971     1.007825032230
         H            1.758610380220    -2.216510500645    -0.000090825029     1.007825032230

  Basis Set: AUG-CC-PVTZ
    Blend: AUG-CC-PVTZ
  Basis Set: (AUG-CC-PVTZ AUX)
    Blend: AUG-CC-PVTZ-JKFIT
	 Reference Energy          =    -451.6483191526972405 [Eh]
	 Singles Energy            =      -0.0000000000000000 [Eh]
	 Same-Spin Energy          =      -0.4568527640055702 [Eh]
	 Opposite-Spin Energy      =      -1.3839283204542769 [Eh]
	 Correlation Energy        =      -1.8407810844598471 [Eh]
	 Total Energy              =    -453.4891002371570607 [Eh]

	 ================> DF-SCS-MP2 Energies <==================
	-----------------------------------------------------------
	 SCS Same-Spin Scale       =       0.3333333333333333 [-]
	 SCS Opposite-Spin Scale   =       1.2000000000000000 [-]
	 SCS Same-Spin Energy      =      -0.1522842546685234 [Eh]
	 SCS Opposite-Spin Energy  =      -1.6607139845451322 [Eh]
	 SCS Correlation Energy    =      -1.8129982392136557 [Eh]
	 SCS Total Energy          =    -453.4613173919108817 [Eh]
	-----------------------------------------------------------

  Dipole Moment: [D]
     X:    -2.2939      Y:    -3.8523      Z:    -0.0010     Total:     4.4836

*** Psi4 exiting successfully. Buy a developer a beer!
