                               Psi4 1.3.2 release

  ==> Input File <==

--------------------------------------------------------------------------
#psi4
#
memory 32 gb

molecule  {
0 1
  O       -1.3945310     1.8555980     0.0000210
  O        2.9172639     0.2331845    -0.0000813
  N       -1.0895640    -0.4406340     0.0001970
  N        0.7004969     0.9639182     0.0002619
  C       -0.6489740     0.8800530    -0.0003070
  C       -0.2041810    -1.5011250     0.0000420
  C       -2.5282030    -0.6963170    -0.0000730
  C        1.1391180    -1.3434170     0.0000740
  C        1.7104040    -0.0052910    -0.0002190
  H       -0.6762750    -2.4793460     0.0001770
  H       -2.8113470    -1.2573270     0.8936330
  H       -2.8107340    -1.2584070    -0.8933430
  H       -3.0286960     0.2691590    -0.0008180
  H        1.0742980     1.9581480     0.0003170
  H        1.8167570    -2.1872720    -0.0000870
units angstrom
no_reorient  #important for SAPT in psi4, default
symmetry c1  #important for SAPT in psi4, default
}

set PROPERTIES_ORIGIN ["COM"]
properties('MP2/aug-cc-pvtz', properties = ['dipole'])
--------------------------------------------------------------------------

    Molecular point group: c1
  Charge       = 0
  Multiplicity = 1
  Basis Set: AUG-CC-PVTZ
    Blend: AUG-CC-PVTZ
  Basis Set: (AUG-CC-PVTZ AUX)
    Blend: AUG-CC-PVTZ-JKFIT

    Orbital Energies [Eh]
    ---------------------

    Doubly Occupied:

       1A    -20.543482     2A    -20.543022     3A    -15.641778
       4A    -15.632569     5A    -11.415799     6A    -11.382997
       7A    -11.334850     8A    -11.288207     9A    -11.253317
      10A     -1.430882    11A     -1.389527    12A     -1.313127
      13A     -1.251632    14A     -1.090100    15A     -0.990820
      16A     -0.927209    17A     -0.882791    18A     -0.769648
      19A     -0.747674    20A     -0.694768    21A     -0.687168
      22A     -0.657880    23A     -0.644716    24A     -0.617215
      25A     -0.608232    26A     -0.600600    27A     -0.568206
      28A     -0.554963    29A     -0.498235    30A     -0.478814
      31A     -0.448853    32A     -0.436964    33A     -0.359009

  @DF-RHF Final Energy:  -451.65481588408920

   => Energetics <=

    Nuclear Repulsion Energy =            441.9877373039780650
    One-Electron Energy =               -1491.9149971667704904
    Two-Electron Energy =                 598.2724439787032225
    Total Energy =                       -451.6548158840892029
  Basis Set: (AUG-CC-PVTZ AUX)
    Blend: AUG-CC-PVTZ-RI
    Molecular point group: c1

    Geometry (in Angstrom), charge = 0, multiplicity = 1:

       Center              X                  Y                   Z               Mass
    ------------   -----------------  -----------------  -----------------  -----------------
         O           -1.442446869367     1.825842242865     0.000024621223    15.994914619570
         O            2.869348030633     0.203428742865    -0.000077678777    15.994914619570
         N           -1.137479869367    -0.470389757135     0.000200621223    14.003074004430
         N            0.652581030633     0.934162442865     0.000265521223    14.003074004430
         C           -0.696889869367     0.850297242865    -0.000303378777    12.000000000000
         C           -0.252096869367    -1.530880757135     0.000045621223    12.000000000000
         C           -2.576118869367    -0.726072757135    -0.000069378777    12.000000000000
         C            1.091202130633    -1.373172757135     0.000077621223    12.000000000000
         C            1.662488130633    -0.035046757135    -0.000215378777    12.000000000000
         H           -0.724190869367    -2.509101757135     0.000180621223     1.007825032230
         H           -2.859262869367    -1.287082757135     0.893636621223     1.007825032230
         H           -2.858649869367    -1.288162757135    -0.893339378777     1.007825032230
         H           -3.076611869367     0.239403242865    -0.000814378777     1.007825032230
         H            1.026382130633     1.928392242865     0.000320621223     1.007825032230
         H            1.768841130633    -2.217027757135    -0.000083378777     1.007825032230

  Basis Set: AUG-CC-PVTZ
    Blend: AUG-CC-PVTZ
  Basis Set: (AUG-CC-PVTZ AUX)
    Blend: AUG-CC-PVTZ-JKFIT
	 Reference Energy          =    -451.6548158840892029 [Eh]
	 Singles Energy            =      -0.0000000000000000 [Eh]
	 Same-Spin Energy          =      -0.4588938453414104 [Eh]
	 Opposite-Spin Energy      =      -1.3858862462891866 [Eh]
	 Correlation Energy        =      -1.8447800916305970 [Eh]
	 Total Energy              =    -453.4995959757197852 [Eh]

	 ================> DF-SCS-MP2 Energies <==================
	-----------------------------------------------------------
	 SCS Same-Spin Scale       =       0.3333333333333333 [-]
	 SCS Opposite-Spin Scale   =       1.2000000000000000 [-]
	 SCS Same-Spin Energy      =      -0.1529646151138035 [Eh]
	 SCS Opposite-Spin Energy  =      -1.6630634955470238 [Eh]
	 SCS Correlation Energy    =      -1.8160281106608274 [Eh]
	 SCS Total Energy          =    -453.4708439947500551 [Eh]
	-----------------------------------------------------------

  Dipole Moment: [D]
     X:    -3.0703      Y:    -3.4155      Z:    -0.0008     Total:     4.5926

*** Psi4 exiting successfully. Buy a developer a beer!
