                               Psi4 1.3.2 release

  ==> Input File <==

--------------------------------------------------------------------------
#psi4
#
memory 32 gb

molecule  {
0 1
  O       -1.3945310     1.8555980     0.0000210
  O        2.9082060     0.2751580    -0.0000600
  N       -1.0895640    -0.4406340     0.0001970
  N        0.7349370     0.9985730     0.0002800
  C       -0.6489740     0.8800530    -0.0003070
  C       -0.2041810    -1.5011250     0.0000420
  C       -2.5282030    -0.6963170    -0.0000730
  C        1.1404431    -1.3551454     0.0000759
  C        1.7104040    -0.0052910    -0.0002190
  H       -0.6677205    -2.4834285     0.0001780
  H       -2.8113470    -1.2573270     0.8936330
  H       -2.8107340    -1.2584070    -0.8933430
  H       -3.0286960     0.2691590    -0.0008180
  H        1.0742980     1.9581480     0.0003170
  H        1.8167570    -2.1872720    -0.0000870
units angstrom
no_reorient  #important for SAPT in psi4, default
symmetry c1  #important for SAPT in psi4, default
}

set PROPERTIES_ORIGIN ["COM"]
properties('MP2/aug-cc-pvtz', properties = ['dipole'])
--------------------------------------------------------------------------

    Molecular point group: c1
  Charge       = 0
  Multiplicity = 1
  Basis Set: AUG-CC-PVTZ
    Blend: AUG-CC-PVTZ
  Basis Set: (AUG-CC-PVTZ AUX)
    Blend: AUG-CC-PVTZ-JKFIT

    Orbital Energies [Eh]
    ---------------------

    Doubly Occupied:

       1A    -20.545675     2A    -20.539196     3A    -15.644529
       4A    -15.626870     5A    -11.418687     6A    -11.380585
       7A    -11.336386     8A    -11.289889     9A    -11.256230
      10A     -1.428382    11A     -1.388214    12A     -1.312069
      13A     -1.245642    14A     -1.090577    15A     -0.989409
      16A     -0.929069    17A     -0.872774    18A     -0.771883
      19A     -0.752529    20A     -0.699004    21A     -0.685078
      22A     -0.658567    23A     -0.644223    24A     -0.614741
      25A     -0.612163    26A     -0.601161    27A     -0.572836
      28A     -0.553975    29A     -0.499381    30A     -0.479754
      31A     -0.445830    32A     -0.433222    33A     -0.360647

  @DF-RHF Final Energy:  -451.66062598314932

   => Energetics <=

    Nuclear Repulsion Energy =            440.9613324061428443
    One-Electron Energy =               -1489.8855630554751315
    Two-Electron Energy =                 597.2636046661829141
    Total Energy =                       -451.6606259831493162
  Basis Set: (AUG-CC-PVTZ AUX)
    Blend: AUG-CC-PVTZ-RI
    Molecular point group: c1

    Geometry (in Angstrom), charge = 0, multiplicity = 1:

       Center              X                  Y                   Z               Mass
    ------------   -----------------  -----------------  -----------------  -----------------
         O           -1.445318189310     1.817814969518     0.000019718487    15.994914619570
         O            2.857418810690     0.237374969518    -0.000061281513    15.994914619570
         N           -1.140351189310    -0.478417030482     0.000195718487    14.003074004430
         N            0.684149810690     0.960789969518     0.000278718487    14.003074004430
         C           -0.699761189310     0.842269969518    -0.000308281513    12.000000000000
         C           -0.254968189310    -1.538908030482     0.000040718487    12.000000000000
         C           -2.578990189310    -0.734100030482    -0.000074281513    12.000000000000
         C            1.089655910690    -1.392928430482     0.000074618487    12.000000000000
         C            1.659616810690    -0.043074030482    -0.000220281513    12.000000000000
         H           -0.718507689310    -2.521211530482     0.000176718487     1.007825032230
         H           -2.862134189310    -1.295110030482     0.893631718487     1.007825032230
         H           -2.861521189310    -1.296190030482    -0.893344281513     1.007825032230
         H           -3.079483189310     0.231375969518    -0.000819281513     1.007825032230
         H            1.023510810690     1.920364969518     0.000315718487     1.007825032230
         H            1.765969810690    -2.225055030482    -0.000088281513     1.007825032230

  Basis Set: AUG-CC-PVTZ
    Blend: AUG-CC-PVTZ
  Basis Set: (AUG-CC-PVTZ AUX)
    Blend: AUG-CC-PVTZ-JKFIT
	 Reference Energy          =    -451.6606259831493162 [Eh]
	 Singles Energy            =      -0.0000000000000000 [Eh]
	 Same-Spin Energy          =      -0.4578848548809842 [Eh]
	 Opposite-Spin Energy      =      -1.3846709315636068 [Eh]
	 Correlation Energy        =      -1.8425557864445909 [Eh]
	 Total Energy              =    -453.5031817695938798 [Eh]

	 ================> DF-SCS-MP2 Energies <==================
	-----------------------------------------------------------
	 SCS Same-Spin Scale       =       0.3333333333333333 [-]
	 SCS Opposite-Spin Scale   =       1.2000000000000000 [-]
	 SCS Same-Spin Energy      =      -0.1526282849603280 [Eh]
	 SCS Opposite-Spin Energy  =      -1.6616051178763280 [Eh]
	 SCS Correlation Energy    =      -1.8142334028366560 [Eh]
	 SCS Total Energy          =    -453.4748593859859511 [Eh]
	-----------------------------------------------------------

  Dipole Moment: [D]
     X:    -3.2115      Y:    -3.5241      Z:    -0.0009     Total:     4.7679

*** Psi4 exiting successfully. Buy a developer a beer!
