                               Psi4 1.3.2 release

  ==> Input File <==

--------------------------------------------------------------------------
#psi4
#
memory 32 gb

molecule  {
0 1
  O       -1.3945310     1.8555980     0.0000210
  O        2.9082060     0.2751580    -0.0000600
  N       -1.0895640    -0.4406340     0.0001970
  N        0.7349370     0.9985730     0.0002800
  C       -0.6489740     0.8800530    -0.0003070
  C       -0.1498926    -1.4533343     0.0000622
  C       -2.5396128    -0.6206740    -0.0000547
  C        1.1391180    -1.3434170     0.0000740
  C        1.7104040    -0.0052910    -0.0002190
  H       -0.6762750    -2.4793460     0.0001770
  H       -2.8113470    -1.2573270     0.8936330
  H       -2.8107340    -1.2584070    -0.8933430
  H       -3.0286960     0.2691590    -0.0008180
  H        1.0742980     1.9581480     0.0003170
  H        1.8167570    -2.1872720    -0.0000870
units angstrom
no_reorient  #important for SAPT in psi4, default
symmetry c1  #important for SAPT in psi4, default
}

set PROPERTIES_ORIGIN ["COM"]
properties('MP2/aug-cc-pvtz', properties = ['dipole'])
--------------------------------------------------------------------------

    Molecular point group: c1
  Charge       = 0
  Multiplicity = 1
  Basis Set: AUG-CC-PVTZ
    Blend: AUG-CC-PVTZ
  Basis Set: (AUG-CC-PVTZ AUX)
    Blend: AUG-CC-PVTZ-JKFIT

    Orbital Energies [Eh]
    ---------------------

    Doubly Occupied:

       1A    -20.544292     2A    -20.540492     3A    -15.643045
       4A    -15.626152     5A    -11.415328     6A    -11.380503
       7A    -11.333742     8A    -11.292657     9A    -11.251470
      10A     -1.428685    11A     -1.389356    12A     -1.312317
      13A     -1.245173    14A     -1.107249    15A     -0.990783
      16A     -0.922141    17A     -0.875770    18A     -0.774619
      19A     -0.756423    20A     -0.686036    21A     -0.681921
      22A     -0.659487    23A     -0.649194    24A     -0.612912
      25A     -0.610767    26A     -0.605163    27A     -0.574919
      28A     -0.552206    29A     -0.499323    30A     -0.477010
      31A     -0.446683    32A     -0.433352    33A     -0.368731

  @DF-RHF Final Energy:  -451.64712899655802

   => Energetics <=

    Nuclear Repulsion Energy =            442.5131293961824781
    One-Electron Energy =               -1492.9447146982615777
    Two-Electron Energy =                 598.7844563055211893
    Total Energy =                       -451.6471289965579672
  Basis Set: (AUG-CC-PVTZ AUX)
    Blend: AUG-CC-PVTZ-RI
    Molecular point group: c1

    Geometry (in Angstrom), charge = 0, multiplicity = 1:

       Center              X                  Y                   Z               Mass
    ------------   -----------------  -----------------  -----------------  -----------------
         O           -1.449205916854     1.804914129473     0.000016241956    15.994914619570
         O            2.853531083146     0.224474129473    -0.000064758044    15.994914619570
         N           -1.144238916854    -0.491317870527     0.000192241956    14.003074004430
         N            0.680262083146     0.947889129473     0.000275241956    14.003074004430
         C           -0.703648916854     0.829369129473    -0.000311758044    12.000000000000
         C           -0.204567516854    -1.504018170527     0.000057441956    12.000000000000
         C           -2.594287716854    -0.671357870527    -0.000059458044    12.000000000000
         C            1.084443083146    -1.394100870527     0.000069241956    12.000000000000
         C            1.655729083146    -0.055974870527    -0.000223758044    12.000000000000
         H           -0.730949916854    -2.530029870527     0.000172241956     1.007825032230
         H           -2.866021916854    -1.308010870527     0.893628241956     1.007825032230
         H           -2.865408916854    -1.309090870527    -0.893347758044     1.007825032230
         H           -3.083370916854     0.218475129473    -0.000822758044     1.007825032230
         H            1.019623083146     1.907464129473     0.000312241956     1.007825032230
         H            1.762082083146    -2.237955870527    -0.000091758044     1.007825032230

  Basis Set: AUG-CC-PVTZ
    Blend: AUG-CC-PVTZ
  Basis Set: (AUG-CC-PVTZ AUX)
    Blend: AUG-CC-PVTZ-JKFIT
	 Reference Energy          =    -451.6471289965580240 [Eh]
	 Singles Energy            =      -0.0000000000000000 [Eh]
	 Same-Spin Energy          =      -0.4575949928580395 [Eh]
	 Opposite-Spin Energy      =      -1.3840311605089335 [Eh]
	 Correlation Energy        =      -1.8416261533669731 [Eh]
	 Total Energy              =    -453.4887551499249980 [Eh]

	 ================> DF-SCS-MP2 Energies <==================
	-----------------------------------------------------------
	 SCS Same-Spin Scale       =       0.3333333333333333 [-]
	 SCS Opposite-Spin Scale   =       1.2000000000000000 [-]
	 SCS Same-Spin Energy      =      -0.1525316642860132 [Eh]
	 SCS Opposite-Spin Energy  =      -1.6608373926107201 [Eh]
	 SCS Correlation Energy    =      -1.8133690568967333 [Eh]
	 SCS Total Energy          =    -453.4604980534547849 [Eh]
	-----------------------------------------------------------

  Dipole Moment: [D]
     X:    -3.1190      Y:    -3.4955      Z:    -0.0008     Total:     4.6847

*** Psi4 exiting successfully. Buy a developer a beer!
