                               Psi4 1.3.2 release

  ==> Input File <==

--------------------------------------------------------------------------
#psi4
#
memory 32 gb

molecule  {
0 1
  O       -1.3945310     1.8555980     0.0000210
  O        2.9082060     0.2751580    -0.0000600
  N       -1.0895640    -0.4406340     0.0001970
  N        0.7349370     0.9985730     0.0002800
  C       -0.6489740     0.8800530    -0.0003070
  C       -0.1940863    -1.5712117     0.0000286
  C       -2.5282030    -0.6963170    -0.0000730
  C        1.1391180    -1.3434170     0.0000740
  C        1.7104040    -0.0052910    -0.0002190
  H       -0.6762750    -2.4793460     0.0001770
  H       -2.8113470    -1.2573270     0.8936330
  H       -2.8107340    -1.2584070    -0.8933430
  H       -3.0286960     0.2691590    -0.0008180
  H        1.0742980     1.9581480     0.0003170
  H        1.7716644    -2.2215804    -0.0000936
units angstrom
no_reorient  #important for SAPT in psi4, default
symmetry c1  #important for SAPT in psi4, default
}

set PROPERTIES_ORIGIN ["COM"]
properties('MP2/aug-cc-pvtz', properties = ['dipole'])
--------------------------------------------------------------------------

    Molecular point group: c1
  Charge       = 0
  Multiplicity = 1
  Basis Set: AUG-CC-PVTZ
    Blend: AUG-CC-PVTZ
  Basis Set: (AUG-CC-PVTZ AUX)
    Blend: AUG-CC-PVTZ-JKFIT

    Orbital Energies [Eh]
    ---------------------

    Doubly Occupied:

       1A    -20.543778     2A    -20.542489     3A    -15.638467
       4A    -15.626747     5A    -11.416129     6A    -11.385828
       7A    -11.337247     8A    -11.285108     9A    -11.262769
      10A     -1.424473    11A     -1.391043    12A     -1.297945
      13A     -1.242329    14A     -1.093822    15A     -0.983199
      16A     -0.931677    17A     -0.869979    18A     -0.769533
      19A     -0.749545    20A     -0.714267    21A     -0.678228
      22A     -0.656381    23A     -0.644057    24A     -0.616358
      25A     -0.613329    26A     -0.600791    27A     -0.561178
      28A     -0.554590    29A     -0.489947    30A     -0.480484
      31A     -0.449563    32A     -0.433430    33A     -0.364487

  @DF-RHF Final Energy:  -451.65242969148113

   => Energetics <=

    Nuclear Repulsion Energy =            439.8105450041885547
    One-Electron Energy =               -1487.6275584828840692
    Two-Electron Energy =                 596.1645837872143829
    Total Energy =                       -451.6524296914811885
  Basis Set: (AUG-CC-PVTZ AUX)
    Blend: AUG-CC-PVTZ-RI
    Molecular point group: c1

    Geometry (in Angstrom), charge = 0, multiplicity = 1:

       Center              X                  Y                   Z               Mass
    ------------   -----------------  -----------------  -----------------  -----------------
         O           -1.445724148698     1.823612692829     0.000021235903    15.994914619570
         O            2.857012851302     0.243172692829    -0.000059764097    15.994914619570
         N           -1.140757148698    -0.472619307171     0.000197235903    14.003074004430
         N            0.683743851302     0.966587692829     0.000280235903    14.003074004430
         C           -0.700167148698     0.848067692829    -0.000306764097    12.000000000000
         C           -0.245279448698    -1.603197007171     0.000028835903    12.000000000000
         C           -2.579396148698    -0.728302307171    -0.000072764097    12.000000000000
         C            1.087924851302    -1.375402307171     0.000074235903    12.000000000000
         C            1.659210851302    -0.037276307171    -0.000218764097    12.000000000000
         H           -0.727468148698    -2.511331307171     0.000177235903     1.007825032230
         H           -2.862540148698    -1.289312307171     0.893633235903     1.007825032230
         H           -2.861927148698    -1.290392307171    -0.893342764097     1.007825032230
         H           -3.079889148698     0.237173692829    -0.000817764097     1.007825032230
         H            1.023104851302     1.926162692829     0.000317235903     1.007825032230
         H            1.720471251302    -2.253565707171    -0.000093364097     1.007825032230

  Basis Set: AUG-CC-PVTZ
    Blend: AUG-CC-PVTZ
  Basis Set: (AUG-CC-PVTZ AUX)
    Blend: AUG-CC-PVTZ-JKFIT
	 Reference Energy          =    -451.6524296914811316 [Eh]
	 Singles Energy            =      -0.0000000000000000 [Eh]
	 Same-Spin Energy          =      -0.4578402892760791 [Eh]
	 Opposite-Spin Energy      =      -1.3857540396734844 [Eh]
	 Correlation Energy        =      -1.8435943289495635 [Eh]
	 Total Energy              =    -453.4960240204306956 [Eh]

	 ================> DF-SCS-MP2 Energies <==================
	-----------------------------------------------------------
	 SCS Same-Spin Scale       =       0.3333333333333333 [-]
	 SCS Opposite-Spin Scale   =       1.2000000000000000 [-]
	 SCS Same-Spin Energy      =      -0.1526134297586930 [Eh]
	 SCS Opposite-Spin Energy  =      -1.6629048476081814 [Eh]
	 SCS Correlation Energy    =      -1.8155182773668743 [Eh]
	 SCS Total Energy          =    -453.4679479688480228 [Eh]
	-----------------------------------------------------------

  Dipole Moment: [D]
     X:    -2.9603      Y:    -3.6874      Z:    -0.0009     Total:     4.7286

*** Psi4 exiting successfully. Buy a developer a beer!
