                               Psi4 1.3.2 release

  ==> Input File <==

--------------------------------------------------------------------------
#psi4
#
memory 32 gb

molecule  {
0 1
  O       -1.3945310     1.8555980     0.0000210
  O        2.9082060     0.2751580    -0.0000600
  N       -1.0895640    -0.4406340     0.0001970
  N        0.7349370     0.9985730     0.0002800
  C       -0.6489740     0.8800530    -0.0003070
  C       -0.2041810    -1.5011250     0.0000420
  C       -2.5282030    -0.6963170    -0.0000730
  C        1.1391180    -1.3434170     0.0000740
  C        1.5156704    -0.0508852    -0.0002448
  H       -0.6762750    -2.4793460     0.0001770
  H       -2.8113470    -1.2573270     0.8936330
  H       -2.8107340    -1.2584070    -0.8933430
  H       -3.0286960     0.2691590    -0.0008180
  H        1.0742980     1.9581480     0.0003170
  H        1.8167570    -2.1872720    -0.0000870
units angstrom
no_reorient  #important for SAPT in psi4, default
symmetry c1  #important for SAPT in psi4, default
}

set PROPERTIES_ORIGIN ["COM"]
properties('MP2/aug-cc-pvtz', properties = ['dipole'])
--------------------------------------------------------------------------

    Molecular point group: c1
  Charge       = 0
  Multiplicity = 1
  Basis Set: AUG-CC-PVTZ
    Blend: AUG-CC-PVTZ
  Basis Set: (AUG-CC-PVTZ AUX)
    Blend: AUG-CC-PVTZ-JKFIT

    Orbital Energies [Eh]
    ---------------------

    Doubly Occupied:

       1A    -20.558683     2A    -20.493621     3A    -15.663815
       4A    -15.649693     5A    -11.429639     6A    -11.369245
       7A    -11.354714     8A    -11.301910     9A    -11.260124
      10A     -1.445339    11A     -1.350926    12A     -1.308426
      13A     -1.212418    14A     -1.120160    15A     -1.002790
      16A     -0.955275    17A     -0.893447    18A     -0.792183
      19A     -0.780765    20A     -0.713850    21A     -0.702055
      22A     -0.670868    23A     -0.641253    24A     -0.630649
      25A     -0.627035    26A     -0.588529    27A     -0.542161
      28A     -0.530612    29A     -0.512034    30A     -0.478337
      31A     -0.413081    32A     -0.406110    33A     -0.358146

  @DF-RHF Final Energy:  -451.59358148226761

   => Energetics <=

    Nuclear Repulsion Energy =            442.8612366891973693
    One-Electron Energy =               -1493.3938582061373381
    Two-Electron Energy =                 598.9390400346724164
    Total Energy =                       -451.5935814822676093
  Basis Set: (AUG-CC-PVTZ AUX)
    Blend: AUG-CC-PVTZ-RI
    Molecular point group: c1

    Geometry (in Angstrom), charge = 0, multiplicity = 1:

       Center              X                  Y                   Z               Mass
    ------------   -----------------  -----------------  -----------------  -----------------
         O           -1.426583890708     1.821006542123     0.000022363680    15.994914619570
         O            2.876153109292     0.240566542123    -0.000058636320    15.994914619570
         N           -1.121616890708    -0.475225457877     0.000198363680    14.003074004430
         N            0.702884109292     0.963981542123     0.000281363680    14.003074004430
         C           -0.681026890708     0.845461542123    -0.000305636320    12.000000000000
         C           -0.236233890708    -1.535716457877     0.000043363680    12.000000000000
         C           -2.560255890708    -0.730908457877    -0.000071636320    12.000000000000
         C            1.107065109292    -1.378008457877     0.000075363680    12.000000000000
         C            1.483617509292    -0.085476657877    -0.000243436320    12.000000000000
         H           -0.708327890708    -2.513937457877     0.000178363680     1.007825032230
         H           -2.843399890708    -1.291918457877     0.893634363680     1.007825032230
         H           -2.842786890708    -1.292998457877    -0.893341636320     1.007825032230
         H           -3.060748890708     0.234567542123    -0.000816636320     1.007825032230
         H            1.042245109292     1.923556542123     0.000318363680     1.007825032230
         H            1.784704109292    -2.221863457877    -0.000085636320     1.007825032230

  Basis Set: AUG-CC-PVTZ
    Blend: AUG-CC-PVTZ
  Basis Set: (AUG-CC-PVTZ AUX)
    Blend: AUG-CC-PVTZ-JKFIT
	 Reference Energy          =    -451.5935814822676093 [Eh]
	 Singles Energy            =      -0.0000000000000000 [Eh]
	 Same-Spin Energy          =      -0.4631941485889532 [Eh]
	 Opposite-Spin Energy      =      -1.3931567251875485 [Eh]
	 Correlation Energy        =      -1.8563508737765018 [Eh]
	 Total Energy              =    -453.4499323560440871 [Eh]

	 ================> DF-SCS-MP2 Energies <==================
	-----------------------------------------------------------
	 SCS Same-Spin Scale       =       0.3333333333333333 [-]
	 SCS Opposite-Spin Scale   =       1.2000000000000000 [-]
	 SCS Same-Spin Energy      =      -0.1543980495296511 [Eh]
	 SCS Opposite-Spin Energy  =      -1.6717880702250583 [Eh]
	 SCS Correlation Energy    =      -1.8261861197547093 [Eh]
	 SCS Total Energy          =    -453.4197676020223184 [Eh]
	-----------------------------------------------------------

  Dipole Moment: [D]
     X:    -4.9044      Y:    -3.7298      Z:    -0.0005     Total:     6.1615

*** Psi4 exiting successfully. Buy a developer a beer!
