                               Psi4 1.3.2 release

  ==> Input File <==

--------------------------------------------------------------------------
#psi4
#
memory 32 gb

molecule  {
0 1
  O       -1.3945310     1.8555980     0.0000210
  O        2.9082060     0.2751580    -0.0000600
  N       -1.0895640    -0.4406340     0.0001970
  N        0.7349370     0.9985730     0.0002800
  C       -0.6489740     0.8800530    -0.0003070
  C       -0.2041810    -1.5011250     0.0000420
  C       -2.7251173    -0.7313137    -0.0001100
  C        1.1391180    -1.3434170     0.0000740
  C        1.7104040    -0.0052910    -0.0002190
  H       -0.6762750    -2.4793460     0.0001770
  H       -2.8113470    -1.2573270     0.8936330
  H       -2.8107340    -1.2584070    -0.8933430
  H       -3.0286960     0.2691590    -0.0008180
  H        1.0742980     1.9581480     0.0003170
  H        1.8167570    -2.1872720    -0.0000870
units angstrom
no_reorient  #important for SAPT in psi4, default
symmetry c1  #important for SAPT in psi4, default
}

set PROPERTIES_ORIGIN ["COM"]
properties('MP2/aug-cc-pvtz', properties = ['dipole'])
--------------------------------------------------------------------------

    Molecular point group: c1
  Charge       = 0
  Multiplicity = 1
  Basis Set: AUG-CC-PVTZ
    Blend: AUG-CC-PVTZ
  Basis Set: (AUG-CC-PVTZ AUX)
    Blend: AUG-CC-PVTZ-JKFIT

    Orbital Energies [Eh]
    ---------------------

    Doubly Occupied:

       1A    -20.539809     2A    -20.532493     3A    -15.634135
       4A    -15.620850     5A    -11.411694     6A    -11.373802
       7A    -11.331321     8A    -11.304629     9A    -11.248252
      10A     -1.419465    11A     -1.382073    12A     -1.291766
      13A     -1.230421    14A     -1.078891    15A     -0.999632
      16A     -0.919867    17A     -0.869404    18A     -0.761634
      19A     -0.738353    20A     -0.693394    21A     -0.683739
      22A     -0.649848    23A     -0.638077    24A     -0.633876
      25A     -0.624977    26A     -0.585083    27A     -0.559107
      28A     -0.553650    29A     -0.502179    30A     -0.473316
      31A     -0.440242    32A     -0.428258    33A     -0.353805

  @DF-RHF Final Energy:  -451.63427296252314

   => Energetics <=

    Nuclear Repulsion Energy =            437.3383977385861385
    One-Electron Energy =               -1482.9292483564715894
    Two-Electron Energy =                 593.9565776553623664
    Total Energy =                       -451.6342729625231414
  Basis Set: (AUG-CC-PVTZ AUX)
    Blend: AUG-CC-PVTZ-RI
    Molecular point group: c1

    Geometry (in Angstrom), charge = 0, multiplicity = 1:

       Center              X                  Y                   Z               Mass
    ------------   -----------------  -----------------  -----------------  -----------------
         O           -1.426376275727     1.819997600149     0.000023429983    15.994914619570
         O            2.876360724273     0.239557600149    -0.000057570017    15.994914619570
         N           -1.121409275727    -0.476234399851     0.000199429983    14.003074004430
         N            0.703091724273     0.962972600149     0.000282429983    14.003074004430
         C           -0.680819275727     0.844452600149    -0.000304570017    12.000000000000
         C           -0.236026275727    -1.536725399851     0.000044429983    12.000000000000
         C           -2.756962575727    -0.766914099851    -0.000107570017    12.000000000000
         C            1.107272724273    -1.379017399851     0.000076429983    12.000000000000
         C            1.678558724273    -0.040891399851    -0.000216570017    12.000000000000
         H           -0.708120275727    -2.514946399851     0.000179429983     1.007825032230
         H           -2.843192275727    -1.292927399851     0.893635429983     1.007825032230
         H           -2.842579275727    -1.294007399851    -0.893340570017     1.007825032230
         H           -3.060541275727     0.233558600149    -0.000815570017     1.007825032230
         H            1.042452724273     1.922547600149     0.000319429983     1.007825032230
         H            1.784911724273    -2.222872399851    -0.000084570017     1.007825032230

  Basis Set: AUG-CC-PVTZ
    Blend: AUG-CC-PVTZ
  Basis Set: (AUG-CC-PVTZ AUX)
    Blend: AUG-CC-PVTZ-JKFIT
	 Reference Energy          =    -451.6342729625231414 [Eh]
	 Singles Energy            =      -0.0000000000000000 [Eh]
	 Same-Spin Energy          =      -0.4578815197838190 [Eh]
	 Opposite-Spin Energy      =      -1.3859971145119032 [Eh]
	 Correlation Energy        =      -1.8438786342957223 [Eh]
	 Total Energy              =    -453.4781515968188614 [Eh]

	 ================> DF-SCS-MP2 Energies <==================
	-----------------------------------------------------------
	 SCS Same-Spin Scale       =       0.3333333333333333 [-]
	 SCS Opposite-Spin Scale   =       1.2000000000000000 [-]
	 SCS Same-Spin Energy      =      -0.1526271732612730 [Eh]
	 SCS Opposite-Spin Energy  =      -1.6631965374142839 [Eh]
	 SCS Correlation Energy    =      -1.8158237106755568 [Eh]
	 SCS Total Energy          =    -453.4500966731986864 [Eh]
	-----------------------------------------------------------

  Dipole Moment: [D]
     X:    -3.8854      Y:    -3.7275      Z:    -0.0009     Total:     5.3843

*** Psi4 exiting successfully. Buy a developer a beer!
