                               Psi4 1.3.2 release

  ==> Input File <==

--------------------------------------------------------------------------
#psi4
#
memory 32 gb

molecule  {
0 1
  O       -1.3945310     1.8555980     0.0000210
  O        2.9082060     0.2751580    -0.0000600
  N       -1.0849477    -0.4779819    -0.0664053
  N        0.7349370     0.9985730     0.0002800
  C       -0.6489740     0.8800530    -0.0003070
  C       -0.2041810    -1.5011250     0.0000420
  C       -2.5282030    -0.6963170    -0.0000730
  C        1.1391180    -1.3434170     0.0000740
  C        1.7104040    -0.0052910    -0.0002190
  H       -0.6762750    -2.4793460     0.0001770
  H       -2.8113470    -1.2573270     0.8936330
  H       -2.7558022    -1.2577825    -0.9092789
  H       -3.0286960     0.2691590    -0.0008180
  H        1.0742980     1.9581480     0.0003170
  H        1.8167570    -2.1872720    -0.0000870
units angstrom
no_reorient  #important for SAPT in psi4, default
symmetry c1  #important for SAPT in psi4, default
}

set PROPERTIES_ORIGIN ["COM"]
properties('MP2/aug-cc-pvtz', properties = ['dipole'])
--------------------------------------------------------------------------

    Molecular point group: c1
  Charge       = 0
  Multiplicity = 1
  Basis Set: AUG-CC-PVTZ
    Blend: AUG-CC-PVTZ
  Basis Set: (AUG-CC-PVTZ AUX)
    Blend: AUG-CC-PVTZ-JKFIT

    Orbital Energies [Eh]
    ---------------------

    Doubly Occupied:

       1A    -20.552379     2A    -20.536726     3A    -15.644879
       4A    -15.627811     5A    -11.423923     6A    -11.378111
       7A    -11.334186     8A    -11.290900     9A    -11.251135
      10A     -1.429061    11A     -1.387063    12A     -1.316975
      13A     -1.247236    14A     -1.089048    15A     -0.987096
      16A     -0.930015    17A     -0.874016    18A     -0.769763
      19A     -0.750921    20A     -0.701500    21A     -0.686162
      22A     -0.660989    23A     -0.643234    24A     -0.617560
      25A     -0.607473    26A     -0.600180    27A     -0.573155
      28A     -0.553700    29A     -0.504715    30A     -0.481931
      31A     -0.445309    32A     -0.433758    33A     -0.355949

  @DF-RHF Final Energy:  -451.65598679656853

   => Energetics <=

    Nuclear Repulsion Energy =            441.0138969489288456
    One-Electron Energy =               -1489.9660469525838380
    Two-Electron Energy =                 597.2961632070863516
    Total Energy =                       -451.6559867965685271
  Basis Set: (AUG-CC-PVTZ AUX)
    Blend: AUG-CC-PVTZ-RI
    Molecular point group: c1

    Geometry (in Angstrom), charge = 0, multiplicity = 1:

       Center              X                  Y                   Z               Mass
    ------------   -----------------  -----------------  -----------------  -----------------
         O           -1.446075720068     1.820809987032     0.007546688558    15.994914619570
         O            2.856661279932     0.240369987032     0.007465688558    15.994914619570
         N           -1.136492420068    -0.512769912968    -0.058879611442    14.003074004430
         N            0.683392279932     0.963784987032     0.007805688558    14.003074004430
         C           -0.700518720068     0.845264987032     0.007218688558    12.000000000000
         C           -0.255725720068    -1.535913012968     0.007567688558    12.000000000000
         C           -2.579747720068    -0.731105012968     0.007452688558    12.000000000000
         C            1.087573279932    -1.378205012968     0.007599688558    12.000000000000
         C            1.658859279932    -0.040079012968     0.007306688558    12.000000000000
         H           -0.727819720068    -2.514134012968     0.007702688558     1.007825032230
         H           -2.862891720068    -1.292115012968     0.901158688558     1.007825032230
         H           -2.807346920068    -1.292570512968    -0.901753211442     1.007825032230
         H           -3.080240720068     0.234370987032     0.006707688558     1.007825032230
         H            1.022753279932     1.923359987032     0.007842688558     1.007825032230
         H            1.765212279932    -2.222060012968     0.007438688558     1.007825032230

  Basis Set: AUG-CC-PVTZ
    Blend: AUG-CC-PVTZ
  Basis Set: (AUG-CC-PVTZ AUX)
    Blend: AUG-CC-PVTZ-JKFIT
	 Reference Energy          =    -451.6559867965685271 [Eh]
	 Singles Energy            =      -0.0000000000000000 [Eh]
	 Same-Spin Energy          =      -0.4586264010254614 [Eh]
	 Opposite-Spin Energy      =      -1.3855733186930412 [Eh]
	 Correlation Energy        =      -1.8441997197185027 [Eh]
	 Total Energy              =    -453.5001865162870445 [Eh]

	 ================> DF-SCS-MP2 Energies <==================
	-----------------------------------------------------------
	 SCS Same-Spin Scale       =       0.3333333333333333 [-]
	 SCS Opposite-Spin Scale   =       1.2000000000000000 [-]
	 SCS Same-Spin Energy      =      -0.1528754670084871 [Eh]
	 SCS Opposite-Spin Energy  =      -1.6626879824316494 [Eh]
	 SCS Correlation Energy    =      -1.8155634494401365 [Eh]
	 SCS Total Energy          =    -453.4715502460086896 [Eh]
	-----------------------------------------------------------

  Dipole Moment: [D]
     X:    -3.3889      Y:    -3.3188      Z:     0.0495     Total:     4.7436

*** Psi4 exiting successfully. Buy a developer a beer!
