                               Psi4 1.3.2 release

  ==> Input File <==

--------------------------------------------------------------------------
#psi4
#
memory 32 gb

molecule  {
0 1
  O       -1.3945310     1.8555980     0.0000210
  O        2.9082060     0.2751580    -0.0000600
  N       -1.0709210    -0.4253435     0.0001994
  N        0.7349370     0.9985730     0.0002800
  C       -0.6489740     0.8800530    -0.0003070
  C       -0.2041810    -1.5011250     0.0000420
  C       -2.5282030    -0.6963170    -0.0000730
  C        1.1361610    -1.3199972     0.0000775
  C        1.7104040    -0.0052910    -0.0002190
  H       -0.6762750    -2.4793460     0.0001770
  H       -2.8113470    -1.2573270     0.8936330
  H       -2.8107340    -1.2584070    -0.8933430
  H       -3.0286960     0.2691590    -0.0008180
  H        1.0742980     1.9581480     0.0003170
  H        1.8167570    -2.1872720    -0.0000870
units angstrom
no_reorient  #important for SAPT in psi4, default
symmetry c1  #important for SAPT in psi4, default
}

set PROPERTIES_ORIGIN ["COM"]
properties('MP2/aug-cc-pvtz', properties = ['dipole'])
--------------------------------------------------------------------------

    Molecular point group: c1
  Charge       = 0
  Multiplicity = 1
  Basis Set: AUG-CC-PVTZ
    Blend: AUG-CC-PVTZ
  Basis Set: (AUG-CC-PVTZ AUX)
    Blend: AUG-CC-PVTZ-JKFIT

    Orbital Energies [Eh]
    ---------------------

    Doubly Occupied:

       1A    -20.542593     2A    -20.537531     3A    -15.644723
       4A    -15.624249     5A    -11.415540     6A    -11.377803
       7A    -11.338824     8A    -11.292422     9A    -11.256399
      10A     -1.428675    11A     -1.387370    12A     -1.313175
      13A     -1.243550    14A     -1.092651    15A     -0.991185
      16A     -0.935727    17A     -0.870957    18A     -0.773637
      19A     -0.750800    20A     -0.702489    21A     -0.685830
      22A     -0.654192    23A     -0.643123    24A     -0.614461
      25A     -0.607650    26A     -0.600011    27A     -0.570543
      28A     -0.555039    29A     -0.500238    30A     -0.479621
      31A     -0.445796    32A     -0.431815    33A     -0.361606

  @DF-RHF Final Energy:  -451.65886741808276

   => Energetics <=

    Nuclear Repulsion Energy =            441.9013090977999241
    One-Electron Energy =               -1491.7798993258254541
    Two-Electron Energy =                 598.2197228099428230
    Total Energy =                       -451.6588674180827638
  Basis Set: (AUG-CC-PVTZ AUX)
    Blend: AUG-CC-PVTZ-RI
    Molecular point group: c1

    Geometry (in Angstrom), charge = 0, multiplicity = 1:

       Center              X                  Y                   Z               Mass
    ------------   -----------------  -----------------  -----------------  -----------------
         O           -1.446913301971     1.812737280022     0.000019307520    15.994914619570
         O            2.855823698029     0.232297280022    -0.000061692480    15.994914619570
         N           -1.123303301971    -0.468204219978     0.000197707520    14.003074004430
         N            0.682554698029     0.955712280022     0.000278307520    14.003074004430
         C           -0.701356301971     0.837192280022    -0.000308692480    12.000000000000
         C           -0.256563301971    -1.543985719978     0.000040307520    12.000000000000
         C           -2.580585301971    -0.739177719978    -0.000074692480    12.000000000000
         C            1.083778698029    -1.362857919978     0.000075807520    12.000000000000
         C            1.658021698029    -0.048151719978    -0.000220692480    12.000000000000
         H           -0.728657301971    -2.522206719978     0.000175307520     1.007825032230
         H           -2.863729301971    -1.300187719978     0.893631307520     1.007825032230
         H           -2.863116301971    -1.301267719978    -0.893344692480     1.007825032230
         H           -3.081078301971     0.226298280022    -0.000819692480     1.007825032230
         H            1.021915698029     1.915287280022     0.000315307520     1.007825032230
         H            1.764374698029    -2.230132719978    -0.000088692480     1.007825032230

  Basis Set: AUG-CC-PVTZ
    Blend: AUG-CC-PVTZ
  Basis Set: (AUG-CC-PVTZ AUX)
    Blend: AUG-CC-PVTZ-JKFIT
	 Reference Energy          =    -451.6588674180827638 [Eh]
	 Singles Energy            =      -0.0000000000000000 [Eh]
	 Same-Spin Energy          =      -0.4583162367742519 [Eh]
	 Opposite-Spin Energy      =      -1.3850401157399554 [Eh]
	 Correlation Energy        =      -1.8433563525142074 [Eh]
	 Total Energy              =    -453.5022237705969701 [Eh]

	 ================> DF-SCS-MP2 Energies <==================
	-----------------------------------------------------------
	 SCS Same-Spin Scale       =       0.3333333333333333 [-]
	 SCS Opposite-Spin Scale   =       1.2000000000000000 [-]
	 SCS Same-Spin Energy      =      -0.1527720789247506 [Eh]
	 SCS Opposite-Spin Energy  =      -1.6620481388879464 [Eh]
	 SCS Correlation Energy    =      -1.8148202178126971 [Eh]
	 SCS Total Energy          =    -453.4736876358954873 [Eh]
	-----------------------------------------------------------

  Dipole Moment: [D]
     X:    -3.3093      Y:    -3.6827      Z:    -0.0009     Total:     4.9511

*** Psi4 exiting successfully. Buy a developer a beer!
