                               Psi4 1.3.2 release

  ==> Input File <==

--------------------------------------------------------------------------
#psi4
#
memory 32 gb

molecule  {
0 1
  O       -1.3945310     1.8555980     0.0000210
  O        2.9082060     0.2751580    -0.0000600
  N       -1.0895640    -0.4406340     0.0001970
  N        0.7349370     0.9985730     0.0002800
  C       -0.6408745     0.8077871    -0.0003648
  C       -0.2041810    -1.5011250     0.0000420
  C       -2.5282030    -0.6963170    -0.0000730
  C        1.1391180    -1.3434170     0.0000740
  C        1.6565290    -0.0549672    -0.0002797
  H       -0.6762750    -2.4793460     0.0001770
  H       -2.8113470    -1.2573270     0.8936330
  H       -2.8107340    -1.2584070    -0.8933430
  H       -3.0286960     0.2691590    -0.0008180
  H        1.0742980     1.9581480     0.0003170
  H        1.8167570    -2.1872720    -0.0000870
units angstrom
no_reorient  #important for SAPT in psi4, default
symmetry c1  #important for SAPT in psi4, default
}

set PROPERTIES_ORIGIN ["COM"]
properties('MP2/aug-cc-pvtz', properties = ['dipole'])
--------------------------------------------------------------------------

    Molecular point group: c1
  Charge       = 0
  Multiplicity = 1
  Basis Set: AUG-CC-PVTZ
    Blend: AUG-CC-PVTZ
  Basis Set: (AUG-CC-PVTZ AUX)
    Blend: AUG-CC-PVTZ-JKFIT

    Orbital Energies [Eh]
    ---------------------

    Doubly Occupied:

       1A    -20.529948     2A    -20.528038     3A    -15.661423
       4A    -15.633424     5A    -11.416592     6A    -11.379876
       7A    -11.352131     8A    -11.299324     9A    -11.264879
      10A     -1.418367    11A     -1.348806    12A     -1.309137
      13A     -1.239740    14A     -1.112425    15A     -1.007940
      16A     -0.955579    17A     -0.869251    18A     -0.787555
      19A     -0.766807    20A     -0.708951    21A     -0.697813
      22A     -0.650742    23A     -0.639412    24A     -0.614470
      25A     -0.613078    26A     -0.589342    27A     -0.576731
      28A     -0.538033    29A     -0.501761    30A     -0.465216
      31A     -0.435865    32A     -0.418883    33A     -0.370636

  @DF-RHF Final Energy:  -451.63448076409043

   => Energetics <=

    Nuclear Repulsion Energy =            441.9290981125365079
    One-Electron Energy =               -1491.7228098719583613
    Two-Electron Energy =                 598.1592309953315407
    Total Energy =                       -451.6344807640904264
  Basis Set: (AUG-CC-PVTZ AUX)
    Blend: AUG-CC-PVTZ-RI
    Molecular point group: c1

    Geometry (in Angstrom), charge = 0, multiplicity = 1:

       Center              X                  Y                   Z               Mass
    ------------   -----------------  -----------------  -----------------  -----------------
         O           -1.440765544819     1.828275294274     0.000031189244    15.994914619570
         O            2.861971455181     0.247835294274    -0.000049810756    15.994914619570
         N           -1.135798544819    -0.467956705726     0.000207189244    14.003074004430
         N            0.688702455181     0.971250294274     0.000290189244    14.003074004430
         C           -0.687109044819     0.780464394274    -0.000354610756    12.000000000000
         C           -0.250415544819    -1.528447705726     0.000052189244    12.000000000000
         C           -2.574437544819    -0.723639705726    -0.000062810756    12.000000000000
         C            1.092883455181    -1.370739705726     0.000084189244    12.000000000000
         C            1.610294455181    -0.082289905726    -0.000269510756    12.000000000000
         H           -0.722509544819    -2.506668705726     0.000187189244     1.007825032230
         H           -2.857581544819    -1.284649705726     0.893643189244     1.007825032230
         H           -2.856968544819    -1.285729705726    -0.893332810756     1.007825032230
         H           -3.074930544819     0.241836294274    -0.000807810756     1.007825032230
         H            1.028063455181     1.930825294274     0.000327189244     1.007825032230
         H            1.770522455181    -2.214594705726    -0.000076810756     1.007825032230

  Basis Set: AUG-CC-PVTZ
    Blend: AUG-CC-PVTZ
  Basis Set: (AUG-CC-PVTZ AUX)
    Blend: AUG-CC-PVTZ-JKFIT
	 Reference Energy          =    -451.6344807640904264 [Eh]
	 Singles Energy            =      -0.0000000000000000 [Eh]
	 Same-Spin Energy          =      -0.4609974295414047 [Eh]
	 Opposite-Spin Energy      =      -1.3900415329883087 [Eh]
	 Correlation Energy        =      -1.8510389625297134 [Eh]
	 Total Energy              =    -453.4855197266201117 [Eh]

	 ================> DF-SCS-MP2 Energies <==================
	-----------------------------------------------------------
	 SCS Same-Spin Scale       =       0.3333333333333333 [-]
	 SCS Opposite-Spin Scale   =       1.2000000000000000 [-]
	 SCS Same-Spin Energy      =      -0.1536658098471349 [Eh]
	 SCS Opposite-Spin Energy  =      -1.6680498395859704 [Eh]
	 SCS Correlation Energy    =      -1.8217156494331053 [Eh]
	 SCS Total Energy          =    -453.4561964135235144 [Eh]
	-----------------------------------------------------------

  Dipole Moment: [D]
     X:    -3.5342      Y:    -4.4143      Z:    -0.0008     Total:     5.6548

*** Psi4 exiting successfully. Buy a developer a beer!
