                               Psi4 1.3.2 release

  ==> Input File <==

--------------------------------------------------------------------------
#psi4
#
memory 32 gb

molecule  {
0 1
  O       -1.3945310     1.8555980     0.0000210
  O        2.9082060     0.2751580    -0.0000600
  N       -1.0895640    -0.4406340     0.0001970
  N        0.7349370     0.9985730     0.0002800
  C       -0.6489740     0.8800530    -0.0003070
  C       -0.2417310    -1.5313784     0.0000287
  C       -2.5184034    -0.7463690    -0.0000848
  C        1.1391180    -1.3434170     0.0000740
  C        1.7104040    -0.0052910    -0.0002190
  H       -0.6762750    -2.4793460     0.0001770
  H       -2.8113470    -1.2573270     0.8936330
  H       -2.8107340    -1.2584070    -0.8933430
  H       -3.0286960     0.2691590    -0.0008180
  H        1.0742980     1.9581480     0.0003170
  H        1.8167570    -2.1872720    -0.0000870
units angstrom
no_reorient  #important for SAPT in psi4, default
symmetry c1  #important for SAPT in psi4, default
}

set PROPERTIES_ORIGIN ["COM"]
properties('MP2/aug-cc-pvtz', properties = ['dipole'])
--------------------------------------------------------------------------

    Molecular point group: c1
  Charge       = 0
  Multiplicity = 1
  Basis Set: AUG-CC-PVTZ
    Blend: AUG-CC-PVTZ
  Basis Set: (AUG-CC-PVTZ AUX)
    Blend: AUG-CC-PVTZ-JKFIT

    Orbital Energies [Eh]
    ---------------------

    Doubly Occupied:

       1A    -20.546670     2A    -20.537802     3A    -15.646332
       4A    -15.627131     5A    -11.421037     6A    -11.379566
       7A    -11.340141     8A    -11.289509     9A    -11.259458
      10A     -1.428632    11A     -1.387485    12A     -1.313109
      13A     -1.246343    14A     -1.081591    15A     -0.990693
      16A     -0.936415    17A     -0.870809    18A     -0.770735
      19A     -0.752955    20A     -0.709840    21A     -0.689152
      22A     -0.658364    23A     -0.643566    24A     -0.621544
      25A     -0.607185    26A     -0.601293    27A     -0.556939
      28A     -0.555489    29A     -0.499695    30A     -0.481308
      31A     -0.445785    32A     -0.433105    33A     -0.354976

  @DF-RHF Final Energy:  -451.65130505443636

   => Energetics <=

    Nuclear Repulsion Energy =            440.3764248308196443
    One-Electron Energy =               -1488.6861508434692496
    Two-Electron Energy =                 596.6584209582133553
    Total Energy =                       -451.6513050544363068
  Basis Set: (AUG-CC-PVTZ AUX)
    Blend: AUG-CC-PVTZ-RI
    Molecular point group: c1

    Geometry (in Angstrom), charge = 0, multiplicity = 1:

       Center              X                  Y                   Z               Mass
    ------------   -----------------  -----------------  -----------------  -----------------
         O           -1.442481636347     1.824311244802     0.000022297036    15.994914619570
         O            2.860255363653     0.243871244802    -0.000058702964    15.994914619570
         N           -1.137514636347    -0.471920755198     0.000198297036    14.003074004430
         N            0.686986363653     0.967286244802     0.000281297036    14.003074004430
         C           -0.696924636347     0.848766244802    -0.000305702964    12.000000000000
         C           -0.289681636347    -1.562665155198     0.000029997036    12.000000000000
         C           -2.566354036347    -0.777655755198    -0.000083502964    12.000000000000
         C            1.091167363653    -1.374703755198     0.000075297036    12.000000000000
         C            1.662453363653    -0.036577755198    -0.000217702964    12.000000000000
         H           -0.724225636347    -2.510632755198     0.000178297036     1.007825032230
         H           -2.859297636347    -1.288613755198     0.893634297036     1.007825032230
         H           -2.858684636347    -1.289693755198    -0.893341702964     1.007825032230
         H           -3.076646636347     0.237872244802    -0.000816702964     1.007825032230
         H            1.026347363653     1.926861244802     0.000318297036     1.007825032230
         H            1.768806363653    -2.218558755198    -0.000085702964     1.007825032230

  Basis Set: AUG-CC-PVTZ
    Blend: AUG-CC-PVTZ
  Basis Set: (AUG-CC-PVTZ AUX)
    Blend: AUG-CC-PVTZ-JKFIT
	 Reference Energy          =    -451.6513050544363637 [Eh]
	 Singles Energy            =      -0.0000000000000000 [Eh]
	 Same-Spin Energy          =      -0.4588192625221152 [Eh]
	 Opposite-Spin Energy      =      -1.3864804249198213 [Eh]
	 Correlation Energy        =      -1.8452996874419365 [Eh]
	 Total Energy              =    -453.4966047418782864 [Eh]

	 ================> DF-SCS-MP2 Energies <==================
	-----------------------------------------------------------
	 SCS Same-Spin Scale       =       0.3333333333333333 [-]
	 SCS Opposite-Spin Scale   =       1.2000000000000000 [-]
	 SCS Same-Spin Energy      =      -0.1529397541740384 [Eh]
	 SCS Opposite-Spin Energy  =      -1.6637765099037856 [Eh]
	 SCS Correlation Energy    =      -1.8167162640778241 [Eh]
	 SCS Total Energy          =    -453.4680213185141611 [Eh]
	-----------------------------------------------------------

  Dipole Moment: [D]
     X:    -3.2838      Y:    -3.5485      Z:    -0.0009     Total:     4.8348

*** Psi4 exiting successfully. Buy a developer a beer!
