                               Psi4 1.3.2 release

  ==> Input File <==

--------------------------------------------------------------------------
#psi4
#
memory 32 gb

molecule  {
0 1
  O       -1.3945310     1.8555980     0.0000210
  O        2.9082060     0.2751580    -0.0000600
  N       -1.0895640    -0.4406340     0.0001970
  N        0.7349370     0.9985730     0.0002800
  C       -0.6489740     0.8800530    -0.0003070
  C       -0.2055061    -1.4893966     0.0000391
  C       -2.5282030    -0.6963170    -0.0000730
  C        1.1391180    -1.3434170     0.0000740
  C        1.6987050    -0.0003566    -0.0002208
  H       -0.6762750    -2.4793460     0.0001770
  H       -2.8113470    -1.2573270     0.8936330
  H       -2.8107340    -1.2584070    -0.8933430
  H       -3.0286960     0.2691590    -0.0008180
  H        1.0742980     1.9581480     0.0003170
  H        1.8167570    -2.1872720    -0.0000870
units angstrom
no_reorient  #important for SAPT in psi4, default
symmetry c1  #important for SAPT in psi4, default
}

set PROPERTIES_ORIGIN ["COM"]
properties('MP2/aug-cc-pvtz', properties = ['dipole'])
--------------------------------------------------------------------------

    Molecular point group: c1
  Charge       = 0
  Multiplicity = 1
  Basis Set: AUG-CC-PVTZ
    Blend: AUG-CC-PVTZ
  Basis Set: (AUG-CC-PVTZ AUX)
    Blend: AUG-CC-PVTZ-JKFIT

    Orbital Energies [Eh]
    ---------------------

    Doubly Occupied:

       1A    -20.547320     2A    -20.535423     3A    -15.646189
       4A    -15.628854     5A    -11.420245     6A    -11.378731
       7A    -11.337012     8A    -11.291355     9A    -11.255531
      10A     -1.430343    11A     -1.381735    12A     -1.315580
      13A     -1.248718    14A     -1.091318    15A     -0.991738
      16A     -0.931386    17A     -0.875612    18A     -0.773953
      19A     -0.753278    20A     -0.698252    21A     -0.687532
      22A     -0.658674    23A     -0.642849    24A     -0.616088
      25A     -0.611323    26A     -0.598304    27A     -0.573809
      28A     -0.552479    29A     -0.501756    30A     -0.480142
      31A     -0.444435    32A     -0.432707    33A     -0.359979

  @DF-RHF Final Energy:  -451.65964422653065

   => Energetics <=

    Nuclear Repulsion Energy =            441.5020185354123328
    One-Electron Energy =               -1490.9380188384498069
    Two-Electron Energy =                 597.7763560765067723
    Total Energy =                       -451.6596442265306450
  Basis Set: (AUG-CC-PVTZ AUX)
    Blend: AUG-CC-PVTZ-RI
    Molecular point group: c1

    Geometry (in Angstrom), charge = 0, multiplicity = 1:

       Center              X                  Y                   Z               Mass
    ------------   -----------------  -----------------  -----------------  -----------------
         O           -1.443883663447     1.815079323396     0.000020354840    15.994914619570
         O            2.858853336553     0.234639323396    -0.000060645160    15.994914619570
         N           -1.138916663447    -0.481152676604     0.000196354840    14.003074004430
         N            0.685584336553     0.958054323396     0.000279354840    14.003074004430
         C           -0.698326663447     0.839534323396    -0.000307645160    12.000000000000
         C           -0.254858763447    -1.529915276604     0.000038454840    12.000000000000
         C           -2.577555663447    -0.736835676604    -0.000073645160    12.000000000000
         C            1.089765336553    -1.383935676604     0.000073354840    12.000000000000
         C            1.649352336553    -0.040875276604    -0.000221445160    12.000000000000
         H           -0.725627663447    -2.519864676604     0.000176354840     1.007825032230
         H           -2.860699663447    -1.297845676604     0.893632354840     1.007825032230
         H           -2.860086663447    -1.298925676604    -0.893343645160     1.007825032230
         H           -3.078048663447     0.228640323396    -0.000818645160     1.007825032230
         H            1.024945336553     1.917629323396     0.000316354840     1.007825032230
         H            1.767404336553    -2.227790676604    -0.000087645160     1.007825032230

  Basis Set: AUG-CC-PVTZ
    Blend: AUG-CC-PVTZ
  Basis Set: (AUG-CC-PVTZ AUX)
    Blend: AUG-CC-PVTZ-JKFIT
	 Reference Energy          =    -451.6596442265306450 [Eh]
	 Singles Energy            =      -0.0000000000000000 [Eh]
	 Same-Spin Energy          =      -0.4583151999307556 [Eh]
	 Opposite-Spin Energy      =      -1.3850888048757954 [Eh]
	 Correlation Energy        =      -1.8434040048065510 [Eh]
	 Total Energy              =    -453.5030482313371749 [Eh]

	 ================> DF-SCS-MP2 Energies <==================
	-----------------------------------------------------------
	 SCS Same-Spin Scale       =       0.3333333333333333 [-]
	 SCS Opposite-Spin Scale   =       1.2000000000000000 [-]
	 SCS Same-Spin Energy      =      -0.1527717333102518 [Eh]
	 SCS Opposite-Spin Energy  =      -1.6621065658509544 [Eh]
	 SCS Correlation Energy    =      -1.8148782991612062 [Eh]
	 SCS Total Energy          =    -453.4745225256918388 [Eh]
	-----------------------------------------------------------

  Dipole Moment: [D]
     X:    -3.3883      Y:    -3.4916      Z:    -0.0008     Total:     4.8654

*** Psi4 exiting successfully. Buy a developer a beer!
