                               Psi4 1.3.2 release

  ==> Input File <==

--------------------------------------------------------------------------
#psi4
#
memory 32 gb

molecule  {
0 1
  O       -1.3945310     1.8555980     0.0000210
  O        2.9082060     0.2751580    -0.0000600
  N       -1.0328488    -0.3957500     0.0002041
  N        0.7349370     0.9985730     0.0002800
  C       -0.6489740     0.8800530    -0.0003070
  C       -0.2041810    -1.5011250     0.0000420
  C       -2.5282030    -0.6963170    -0.0000730
  C        1.1290233    -1.2733303     0.0000845
  C        1.7104040    -0.0052910    -0.0002190
  H       -0.6762750    -2.4793460     0.0001770
  H       -2.8113470    -1.2573270     0.8936330
  H       -2.8107340    -1.2584070    -0.8933430
  H       -3.0286960     0.2691590    -0.0008180
  H        1.0742980     1.9581480     0.0003170
  H        1.8167570    -2.1872720    -0.0000870
units angstrom
no_reorient  #important for SAPT in psi4, default
symmetry c1  #important for SAPT in psi4, default
}

set PROPERTIES_ORIGIN ["COM"]
properties('MP2/aug-cc-pvtz', properties = ['dipole'])
--------------------------------------------------------------------------

    Molecular point group: c1
  Charge       = 0
  Multiplicity = 1
  Basis Set: AUG-CC-PVTZ
    Blend: AUG-CC-PVTZ
  Basis Set: (AUG-CC-PVTZ AUX)
    Blend: AUG-CC-PVTZ-JKFIT

    Orbital Energies [Eh]
    ---------------------

    Doubly Occupied:

       1A    -20.536825     2A    -20.534947     3A    -15.645193
       4A    -15.619573     5A    -11.409333     6A    -11.373466
       7A    -11.342886     8A    -11.297341     9A    -11.257333
      10A     -1.430079    11A     -1.385851    12A     -1.315555
      13A     -1.239552    14A     -1.096984    15A     -0.994167
      16A     -0.946134    17A     -0.868303    18A     -0.777484
      19A     -0.747691    20A     -0.708960    21A     -0.687813
      22A     -0.648240    23A     -0.640658    24A     -0.614088
      25A     -0.604834    26A     -0.597315    27A     -0.559815
      28A     -0.557179    29A     -0.501302    30A     -0.478568
      31A     -0.444472    32A     -0.429295    33A     -0.363544

  @DF-RHF Final Energy:  -451.64596407108297

   => Energetics <=

    Nuclear Repulsion Energy =            443.4097874705776690
    One-Electron Energy =               -1494.8019403620728554
    Two-Electron Energy =                 599.7461888204122715
    Total Energy =                       -451.6459640710829717
  Basis Set: (AUG-CC-PVTZ AUX)
    Blend: AUG-CC-PVTZ-RI
    Molecular point group: c1

    Geometry (in Angstrom), charge = 0, multiplicity = 1:

       Center              X                  Y                   Z               Mass
    ------------   -----------------  -----------------  -----------------  -----------------
         O           -1.450463484779     1.805006558510     0.000018118921    15.994914619570
         O            2.852273515221     0.224566558510    -0.000062881079    15.994914619570
         N           -1.088781284779    -0.446341441490     0.000201218921    14.003074004430
         N            0.679004515221     0.947981558510     0.000277118921    14.003074004430
         C           -0.704906484779     0.829461558510    -0.000309881079    12.000000000000
         C           -0.260113484779    -1.551716441490     0.000039118921    12.000000000000
         C           -2.584135484779    -0.746908441490    -0.000075881079    12.000000000000
         C            1.073090815221    -1.323921741490     0.000081618921    12.000000000000
         C            1.654471515221    -0.055882441490    -0.000221881079    12.000000000000
         H           -0.732207484779    -2.529937441490     0.000174118921     1.007825032230
         H           -2.867279484779    -1.307918441490     0.893630118921     1.007825032230
         H           -2.866666484779    -1.308998441490    -0.893345881079     1.007825032230
         H           -3.084628484779     0.218567558510    -0.000820881079     1.007825032230
         H            1.018365515221     1.907556558510     0.000314118921     1.007825032230
         H            1.760824515221    -2.237863441490    -0.000089881079     1.007825032230

  Basis Set: AUG-CC-PVTZ
    Blend: AUG-CC-PVTZ
  Basis Set: (AUG-CC-PVTZ AUX)
    Blend: AUG-CC-PVTZ-JKFIT
	 Reference Energy          =    -451.6459640710829717 [Eh]
	 Singles Energy            =      -0.0000000000000000 [Eh]
	 Same-Spin Energy          =      -0.4591848623893584 [Eh]
	 Opposite-Spin Energy      =      -1.3861928424498926 [Eh]
	 Correlation Energy        =      -1.8453777048392510 [Eh]
	 Total Energy              =    -453.4913417759222511 [Eh]

	 ================> DF-SCS-MP2 Energies <==================
	-----------------------------------------------------------
	 SCS Same-Spin Scale       =       0.3333333333333333 [-]
	 SCS Opposite-Spin Scale   =       1.2000000000000000 [-]
	 SCS Same-Spin Energy      =      -0.1530616207964528 [Eh]
	 SCS Opposite-Spin Energy  =      -1.6634314109398711 [Eh]
	 SCS Correlation Energy    =      -1.8164930317363239 [Eh]
	 SCS Total Energy          =    -453.4624571028193145 [Eh]
	-----------------------------------------------------------

  Dipole Moment: [D]
     X:    -3.4588      Y:    -3.9570      Z:    -0.0008     Total:     5.2556

*** Psi4 exiting successfully. Buy a developer a beer!
