                               Psi4 1.3.2 release

  ==> Input File <==

--------------------------------------------------------------------------
#psi4
#
memory 32 gb

molecule  {
0 1
  O       -1.3945310     1.8555980     0.0000210
  O        2.9082060     0.2751580    -0.0000600
  N       -1.0895640    -0.4406340     0.0001970
  N        0.7349370     0.9985730     0.0002800
  C       -0.6489740     0.8800530    -0.0003070
  C       -0.2041810    -1.5011250     0.0000420
  C       -2.5282030    -0.6963170    -0.0000730
  C        1.1391180    -1.3434170     0.0000740
  C        1.7104040    -0.0052910    -0.0002190
  H       -0.6762750    -2.4793460     0.0001770
  H       -2.8113470    -1.2573270     0.8936330
  H       -2.8107340    -1.2584070    -0.8933430
  H       -3.0286960     0.2691590    -0.0008180
  H        1.0742980     1.9581480     0.0003170
  H        1.6915303    -2.0313288    -0.0000572
units angstrom
no_reorient  #important for SAPT in psi4, default
symmetry c1  #important for SAPT in psi4, default
}

set PROPERTIES_ORIGIN ["COM"]
properties('MP2/aug-cc-pvtz', properties = ['dipole'])
--------------------------------------------------------------------------

    Molecular point group: c1
  Charge       = 0
  Multiplicity = 1
  Basis Set: AUG-CC-PVTZ
    Blend: AUG-CC-PVTZ
  Basis Set: (AUG-CC-PVTZ AUX)
    Blend: AUG-CC-PVTZ-JKFIT

    Orbital Energies [Eh]
    ---------------------

    Doubly Occupied:

       1A    -20.545473     2A    -20.538822     3A    -15.644451
       4A    -15.625791     5A    -11.418435     6A    -11.378803
       7A    -11.337294     8A    -11.289985     9A    -11.234168
      10A     -1.428233    11A     -1.388199    12A     -1.312260
      13A     -1.245216    14A     -1.100790    15A     -0.990996
      16A     -0.934942    17A     -0.879735    18A     -0.782786
      19A     -0.762675    20A     -0.700087    21A     -0.685081
      22A     -0.668932    23A     -0.646366    24A     -0.628936
      25A     -0.614755    26A     -0.602055    27A     -0.577373
      28A     -0.554154    29A     -0.499368    30A     -0.479884
      31A     -0.445799    32A     -0.432827    33A     -0.361094

  @DF-RHF Final Energy:  -451.62446797232747

   => Energetics <=

    Nuclear Repulsion Energy =            442.3876927744005911
    One-Electron Energy =               -1492.5527958910156485
    Two-Electron Energy =                 598.5406351442875348
    Total Energy =                       -451.6244679723274658
  Basis Set: (AUG-CC-PVTZ AUX)
    Blend: AUG-CC-PVTZ-RI
    Molecular point group: c1

    Geometry (in Angstrom), charge = 0, multiplicity = 1:

       Center              X                  Y                   Z               Mass
    ------------   -----------------  -----------------  -----------------  -----------------
         O           -1.444122332904     1.815418812015     0.000019669096    15.994914619570
         O            2.858614667096     0.234978812015    -0.000061330904    15.994914619570
         N           -1.139155332904    -0.480813187985     0.000195669096    14.003074004430
         N            0.685345667096     0.958393812015     0.000278669096    14.003074004430
         C           -0.698565332904     0.839873812015    -0.000308330904    12.000000000000
         C           -0.253772332904    -1.541304187985     0.000040669096    12.000000000000
         C           -2.577794332904    -0.736496187985    -0.000074330904    12.000000000000
         C            1.089526667096    -1.383596187985     0.000072669096    12.000000000000
         C            1.660812667096    -0.045470187985    -0.000220330904    12.000000000000
         H           -0.725866332904    -2.519525187985     0.000175669096     1.007825032230
         H           -2.860938332904    -1.297506187985     0.893631669096     1.007825032230
         H           -2.860325332904    -1.298586187985    -0.893344330904     1.007825032230
         H           -3.078287332904     0.228979812015    -0.000819330904     1.007825032230
         H            1.024706667096     1.917968812015     0.000315669096     1.007825032230
         H            1.641938967096    -2.071507987985    -0.000058530904     1.007825032230

  Basis Set: AUG-CC-PVTZ
    Blend: AUG-CC-PVTZ
  Basis Set: (AUG-CC-PVTZ AUX)
    Blend: AUG-CC-PVTZ-JKFIT
	 Reference Energy          =    -451.6244679723274658 [Eh]
	 Singles Energy            =      -0.0000000000000000 [Eh]
	 Same-Spin Energy          =      -0.4578387912158767 [Eh]
	 Opposite-Spin Energy      =      -1.3844669061254440 [Eh]
	 Correlation Energy        =      -1.8423056973413208 [Eh]
	 Total Energy              =    -453.4667736696687825 [Eh]

	 ================> DF-SCS-MP2 Energies <==================
	-----------------------------------------------------------
	 SCS Same-Spin Scale       =       0.3333333333333333 [-]
	 SCS Opposite-Spin Scale   =       1.2000000000000000 [-]
	 SCS Same-Spin Energy      =      -0.1526129304052922 [Eh]
	 SCS Opposite-Spin Energy  =      -1.6613602873505326 [Eh]
	 SCS Correlation Energy    =      -1.8139732177558248 [Eh]
	 SCS Total Energy          =    -453.4384411900832674 [Eh]
	-----------------------------------------------------------

  Dipole Moment: [D]
     X:    -3.2897      Y:    -3.5164      Z:    -0.0009     Total:     4.8153

*** Psi4 exiting successfully. Buy a developer a beer!
