                               Psi4 1.4a3.dev225

  ==> Input File <==

--------------------------------------------------------------------------
#psi4
#
memory 32 gb

molecule  {
0 1
  O       -1.4350980    -1.8086910     0.0000000
  O        2.9075840    -0.3082450     0.0000000
  N       -1.0785060     0.4619330     0.0000000
  N        0.7249750    -1.0056720    -0.0000010
  C       -0.6517050    -0.8641080     0.0000000
  C       -0.1841290     1.5083600     0.0000000
  C       -2.5245930     0.6731660     0.0000000
  C        1.1582900     1.3329580     0.0000000
  C        1.6680032     0.0040678     0.0000000
  H       -0.6338540     2.4967290    -0.0000010
  H       -2.9690000     0.2175100    -0.8862740
  H       -2.7140630     1.7465080     0.0000000
  H       -2.9689990     0.2175090     0.8862740
  H        1.0585810    -1.9665760     0.0000000
  H        1.8360540     2.1766110     0.0000000
units angstrom
no_reorient  #important for SAPT in psi4, default
symmetry c1  #important for SAPT in psi4, default
}

set PROPERTIES_ORIGIN ["COM"]
properties('MP2/aug-cc-pvtz', properties = ['dipole'])
--------------------------------------------------------------------------

    Molecular point group: c1
  Charge       = 0
  Multiplicity = 1
  Basis Set: AUG-CC-PVTZ
    Blend: AUG-CC-PVTZ
  Basis Set: (AUG-CC-PVTZ AUX)
    Blend: AUG-CC-PVTZ-JKFIT

    Orbital Energies [Eh]
    ---------------------

    Doubly Occupied:

       1A    -20.549588     2A    -20.527062     3A    -15.649910
       4A    -15.633025     5A    -11.419532     6A    -11.378344
       7A    -11.342641     8A    -11.295779     9A    -11.254758
      10A     -1.432716    11A     -1.362207    12A     -1.313923
      13A     -1.248337    14A     -1.098632    15A     -0.992890
      16A     -0.938178    17A     -0.877825    18A     -0.778034
      19A     -0.757932    20A     -0.704366    21A     -0.690227
      22A     -0.659665    23A     -0.639049    24A     -0.612058
      25A     -0.611716    26A     -0.589979    27A     -0.582416
      28A     -0.543570    29A     -0.506103    30A     -0.481059
      31A     -0.439477    32A     -0.428556    33A     -0.360092

  @DF-RHF Final Energy:  -451.65377137380085

   => Energetics <=

    Nuclear Repulsion Energy =            441.9161355790498646
    One-Electron Energy =               -1491.7405224880233163
    Two-Electron Energy =                 598.1706155351724874
    Total Energy =                       -451.6537713738008506
  Basis Set: (AUG-CC-PVTZ AUX)
    Blend: AUG-CC-PVTZ-RI
    Molecular point group: c1

    Geometry (in Angstrom), charge = 0, multiplicity = 1:

       Center              X                  Y                   Z               Mass
    ------------   -----------------  -----------------  -----------------  -----------------
         O           -1.480724268999    -1.771446860310     0.000000119094    15.994914619570
         O            2.861957731001    -0.271000860310     0.000000119094    15.994914619570
         N           -1.124132268999     0.499177139690     0.000000119094    14.003074004430
         N            0.679348731001    -0.968427860310    -0.000000880906    14.003074004430
         C           -0.697331268999    -0.826863860310     0.000000119094    12.000000000000
         C           -0.229755268999     1.545604139690     0.000000119094    12.000000000000
         C           -2.570219268999     0.710410139690     0.000000119094    12.000000000000
         C            1.112663731001     1.370202139690     0.000000119094    12.000000000000
         C            1.622376931001     0.041311939690     0.000000119094    12.000000000000
         H           -0.679480268999     2.533973139690    -0.000000880906     1.007825032230
         H           -3.014626268999     0.254754139690    -0.886273880906     1.007825032230
         H           -2.759689268999     1.783752139690     0.000000119094     1.007825032230
         H           -3.014625268999     0.254753139690     0.886274119094     1.007825032230
         H            1.012954731001    -1.929331860310     0.000000119094     1.007825032230
         H            1.790427731001     2.213855139690     0.000000119094     1.007825032230

  Basis Set: AUG-CC-PVTZ
    Blend: AUG-CC-PVTZ
  Basis Set: (AUG-CC-PVTZ AUX)
    Blend: AUG-CC-PVTZ-JKFIT
	 Reference Energy          =    -451.6537713738008506 [Eh]
	 Singles Energy            =      -0.0000000000000000 [Eh]
	 Same-Spin Energy          =      -0.4593189224759657 [Eh]
	 Opposite-Spin Energy      =      -1.3867841019010867 [Eh]
	 Correlation Energy        =      -1.8461030243770524 [Eh]
	 Total Energy              =    -453.4998743981778944 [Eh]

	 ================> DF-SCS-MP2 Energies <==================
	-----------------------------------------------------------
	 SCS Same-Spin Scale       =       0.3333333333333333 [-]
	 SCS Opposite-Spin Scale   =       1.2000000000000000 [-]
	 SCS Same-Spin Energy      =      -0.1531063074919886 [Eh]
	 SCS Opposite-Spin Energy  =      -1.6641409222813039 [Eh]
	 SCS Correlation Energy    =      -1.8172472297732924 [Eh]
	 SCS Total Energy          =    -453.4710186035741231 [Eh]
	-----------------------------------------------------------

  Dipole Moment: [D]
     X:    -3.6791      Y:     3.6092      Z:     0.0000     Total:     5.1539

*** Psi4 exiting successfully. Buy a developer a beer!
