                               Psi4 1.3.2 release

  ==> Input File <==

--------------------------------------------------------------------------
#psi4
#
memory 32 gb

molecule  {
0 1
  O       -1.3945310     1.8555980     0.0000210
  O        2.9082060     0.2751580    -0.0000600
  N       -1.0895640    -0.4406340     0.0001970
  N        0.7349370     0.9985730     0.0002800
  C       -0.6489740     0.8800530    -0.0003070
  C       -0.1978588    -1.5479094     0.0000536
  C       -2.5282030    -0.6963170    -0.0000730
  C        1.1391180    -1.3434170     0.0000740
  C        1.7567559    -0.0260437    -0.0002116
  H       -0.6762750    -2.4793460     0.0001770
  H       -2.8113470    -1.2573270     0.8936330
  H       -2.8107340    -1.2584070    -0.8933430
  H       -3.0286960     0.2691590    -0.0008180
  H        1.0742980     1.9581480     0.0003170
  H        1.8167570    -2.1872720    -0.0000870
units angstrom
no_reorient  #important for SAPT in psi4, default
symmetry c1  #important for SAPT in psi4, default
}

set PROPERTIES_ORIGIN ["COM"]
properties('MP2/aug-cc-pvtz', properties = ['dipole'])
--------------------------------------------------------------------------

    Molecular point group: c1
  Charge       = 0
  Multiplicity = 1
  Basis Set: AUG-CC-PVTZ
    Blend: AUG-CC-PVTZ
  Basis Set: (AUG-CC-PVTZ AUX)
    Blend: AUG-CC-PVTZ-JKFIT

    Orbital Energies [Eh]
    ---------------------

    Doubly Occupied:

       1A    -20.552300     2A    -20.538161     3A    -15.637668
       4A    -15.616912     5A    -11.411480     6A    -11.384254
       7A    -11.338133     8A    -11.284626     9A    -11.259392
      10A     -1.428926    11A     -1.409347    12A     -1.298798
      13A     -1.231638    14A     -1.091151    15A     -0.981475
      16A     -0.929760    17A     -0.859516    18A     -0.764621
      19A     -0.747072    20A     -0.710099    21A     -0.676463
      22A     -0.660256    23A     -0.645726    24A     -0.616252
      25A     -0.612514    26A     -0.603338    27A     -0.563265
      28A     -0.562190    29A     -0.490856    30A     -0.481278
      31A     -0.448497    32A     -0.432042    33A     -0.363140

  @DF-RHF Final Energy:  -451.65572516189025

   => Energetics <=

    Nuclear Repulsion Energy =            439.9326767255161030
    One-Electron Energy =               -1487.9145109219166443
    Two-Electron Energy =                 596.3261090345102957
    Total Energy =                       -451.6557251618902455
  Basis Set: (AUG-CC-PVTZ AUX)
    Blend: AUG-CC-PVTZ-RI
    Molecular point group: c1

    Geometry (in Angstrom), charge = 0, multiplicity = 1:

       Center              X                  Y                   Z               Mass
    ------------   -----------------  -----------------  -----------------  -----------------
         O           -1.450138503889     1.823095630383     0.000018098466    15.994914619570
         O            2.852598496111     0.242655630383    -0.000062901534    15.994914619570
         N           -1.145171503889    -0.473136369617     0.000194098466    14.003074004430
         N            0.679329496111     0.966070630383     0.000277098466    14.003074004430
         C           -0.704581503889     0.847550630383    -0.000309901534    12.000000000000
         C           -0.253466303889    -1.580411769617     0.000050698466    12.000000000000
         C           -2.583810503889    -0.728819369617    -0.000075901534    12.000000000000
         C            1.083510496111    -1.375919369617     0.000071098466    12.000000000000
         C            1.701148396111    -0.058546069617    -0.000214501534    12.000000000000
         H           -0.731882503889    -2.511848369617     0.000174098466     1.007825032230
         H           -2.866954503889    -1.289829369617     0.893630098466     1.007825032230
         H           -2.866341503889    -1.290909369617    -0.893345901534     1.007825032230
         H           -3.084303503889     0.236656630383    -0.000820901534     1.007825032230
         H            1.018690496111     1.925645630383     0.000314098466     1.007825032230
         H            1.761149496111    -2.219774369617    -0.000089901534     1.007825032230

  Basis Set: AUG-CC-PVTZ
    Blend: AUG-CC-PVTZ
  Basis Set: (AUG-CC-PVTZ AUX)
    Blend: AUG-CC-PVTZ-JKFIT
	 Reference Energy          =    -451.6557251618902455 [Eh]
	 Singles Energy            =      -0.0000000000000000 [Eh]
	 Same-Spin Energy          =      -0.4571779191324993 [Eh]
	 Opposite-Spin Energy      =      -1.3840793604532837 [Eh]
	 Correlation Energy        =      -1.8412572795857831 [Eh]
	 Total Energy              =    -453.4969824414760069 [Eh]

	 ================> DF-SCS-MP2 Energies <==================
	-----------------------------------------------------------
	 SCS Same-Spin Scale       =       0.3333333333333333 [-]
	 SCS Opposite-Spin Scale   =       1.2000000000000000 [-]
	 SCS Same-Spin Energy      =      -0.1523926397108331 [Eh]
	 SCS Opposite-Spin Energy  =      -1.6608952325439403 [Eh]
	 SCS Correlation Energy    =      -1.8132878722547734 [Eh]
	 SCS Total Energy          =    -453.4690130341450072 [Eh]
	-----------------------------------------------------------

  Dipole Moment: [D]
     X:    -2.6126      Y:    -3.7441      Z:    -0.0009     Total:     4.5656

*** Psi4 exiting successfully. Buy a developer a beer!
