                               Psi4 1.3.2 release

  ==> Input File <==

--------------------------------------------------------------------------
#psi4
#
memory 32 gb

molecule  {
0 1
  O       -1.3945310     1.8555980     0.0000210
  O        2.9082060     0.2751580    -0.0000600
  N       -1.0895640    -0.4406340     0.0001970
  N        0.7349370     0.9985730     0.0002800
  C       -0.4497035     0.8971188    -0.0002225
  C       -0.2041810    -1.5011250     0.0000420
  C       -2.5282030    -0.6963170    -0.0000730
  C        1.1391180    -1.3434170     0.0000740
  C        1.7104040    -0.0052910    -0.0002190
  H       -0.6762750    -2.4793460     0.0001770
  H       -2.8113470    -1.2573270     0.8936330
  H       -2.8107340    -1.2584070    -0.8933430
  H       -3.0286960     0.2691590    -0.0008180
  H        1.0742980     1.9581480     0.0003170
  H        1.8167570    -2.1872720    -0.0000870
units angstrom
no_reorient  #important for SAPT in psi4, default
symmetry c1  #important for SAPT in psi4, default
}

set PROPERTIES_ORIGIN ["COM"]
properties('MP2/aug-cc-pvtz', properties = ['dipole'])
--------------------------------------------------------------------------

    Molecular point group: c1
  Charge       = 0
  Multiplicity = 1
  Basis Set: AUG-CC-PVTZ
    Blend: AUG-CC-PVTZ
  Basis Set: (AUG-CC-PVTZ AUX)
    Blend: AUG-CC-PVTZ-JKFIT

    Orbital Energies [Eh]
    ---------------------

    Doubly Occupied:

       1A    -20.558715     2A    -20.515125     3A    -15.657035
       4A    -15.640969     5A    -11.413771     6A    -11.398955
       7A    -11.338857     8A    -11.284617     9A    -11.255626
      10A     -1.446374    11A     -1.385037    12A     -1.287432
      13A     -1.267139    14A     -1.092260    15A     -0.990528
      16A     -0.931608    17A     -0.918811    18A     -0.787854
      19A     -0.761839    20A     -0.700794    21A     -0.695536
      22A     -0.666376    23A     -0.630745    24A     -0.619172
      25A     -0.614399    26A     -0.599028    27A     -0.546904
      28A     -0.545743    29A     -0.501964    30A     -0.467677
      31A     -0.436967    32A     -0.428276    33A     -0.355230

  @DF-RHF Final Energy:  -451.59292917976103

   => Energetics <=

    Nuclear Repulsion Energy =            441.8345958572138557
    One-Electron Energy =               -1491.3723182540838934
    Two-Electron Energy =                 597.9447932171090088
    Total Energy =                       -451.5929291797610858
  Basis Set: (AUG-CC-PVTZ AUX)
    Blend: AUG-CC-PVTZ-RI
    Molecular point group: c1

    Geometry (in Angstrom), charge = 0, multiplicity = 1:

       Center              X                  Y                   Z               Mass
    ------------   -----------------  -----------------  -----------------  -----------------
         O           -1.464095310793     1.815040955515     0.000011862496    15.994914619570
         O            2.838641689207     0.234600955515    -0.000069137504    15.994914619570
         N           -1.159128310793    -0.481191044485     0.000187862496    14.003074004430
         N            0.665372689207     0.958015955515     0.000270862496    14.003074004430
         C           -0.519267810793     0.856561755515    -0.000231637504    12.000000000000
         C           -0.273745310793    -1.541682044485     0.000032862496    12.000000000000
         C           -2.597767310793    -0.736874044485    -0.000082137504    12.000000000000
         C            1.069553689207    -1.383974044485     0.000064862496    12.000000000000
         C            1.640839689207    -0.045848044485    -0.000228137504    12.000000000000
         H           -0.745839310793    -2.519903044485     0.000167862496     1.007825032230
         H           -2.880911310793    -1.297884044485     0.893623862496     1.007825032230
         H           -2.880298310793    -1.298964044485    -0.893352137504     1.007825032230
         H           -3.098260310793     0.228601955515    -0.000827137504     1.007825032230
         H            1.004733689207     1.917590955515     0.000307862496     1.007825032230
         H            1.747192689207    -2.227829044485    -0.000096137504     1.007825032230

  Basis Set: AUG-CC-PVTZ
    Blend: AUG-CC-PVTZ
  Basis Set: (AUG-CC-PVTZ AUX)
    Blend: AUG-CC-PVTZ-JKFIT
	 Reference Energy          =    -451.5929291797610290 [Eh]
	 Singles Energy            =      -0.0000000000000000 [Eh]
	 Same-Spin Energy          =      -0.4604703471704371 [Eh]
	 Opposite-Spin Energy      =      -1.3888523114227114 [Eh]
	 Correlation Energy        =      -1.8493226585931484 [Eh]
	 Total Energy              =    -453.4422518383541956 [Eh]

	 ================> DF-SCS-MP2 Energies <==================
	-----------------------------------------------------------
	 SCS Same-Spin Scale       =       0.3333333333333333 [-]
	 SCS Opposite-Spin Scale   =       1.2000000000000000 [-]
	 SCS Same-Spin Energy      =      -0.1534901157234790 [Eh]
	 SCS Opposite-Spin Energy  =      -1.6666227737072536 [Eh]
	 SCS Correlation Energy    =      -1.8201128894307326 [Eh]
	 SCS Total Energy          =    -453.4130420691917607 [Eh]
	-----------------------------------------------------------

  Dipole Moment: [D]
     X:    -1.8845      Y:    -3.7469      Z:    -0.0005     Total:     4.1942

*** Psi4 exiting successfully. Buy a developer a beer!
