                               Psi4 1.4a3.dev225

  ==> Input File <==

--------------------------------------------------------------------------
#psi4
#
memory 32 gb

molecule  {
0 1
  O       -1.4350980    -1.8086910     0.0000000
  O        2.9075840    -0.3082450     0.0000000
  N       -1.0785060     0.4619330     0.0000000
  N        0.7249750    -1.0056720    -0.0000010
  C       -0.6517050    -0.8641080     0.0000000
  C       -0.1841290     1.5083600     0.0000000
  C       -2.5245930     0.6731660     0.0000000
  C        1.1582900     1.3329580     0.0000000
  C        1.7164880    -0.0081480     0.0000000
  H       -0.6338540     2.4967290    -0.0000010
  H       -2.9690000     0.2175100    -0.8862740
  H       -2.7140630     1.7465080     0.0000000
  H       -2.9689990     0.2175090     0.8862740
  H        1.0585810    -1.9665760     0.0000000
  H        1.8485799     2.1922027     0.0000000
units angstrom
no_reorient  #important for SAPT in psi4, default
symmetry c1  #important for SAPT in psi4, default
}

set PROPERTIES_ORIGIN ["COM"]
properties('MP2/aug-cc-pvtz', properties = ['dipole'])
--------------------------------------------------------------------------

    Molecular point group: c1
  Charge       = 0
  Multiplicity = 1
  Basis Set: AUG-CC-PVTZ
    Blend: AUG-CC-PVTZ
  Basis Set: (AUG-CC-PVTZ AUX)
    Blend: AUG-CC-PVTZ-JKFIT

    Orbital Energies [Eh]
    ---------------------

    Doubly Occupied:

       1A    -20.545954     2A    -20.538542     3A    -15.644982
       4A    -15.626776     5A    -11.416297     6A    -11.379898
       7A    -11.338330     8A    -11.292723     9A    -11.255652
      10A     -1.429143    11A     -1.388844    12A     -1.312184
      13A     -1.246333    14A     -1.090633    15A     -0.989006
      16A     -0.931179    17A     -0.871781    18A     -0.772474
      19A     -0.750464    20A     -0.701159    21A     -0.686131
      22A     -0.657693    23A     -0.643322    24A     -0.610711
      25A     -0.605900    26A     -0.602632    27A     -0.577089
      28A     -0.550678    29A     -0.503259    30A     -0.480173
      31A     -0.446137    32A     -0.432983    33A     -0.358588

  @DF-RHF Final Energy:  -451.66074276381414

   => Energetics <=

    Nuclear Repulsion Energy =            441.4870520384732231
    One-Electron Energy =               -1490.9402906880334285
    Two-Electron Energy =                 597.7924958857461206
    Total Energy =                       -451.6607427638141417
  Basis Set: (AUG-CC-PVTZ AUX)
    Blend: AUG-CC-PVTZ-RI
    Molecular point group: c1

    Geometry (in Angstrom), charge = 0, multiplicity = 1:

       Center              X                  Y                   Z               Mass
    ------------   -----------------  -----------------  -----------------  -----------------
         O           -1.485440452030    -1.770408516493     0.000000119094    15.994914619570
         O            2.857241547970    -0.269962516493     0.000000119094    15.994914619570
         N           -1.128848452030     0.500215483507     0.000000119094    14.003074004430
         N            0.674632547970    -0.967389516493    -0.000000880906    14.003074004430
         C           -0.702047452030    -0.825825516493     0.000000119094    12.000000000000
         C           -0.234471452030     1.546642483507     0.000000119094    12.000000000000
         C           -2.574935452030     0.711448483507     0.000000119094    12.000000000000
         C            1.107947547970     1.371240483507     0.000000119094    12.000000000000
         C            1.666145547970     0.030134483507     0.000000119094    12.000000000000
         H           -0.684196452030     2.535011483507    -0.000000880906     1.007825032230
         H           -3.019342452030     0.255792483507    -0.886273880906     1.007825032230
         H           -2.764405452030     1.784790483507     0.000000119094     1.007825032230
         H           -3.019341452030     0.255791483507     0.886274119094     1.007825032230
         H            1.008238547970    -1.928293516493     0.000000119094     1.007825032230
         H            1.798237447970     2.230485183507     0.000000119094     1.007825032230

  Basis Set: AUG-CC-PVTZ
    Blend: AUG-CC-PVTZ
  Basis Set: (AUG-CC-PVTZ AUX)
    Blend: AUG-CC-PVTZ-JKFIT
	 Reference Energy          =    -451.6607427638141417 [Eh]
	 Singles Energy            =      -0.0000000000000000 [Eh]
	 Same-Spin Energy          =      -0.4580624125165619 [Eh]
	 Opposite-Spin Energy      =      -1.3847734768079398 [Eh]
	 Correlation Energy        =      -1.8428358893245018 [Eh]
	 Total Energy              =    -453.5035786531386179 [Eh]

	 ================> DF-SCS-MP2 Energies <==================
	-----------------------------------------------------------
	 SCS Same-Spin Scale       =       0.3333333333333333 [-]
	 SCS Opposite-Spin Scale   =       1.2000000000000000 [-]
	 SCS Same-Spin Energy      =      -0.1526874708388540 [Eh]
	 SCS Opposite-Spin Energy  =      -1.6617281721695278 [Eh]
	 SCS Correlation Energy    =      -1.8144156430083818 [Eh]
	 SCS Total Energy          =    -453.4751584068225156 [Eh]
	-----------------------------------------------------------

  Dipole Moment: [D]
     X:    -3.2152      Y:     3.5509      Z:     0.0000     Total:     4.7903

*** Psi4 exiting successfully. Buy a developer a beer!
