                               Psi4 1.4a3.dev225

  ==> Input File <==

--------------------------------------------------------------------------
#psi4
#
memory 32 gb

molecule  {
0 1
  O       -1.4350980    -1.8086910     0.0000000
  O        2.9075840    -0.3082450     0.0000000
  N       -1.0785060     0.4619330     0.0000000
  N        0.7249750    -1.0056720    -0.0000010
  C       -0.6517050    -0.8641080     0.0000000
  C       -0.1841290     1.5083600     0.0000000
  C       -2.5245930     0.6731660     0.0000000
  C        1.1582900     1.3329580     0.0000000
  C        1.6972747     0.0380131     0.0000000
  H       -0.6338540     2.4967290    -0.0000010
  H       -2.9690000     0.2175100    -0.8862740
  H       -2.7140630     1.7465080     0.0000000
  H       -2.9689990     0.2175090     0.8862740
  H        1.0585810    -1.9665760     0.0000000
  H        1.8360540     2.1766110     0.0000000
units angstrom
no_reorient  #important for SAPT in psi4, default
symmetry c1  #important for SAPT in psi4, default
}

set PROPERTIES_ORIGIN ["COM"]
properties('MP2/aug-cc-pvtz', properties = ['dipole'])
--------------------------------------------------------------------------

    Molecular point group: c1
  Charge       = 0
  Multiplicity = 1
  Basis Set: AUG-CC-PVTZ
    Blend: AUG-CC-PVTZ
  Basis Set: (AUG-CC-PVTZ AUX)
    Blend: AUG-CC-PVTZ-JKFIT

    Orbital Energies [Eh]
    ---------------------

    Doubly Occupied:

       1A    -20.545325     2A    -20.532618     3A    -15.649382
       4A    -15.625731     5A    -11.415093     6A    -11.379348
       7A    -11.346210     8A    -11.295118     9A    -11.253271
      10A     -1.428134    11A     -1.369718    12A     -1.313764
      13A     -1.238983    14A     -1.101739    15A     -0.991276
      16A     -0.940357    17A     -0.866895    18A     -0.774172
      19A     -0.756965    20A     -0.704078    21A     -0.687473
      22A     -0.656271    23A     -0.640818    24A     -0.610270
      25A     -0.608128    26A     -0.598823    27A     -0.580334
      28A     -0.545887    29A     -0.504641    30A     -0.480150
      31A     -0.442070    32A     -0.427886    33A     -0.361747

  @DF-RHF Final Energy:  -451.65448444405592

   => Energetics <=

    Nuclear Repulsion Energy =            441.6003677849274140
    One-Electron Energy =               -1491.1643522344520534
    Two-Electron Energy =                 597.9095000054687716
    Total Energy =                       -451.6544844440559245
  Basis Set: (AUG-CC-PVTZ AUX)
    Blend: AUG-CC-PVTZ-RI
    Molecular point group: c1

    Geometry (in Angstrom), charge = 0, multiplicity = 1:

       Center              X                  Y                   Z               Mass
    ------------   -----------------  -----------------  -----------------  -----------------
         O           -1.483511081453    -1.774678644975     0.000000119094    15.994914619570
         O            2.859170918547    -0.274232644975     0.000000119094    15.994914619570
         N           -1.126919081453     0.495945355025     0.000000119094    14.003074004430
         N            0.676561918547    -0.971659644975    -0.000000880906    14.003074004430
         C           -0.700118081453    -0.830095644975     0.000000119094    12.000000000000
         C           -0.232542081453     1.542372355025     0.000000119094    12.000000000000
         C           -2.573006081453     0.707178355025     0.000000119094    12.000000000000
         C            1.109876918547     1.366970355025     0.000000119094    12.000000000000
         C            1.648861618547     0.072025455025     0.000000119094    12.000000000000
         H           -0.682267081453     2.530741355025    -0.000000880906     1.007825032230
         H           -3.017413081453     0.251522355025    -0.886273880906     1.007825032230
         H           -2.762476081453     1.780520355025     0.000000119094     1.007825032230
         H           -3.017412081453     0.251521355025     0.886274119094     1.007825032230
         H            1.010167918547    -1.932563644975     0.000000119094     1.007825032230
         H            1.787640918547     2.210623355025     0.000000119094     1.007825032230

  Basis Set: AUG-CC-PVTZ
    Blend: AUG-CC-PVTZ
  Basis Set: (AUG-CC-PVTZ AUX)
    Blend: AUG-CC-PVTZ-JKFIT
	 Reference Energy          =    -451.6544844440559245 [Eh]
	 Singles Energy            =      -0.0000000000000000 [Eh]
	 Same-Spin Energy          =      -0.4592622914327680 [Eh]
	 Opposite-Spin Energy      =      -1.3866277970323306 [Eh]
	 Correlation Energy        =      -1.8458900884650986 [Eh]
	 Total Energy              =    -453.5003745325210502 [Eh]

	 ================> DF-SCS-MP2 Energies <==================
	-----------------------------------------------------------
	 SCS Same-Spin Scale       =       0.3333333333333333 [-]
	 SCS Opposite-Spin Scale   =       1.2000000000000000 [-]
	 SCS Same-Spin Energy      =      -0.1530874304775893 [Eh]
	 SCS Opposite-Spin Energy  =      -1.6639533564387967 [Eh]
	 SCS Correlation Energy    =      -1.8170407869163860 [Eh]
	 SCS Total Energy          =    -453.4715252309723041 [Eh]
	-----------------------------------------------------------

  Dipole Moment: [D]
     X:    -3.4627      Y:     3.7752      Z:     0.0000     Total:     5.1227

*** Psi4 exiting successfully. Buy a developer a beer!
