                               Psi4 1.3.2 release

  ==> Input File <==

--------------------------------------------------------------------------
#psi4
#
memory 32 gb

molecule  {
0 1
  O       -1.3945310     1.8555980     0.0000210
  O        2.9082060     0.2751580    -0.0000600
  N       -1.0895640    -0.4406340     0.0001970
  N        0.7349370     0.9985730     0.0002800
  C       -0.6806201     0.7851925    -0.0002708
  C       -0.2041810    -1.5011250     0.0000420
  C       -2.5282030    -0.6963170    -0.0000730
  C        1.1391180    -1.3434170     0.0000740
  C        1.7104040    -0.0052910    -0.0002190
  H       -0.6762750    -2.4793460     0.0001770
  H       -2.8113470    -1.2573270     0.8936330
  H       -2.8107340    -1.2584070    -0.8933430
  H       -3.0286960     0.2691590    -0.0008180
  H        1.0742980     1.9581480     0.0003170
  H        1.8167570    -2.1872720    -0.0000870
units angstrom
no_reorient  #important for SAPT in psi4, default
symmetry c1  #important for SAPT in psi4, default
}

set PROPERTIES_ORIGIN ["COM"]
properties('MP2/aug-cc-pvtz', properties = ['dipole'])
--------------------------------------------------------------------------

    Molecular point group: c1
  Charge       = 0
  Multiplicity = 1
  Basis Set: AUG-CC-PVTZ
    Blend: AUG-CC-PVTZ
  Basis Set: (AUG-CC-PVTZ AUX)
    Blend: AUG-CC-PVTZ-JKFIT

    Orbital Energies [Eh]
    ---------------------

    Doubly Occupied:

       1A    -20.538049     2A    -20.528168     3A    -15.657658
       4A    -15.622996     5A    -11.414518     6A    -11.377695
       7A    -11.342775     8A    -11.297878     9A    -11.267581
      10A     -1.419717    11A     -1.383777    12A     -1.310701
      13A     -1.234277    14A     -1.100068    15A     -1.010465
      16A     -0.946479    17A     -0.859595    18A     -0.782616
      19A     -0.755120    20A     -0.702959    21A     -0.698078
      22A     -0.656756    23A     -0.635350    24A     -0.611822
      25A     -0.611433    26A     -0.598614    27A     -0.579800
      28A     -0.550988    29A     -0.495137    30A     -0.468336
      31A     -0.437840    32A     -0.422895    33A     -0.370931

  @DF-RHF Final Energy:  -451.64359399512307

   => Energetics <=

    Nuclear Repulsion Energy =            441.7236544392530391
    One-Electron Energy =               -1491.3523507218358191
    Two-Electron Energy =                 597.9851022874596538
    Total Energy =                       -451.6435939951230694
  Basis Set: (AUG-CC-PVTZ AUX)
    Blend: AUG-CC-PVTZ-RI
    Molecular point group: c1

    Geometry (in Angstrom), charge = 0, multiplicity = 1:

       Center              X                  Y                   Z               Mass
    ------------   -----------------  -----------------  -----------------  -----------------
         O           -1.442110743660     1.825696972693     0.000016460929    15.994914619570
         O            2.860626256340     0.245256972693    -0.000064539071    15.994914619570
         N           -1.137143743660    -0.470535027307     0.000192460929    14.003074004430
         N            0.687357256340     0.968671972693     0.000275460929    14.003074004430
         C           -0.728199843660     0.755291472693    -0.000275339071    12.000000000000
         C           -0.251760743660    -1.531026027307     0.000037460929    12.000000000000
         C           -2.575782743660    -0.726218027307    -0.000077539071    12.000000000000
         C            1.091538256340    -1.373318027307     0.000069460929    12.000000000000
         C            1.662824256340    -0.035192027307    -0.000223539071    12.000000000000
         H           -0.723854743660    -2.509247027307     0.000172460929     1.007825032230
         H           -2.858926743660    -1.287228027307     0.893628460929     1.007825032230
         H           -2.858313743660    -1.288308027307    -0.893347539071     1.007825032230
         H           -3.076275743660     0.239257972693    -0.000822539071     1.007825032230
         H            1.026718256340     1.928246972693     0.000312460929     1.007825032230
         H            1.769177256340    -2.217173027307    -0.000091539071     1.007825032230

  Basis Set: AUG-CC-PVTZ
    Blend: AUG-CC-PVTZ
  Basis Set: (AUG-CC-PVTZ AUX)
    Blend: AUG-CC-PVTZ-JKFIT
	 Reference Energy          =    -451.6435939951230694 [Eh]
	 Singles Energy            =      -0.0000000000000000 [Eh]
	 Same-Spin Energy          =      -0.4588342535735326 [Eh]
	 Opposite-Spin Energy      =      -1.3868814390277167 [Eh]
	 Correlation Energy        =      -1.8457156926012492 [Eh]
	 Total Energy              =    -453.4893096877243011 [Eh]

	 ================> DF-SCS-MP2 Energies <==================
	-----------------------------------------------------------
	 SCS Same-Spin Scale       =       0.3333333333333333 [-]
	 SCS Opposite-Spin Scale   =       1.2000000000000000 [-]
	 SCS Same-Spin Energy      =      -0.1529447511911775 [Eh]
	 SCS Opposite-Spin Energy  =      -1.6642577268332599 [Eh]
	 SCS Correlation Energy    =      -1.8172024780244374 [Eh]
	 SCS Total Energy          =    -453.4607964731475249 [Eh]
	-----------------------------------------------------------

  Dipole Moment: [D]
     X:    -3.2470      Y:    -4.3556      Z:    -0.0007     Total:     5.4327

*** Psi4 exiting successfully. Buy a developer a beer!
