                               Psi4 1.4a3.dev225

  ==> Input File <==

--------------------------------------------------------------------------
#psi4
#
memory 32 gb

molecule  {
0 1
  O       -1.4350980    -1.8086910     0.0000000
  O        2.9075840    -0.3082450     0.0000000
  N       -1.0785060     0.4619330     0.0000000
  N        0.7249750    -1.0056720    -0.0000010
  C       -0.6517050    -0.8641080     0.0000000
  C       -0.1841290     1.5083600     0.0000000
  C       -2.5245930     0.6731660     0.0000000
  C        1.1582900     1.3329580     0.0000000
  C        1.7164880    -0.0081480     0.0000000
  H       -0.6338540     2.4967290    -0.0000010
  H       -2.9690000     0.2175100    -0.8862740
  H       -2.7140630     1.7465080     0.0000000
  H       -2.9689990     0.2175090     0.8862740
  H        1.0651405    -1.9854697     0.0000000
  H        1.8360540     2.1766110     0.0000000
units angstrom
no_reorient  #important for SAPT in psi4, default
symmetry c1  #important for SAPT in psi4, default
}

set PROPERTIES_ORIGIN ["COM"]
properties('MP2/aug-cc-pvtz', properties = ['dipole'])
--------------------------------------------------------------------------

    Molecular point group: c1
  Charge       = 0
  Multiplicity = 1
  Basis Set: AUG-CC-PVTZ
    Blend: AUG-CC-PVTZ
  Basis Set: (AUG-CC-PVTZ AUX)
    Blend: AUG-CC-PVTZ-JKFIT

    Orbital Energies [Eh]
    ---------------------

    Doubly Occupied:

       1A    -20.545671     2A    -20.538306     3A    -15.644849
       4A    -15.628133     5A    -11.416061     6A    -11.379591
       7A    -11.338153     8A    -11.292612     9A    -11.253466
      10A     -1.428642    11A     -1.388531    12A     -1.311966
      13A     -1.244213    14A     -1.090889    15A     -0.988804
      16A     -0.930100    17A     -0.871965    18A     -0.770929
      19A     -0.749588    20A     -0.700043    21A     -0.685909
      22A     -0.657568    23A     -0.643298    24A     -0.610417
      25A     -0.607852    26A     -0.601876    27A     -0.578003
      28A     -0.550467    29A     -0.503057    30A     -0.479992
      31A     -0.445884    32A     -0.432480    33A     -0.358471

  @DF-RHF Final Energy:  -451.66031258417263

   => Energetics <=

    Nuclear Repulsion Energy =            441.4666969503258542
    One-Electron Energy =               -1490.9184502085474833
    Two-Electron Energy =                 597.7914406740491131
    Total Energy =                       -451.6603125841726296
  Basis Set: (AUG-CC-PVTZ AUX)
    Blend: AUG-CC-PVTZ-RI
    Molecular point group: c1

    Geometry (in Angstrom), charge = 0, multiplicity = 1:

       Center              X                  Y                   Z               Mass
    ------------   -----------------  -----------------  -----------------  -----------------
         O           -1.485392745368    -1.770132775124     0.000000119094    15.994914619570
         O            2.857289254632    -0.269686775124     0.000000119094    15.994914619570
         N           -1.128800745368     0.500491224876     0.000000119094    14.003074004430
         N            0.674680254632    -0.967113775124    -0.000000880906    14.003074004430
         C           -0.701999745368    -0.825549775124     0.000000119094    12.000000000000
         C           -0.234423745368     1.546918224876     0.000000119094    12.000000000000
         C           -2.574887745368     0.711724224876     0.000000119094    12.000000000000
         C            1.107995254632     1.371516224876     0.000000119094    12.000000000000
         C            1.666193254632     0.030410224876     0.000000119094    12.000000000000
         H           -0.684148745368     2.535287224876    -0.000000880906     1.007825032230
         H           -3.019294745368     0.256068224876    -0.886273880906     1.007825032230
         H           -2.764357745368     1.785066224876     0.000000119094     1.007825032230
         H           -3.019293745368     0.256067224876     0.886274119094     1.007825032230
         H            1.014845754632    -1.946911475124     0.000000119094     1.007825032230
         H            1.785759254632     2.215169224876     0.000000119094     1.007825032230

  Basis Set: AUG-CC-PVTZ
    Blend: AUG-CC-PVTZ
  Basis Set: (AUG-CC-PVTZ AUX)
    Blend: AUG-CC-PVTZ-JKFIT
	 Reference Energy          =    -451.6603125841726296 [Eh]
	 Singles Energy            =      -0.0000000000000000 [Eh]
	 Same-Spin Energy          =      -0.4581936284797597 [Eh]
	 Opposite-Spin Energy      =      -1.3849927655618173 [Eh]
	 Correlation Energy        =      -1.8431863940415769 [Eh]
	 Total Energy              =    -453.5034989782142247 [Eh]

	 ================> DF-SCS-MP2 Energies <==================
	-----------------------------------------------------------
	 SCS Same-Spin Scale       =       0.3333333333333333 [-]
	 SCS Opposite-Spin Scale   =       1.2000000000000000 [-]
	 SCS Same-Spin Energy      =      -0.1527312094932532 [Eh]
	 SCS Opposite-Spin Energy  =      -1.6619913186741806 [Eh]
	 SCS Correlation Energy    =      -1.8147225281674337 [Eh]
	 SCS Total Energy          =    -453.4750351123400378 [Eh]
	-----------------------------------------------------------

  Dipole Moment: [D]
     X:    -3.2102      Y:     3.5262      Z:     0.0000     Total:     4.7686

*** Psi4 exiting successfully. Buy a developer a beer!
