                               Psi4 1.3.2 release

  ==> Input File <==

--------------------------------------------------------------------------
#psi4
#
memory 32 gb

molecule  {
0 1
  O       -1.3945310     1.8555980     0.0000210
  O        2.9082060     0.2751580    -0.0000600
  N       -1.1438524    -0.4884247     0.0002103
  N        0.7349370     0.9985730     0.0002800
  C       -0.6489740     0.8800530    -0.0003070
  C       -0.2041810    -1.5011250     0.0000420
  C       -2.5282030    -0.6963170    -0.0000730
  C        1.1391180    -1.3434170     0.0000740
  C        1.7104040    -0.0052910    -0.0002190
  H       -0.7268241    -2.4532979     0.0001870
  H       -2.8113470    -1.2573270     0.8936330
  H       -2.8107340    -1.2584070    -0.8933430
  H       -3.0286960     0.2691590    -0.0008180
  H        1.0742980     1.9581480     0.0003170
  H        1.8167570    -2.1872720    -0.0000870
units angstrom
no_reorient  #important for SAPT in psi4, default
symmetry c1  #important for SAPT in psi4, default
}

set PROPERTIES_ORIGIN ["COM"]
properties('MP2/aug-cc-pvtz', properties = ['dipole'])
--------------------------------------------------------------------------

    Molecular point group: c1
  Charge       = 0
  Multiplicity = 1
  Basis Set: AUG-CC-PVTZ
    Blend: AUG-CC-PVTZ
  Basis Set: (AUG-CC-PVTZ AUX)
    Blend: AUG-CC-PVTZ-JKFIT

    Orbital Energies [Eh]
    ---------------------

    Doubly Occupied:

       1A    -20.553008     2A    -20.540260     3A    -15.643404
       4A    -15.631475     5A    -11.425877     6A    -11.381282
       7A    -11.337472     8A    -11.283719     9A    -11.255539
      10A     -1.428268    11A     -1.389857    12A     -1.313302
      13A     -1.251926    14A     -1.092498    15A     -0.987463
      16A     -0.924580    17A     -0.874264    18A     -0.769368
      19A     -0.754676    20A     -0.697630    21A     -0.685748
      22A     -0.666234    23A     -0.647034    24A     -0.618351
      25A     -0.613666    26A     -0.608414    27A     -0.563934
      28A     -0.554001    29A     -0.496344    30A     -0.481221
      31A     -0.448306    32A     -0.435744    33A     -0.357726

  @DF-RHF Final Energy:  -451.65144095386438

   => Energetics <=

    Nuclear Repulsion Energy =            440.3796913777179043
    One-Electron Energy =               -1488.6370836460209830
    Two-Electron Energy =                 596.6059513144388120
    Total Energy =                       -451.6514409538643804
  Basis Set: (AUG-CC-PVTZ AUX)
    Blend: AUG-CC-PVTZ-RI
    Molecular point group: c1

    Geometry (in Angstrom), charge = 0, multiplicity = 1:

       Center              X                  Y                   Z               Mass
    ------------   -----------------  -----------------  -----------------  -----------------
         O           -1.438688132492     1.821766873413     0.000018349816    15.994914619570
         O            2.864048867508     0.241326873413    -0.000062650184    15.994914619570
         N           -1.188009532492    -0.522255826587     0.000207649816    14.003074004430
         N            0.690779867508     0.964741873413     0.000277349816    14.003074004430
         C           -0.693131132492     0.846221873413    -0.000309650184    12.000000000000
         C           -0.248338132492    -1.534956126587     0.000039349816    12.000000000000
         C           -2.572360132492    -0.730148126587    -0.000075650184    12.000000000000
         C            1.094960867508    -1.377248126587     0.000071349816    12.000000000000
         C            1.666246867508    -0.039122126587    -0.000221650184    12.000000000000
         H           -0.770981232492    -2.487129026587     0.000184349816     1.007825032230
         H           -2.855504132492    -1.291158126587     0.893630349816     1.007825032230
         H           -2.854891132492    -1.292238126587    -0.893345650184     1.007825032230
         H           -3.072853132492     0.235327873413    -0.000820650184     1.007825032230
         H            1.030140867508     1.924316873413     0.000314349816     1.007825032230
         H            1.772599867508    -2.221103126587    -0.000089650184     1.007825032230

  Basis Set: AUG-CC-PVTZ
    Blend: AUG-CC-PVTZ
  Basis Set: (AUG-CC-PVTZ AUX)
    Blend: AUG-CC-PVTZ-JKFIT
	 Reference Energy          =    -451.6514409538643804 [Eh]
	 Singles Energy            =      -0.0000000000000000 [Eh]
	 Same-Spin Energy          =      -0.4587966637860368 [Eh]
	 Opposite-Spin Energy      =      -1.3861141277298930 [Eh]
	 Correlation Energy        =      -1.8449107915159297 [Eh]
	 Total Energy              =    -453.4963517453803092 [Eh]

	 ================> DF-SCS-MP2 Energies <==================
	-----------------------------------------------------------
	 SCS Same-Spin Scale       =       0.3333333333333333 [-]
	 SCS Opposite-Spin Scale   =       1.2000000000000000 [-]
	 SCS Same-Spin Energy      =      -0.1529322212620123 [Eh]
	 SCS Opposite-Spin Energy  =      -1.6633369532758715 [Eh]
	 SCS Correlation Energy    =      -1.8162691745378838 [Eh]
	 SCS Total Energy          =    -453.4677101284022456 [Eh]
	-----------------------------------------------------------

  Dipole Moment: [D]
     X:    -3.1675      Y:    -3.2048      Z:    -0.0009     Total:     4.5059

*** Psi4 exiting successfully. Buy a developer a beer!
