                               Psi4 1.3.2 release

  ==> Input File <==

--------------------------------------------------------------------------
#psi4
#
memory 32 gb

molecule  {
0 1
  O       -1.3945310     1.8555980     0.0000210
  O        2.9082060     0.2751580    -0.0000600
  N       -1.0895640    -0.4406340     0.0001970
  N        0.7349370     0.9985730     0.0002800
  C       -0.6489740     0.8800530    -0.0003070
  C       -0.2012240    -1.5245448     0.0000375
  C       -2.5282030    -0.6963170    -0.0000730
  C        1.1391180    -1.3434170     0.0000740
  C        1.7104040    -0.0052910    -0.0002190
  H       -0.6762750    -2.4793460     0.0001770
  H       -2.8113470    -1.2573270     0.8936330
  H       -2.8107340    -1.2584070    -0.8933430
  H       -3.0286960     0.2691590    -0.0008180
  H        1.0742980     1.9581480     0.0003170
  H        1.8019265    -2.1989699    -0.0000893
units angstrom
no_reorient  #important for SAPT in psi4, default
symmetry c1  #important for SAPT in psi4, default
}

set PROPERTIES_ORIGIN ["COM"]
properties('MP2/aug-cc-pvtz', properties = ['dipole'])
--------------------------------------------------------------------------

    Molecular point group: c1
  Charge       = 0
  Multiplicity = 1
  Basis Set: AUG-CC-PVTZ
    Blend: AUG-CC-PVTZ
  Basis Set: (AUG-CC-PVTZ AUX)
    Blend: AUG-CC-PVTZ-JKFIT

    Orbital Energies [Eh]
    ---------------------

    Doubly Occupied:

       1A    -20.544480     2A    -20.540456     3A    -15.642527
       4A    -15.626618     5A    -11.417744     6A    -11.381830
       7A    -11.337063     8A    -11.288353     9A    -11.258270
      10A     -1.426935    11A     -1.389119    12A     -1.307243
      13A     -1.244661    14A     -1.091947    15A     -0.987431
      16A     -0.930524    17A     -0.871713    18A     -0.771150
      19A     -0.751204    20A     -0.704417    21A     -0.682784
      22A     -0.657302    23A     -0.644353    24A     -0.614380
      25A     -0.610974    26A     -0.603298    27A     -0.568806
      28A     -0.554347    29A     -0.496162    30A     -0.480144
      31A     -0.447380    32A     -0.433179    33A     -0.361932

  @DF-RHF Final Energy:  -451.65938819632265

   => Energetics <=

    Nuclear Repulsion Energy =            440.7128966106712369
    One-Electron Energy =               -1489.4071152143621930
    Two-Electron Energy =                 597.0348304073681902
    Total Energy =                       -451.6593881963226522
  Basis Set: (AUG-CC-PVTZ AUX)
    Blend: AUG-CC-PVTZ-RI
    Molecular point group: c1

    Geometry (in Angstrom), charge = 0, multiplicity = 1:

       Center              X                  Y                   Z               Mass
    ------------   -----------------  -----------------  -----------------  -----------------
         O           -1.445286571602     1.818988948842     0.000020354190    15.994914619570
         O            2.857450428398     0.238548948842    -0.000060645810    15.994914619570
         N           -1.140319571602    -0.477243051158     0.000196354190    14.003074004430
         N            0.684181428398     0.961963948842     0.000279354190    14.003074004430
         C           -0.699729571602     0.843443948842    -0.000307645810    12.000000000000
         C           -0.251979571602    -1.561153851158     0.000036854190    12.000000000000
         C           -2.578958571602    -0.732926051158    -0.000073645810    12.000000000000
         C            1.088362428398    -1.380026051158     0.000073354190    12.000000000000
         C            1.659648428398    -0.041900051158    -0.000219645810    12.000000000000
         H           -0.727030571602    -2.515955051158     0.000176354190     1.007825032230
         H           -2.862102571602    -1.293936051158     0.893632354190     1.007825032230
         H           -2.861489571602    -1.295016051158    -0.893343645810     1.007825032230
         H           -3.079451571602     0.232549948842    -0.000818645810     1.007825032230
         H            1.023542428398     1.921538948842     0.000316354190     1.007825032230
         H            1.751170928398    -2.235578951158    -0.000089945810     1.007825032230

  Basis Set: AUG-CC-PVTZ
    Blend: AUG-CC-PVTZ
  Basis Set: (AUG-CC-PVTZ AUX)
    Blend: AUG-CC-PVTZ-JKFIT
	 Reference Energy          =    -451.6593881963226522 [Eh]
	 Singles Energy            =      -0.0000000000000000 [Eh]
	 Same-Spin Energy          =      -0.4579441343463385 [Eh]
	 Opposite-Spin Energy      =      -1.3850342433931924 [Eh]
	 Correlation Energy        =      -1.8429783777395308 [Eh]
	 Total Energy              =    -453.5023665740621936 [Eh]

	 ================> DF-SCS-MP2 Energies <==================
	-----------------------------------------------------------
	 SCS Same-Spin Scale       =       0.3333333333333333 [-]
	 SCS Opposite-Spin Scale   =       1.2000000000000000 [-]
	 SCS Same-Spin Energy      =      -0.1526480447821128 [Eh]
	 SCS Opposite-Spin Energy  =      -1.6620410920718307 [Eh]
	 SCS Correlation Energy    =      -1.8146891368539435 [Eh]
	 SCS Total Energy          =    -453.4740773331765809 [Eh]
	-----------------------------------------------------------

  Dipole Moment: [D]
     X:    -3.1440      Y:    -3.5904      Z:    -0.0009     Total:     4.7724

*** Psi4 exiting successfully. Buy a developer a beer!
