                               Psi4 1.4a3.dev225

  ==> Input File <==

--------------------------------------------------------------------------
#psi4
#
memory 32 gb

molecule  {
0 1
  O       -1.4350980    -1.8086910     0.0000000
  O        2.9075840    -0.3082450     0.0000000
  N       -1.0785060     0.4619330     0.0000000
  N        0.7249750    -1.0056720    -0.0000010
  C       -0.6517050    -0.8641080     0.0000000
  C       -0.1711346     1.5235635     0.0000000
  C       -2.5245930     0.6731660     0.0000000
  C        1.1582900     1.3329580     0.0000000
  C        1.7164880    -0.0081480     0.0000000
  H       -0.6338540     2.4967290    -0.0000010
  H       -2.9690000     0.2175100    -0.8862740
  H       -2.7140630     1.7465080     0.0000000
  H       -2.9689990     0.2175090     0.8862740
  H        1.0585810    -1.9665760     0.0000000
  H        1.8360540     2.1766110     0.0000000
units angstrom
no_reorient  #important for SAPT in psi4, default
symmetry c1  #important for SAPT in psi4, default
}

set PROPERTIES_ORIGIN ["COM"]
properties('MP2/aug-cc-pvtz', properties = ['dipole'])
--------------------------------------------------------------------------

    Molecular point group: c1
  Charge       = 0
  Multiplicity = 1
  Basis Set: AUG-CC-PVTZ
    Blend: AUG-CC-PVTZ
  Basis Set: (AUG-CC-PVTZ AUX)
    Blend: AUG-CC-PVTZ-JKFIT

    Orbital Energies [Eh]
    ---------------------

    Doubly Occupied:

       1A    -20.544624     2A    -20.540508     3A    -15.642530
       4A    -15.626527     5A    -11.414959     6A    -11.381535
       7A    -11.337424     8A    -11.291132     9A    -11.254662
      10A     -1.427481    11A     -1.390023    12A     -1.306957
      13A     -1.245049    14A     -1.094282    15A     -0.986871
      16A     -0.929604    17A     -0.871882    18A     -0.772026
      19A     -0.751198    20A     -0.702616    21A     -0.683630
      22A     -0.657571    23A     -0.643943    24A     -0.610190
      25A     -0.607663    26A     -0.604926    27A     -0.575863
      28A     -0.550731    29A     -0.500510    30A     -0.479605
      31A     -0.447398    32A     -0.433021    33A     -0.361457

  @DF-RHF Final Energy:  -451.66102128185111

   => Energetics <=

    Nuclear Repulsion Energy =            441.3208077328391141
    One-Electron Energy =               -1490.6268650592855920
    Two-Electron Energy =                 597.6450360445953720
    Total Energy =                       -451.6610212818511627
  Basis Set: (AUG-CC-PVTZ AUX)
    Blend: AUG-CC-PVTZ-RI
    Molecular point group: c1

    Geometry (in Angstrom), charge = 0, multiplicity = 1:

       Center              X                  Y                   Z               Mass
    ------------   -----------------  -----------------  -----------------  -----------------
         O           -1.486577436765    -1.771731306258     0.000000119094    15.994914619570
         O            2.856104563235    -0.271285306258     0.000000119094    15.994914619570
         N           -1.129985436765     0.498892693742     0.000000119094    14.003074004430
         N            0.673495563235    -0.968712306258    -0.000000880906    14.003074004430
         C           -0.703184436765    -0.827148306258     0.000000119094    12.000000000000
         C           -0.222614036765     1.560523193742     0.000000119094    12.000000000000
         C           -2.576072436765     0.710125693742     0.000000119094    12.000000000000
         C            1.106810563235     1.369917693742     0.000000119094    12.000000000000
         C            1.665008563235     0.028811693742     0.000000119094    12.000000000000
         H           -0.685333436765     2.533688693742    -0.000000880906     1.007825032230
         H           -3.020479436765     0.254469693742    -0.886273880906     1.007825032230
         H           -2.765542436765     1.783467693742     0.000000119094     1.007825032230
         H           -3.020478436765     0.254468693742     0.886274119094     1.007825032230
         H            1.007101563235    -1.929616306258     0.000000119094     1.007825032230
         H            1.784574563235     2.213570693742     0.000000119094     1.007825032230

  Basis Set: AUG-CC-PVTZ
    Blend: AUG-CC-PVTZ
  Basis Set: (AUG-CC-PVTZ AUX)
    Blend: AUG-CC-PVTZ-JKFIT
	 Reference Energy          =    -451.6610212818511059 [Eh]
	 Singles Energy            =      -0.0000000000000000 [Eh]
	 Same-Spin Energy          =      -0.4577937340506597 [Eh]
	 Opposite-Spin Energy      =      -1.3845819936430310 [Eh]
	 Correlation Energy        =      -1.8423757276936907 [Eh]
	 Total Energy              =    -453.5033970095448126 [Eh]

	 ================> DF-SCS-MP2 Energies <==================
	-----------------------------------------------------------
	 SCS Same-Spin Scale       =       0.3333333333333333 [-]
	 SCS Opposite-Spin Scale   =       1.2000000000000000 [-]
	 SCS Same-Spin Energy      =      -0.1525979113502199 [Eh]
	 SCS Opposite-Spin Energy  =      -1.6614983923716371 [Eh]
	 SCS Correlation Energy    =      -1.8140963037218569 [Eh]
	 SCS Total Energy          =    -453.4751175855729457 [Eh]
	-----------------------------------------------------------

  Dipole Moment: [D]
     X:    -3.1024      Y:     3.5945      Z:     0.0000     Total:     4.7482

*** Psi4 exiting successfully. Buy a developer a beer!
