                               Psi4 1.3.2 release

  ==> Input File <==

--------------------------------------------------------------------------
#psi4
#
memory 32 gb

molecule  {
0 1
  O       -1.3945310     1.8555980     0.0000210
  O        2.9082060     0.2751580    -0.0000600
  N       -1.0895640    -0.4406340     0.0001970
  N        0.7349370     0.9985730     0.0002800
  C       -0.6532803     0.9526437    -0.0003172
  C       -0.2041810    -1.5011250     0.0000420
  C       -2.5282030    -0.6963170    -0.0000730
  C        1.1391180    -1.3434170     0.0000740
  C        1.7104040    -0.0052910    -0.0002190
  H       -0.6762750    -2.4793460     0.0001770
  H       -2.8113470    -1.2573270     0.8936330
  H       -2.8107340    -1.2584070    -0.8933430
  H       -3.0286960     0.2691590    -0.0008180
  H        1.0236126     1.9745937     0.0002931
  H        1.8167570    -2.1872720    -0.0000870
units angstrom
no_reorient  #important for SAPT in psi4, default
symmetry c1  #important for SAPT in psi4, default
}

set PROPERTIES_ORIGIN ["COM"]
properties('MP2/aug-cc-pvtz', properties = ['dipole'])
--------------------------------------------------------------------------

    Molecular point group: c1
  Charge       = 0
  Multiplicity = 1
  Basis Set: AUG-CC-PVTZ
    Blend: AUG-CC-PVTZ
  Basis Set: (AUG-CC-PVTZ AUX)
    Blend: AUG-CC-PVTZ-JKFIT

    Orbital Energies [Eh]
    ---------------------

    Doubly Occupied:

       1A    -20.563451     2A    -20.536344     3A    -15.632930
       4A    -15.624791     5A    -11.420192     6A    -11.379341
       7A    -11.332093     8A    -11.284657     9A    -11.248138
      10A     -1.463602    11A     -1.389857    12A     -1.306365
      13A     -1.243305    14A     -1.084840    15A     -0.977074
      16A     -0.918582    17A     -0.875138    18A     -0.760910
      19A     -0.748419    20A     -0.703658    21A     -0.681184
      22A     -0.673270    23A     -0.642509    24A     -0.616810
      25A     -0.605655    26A     -0.601062    27A     -0.566662
      28A     -0.566044    29A     -0.496701    30A     -0.489329
      31A     -0.446742    32A     -0.438326    33A     -0.352603

  @DF-RHF Final Energy:  -451.65442471793961

   => Energetics <=

    Nuclear Repulsion Energy =            440.8412461932071551
    One-Electron Energy =               -1489.6501712643926112
    Two-Electron Energy =                 597.1545003532459077
    Total Energy =                       -451.6544247179396052
  Basis Set: (AUG-CC-PVTZ AUX)
    Blend: AUG-CC-PVTZ-RI
    Molecular point group: c1

    Geometry (in Angstrom), charge = 0, multiplicity = 1:

       Center              X                  Y                   Z               Mass
    ------------   -----------------  -----------------  -----------------  -----------------
         O           -1.444308372601     1.809623172844     0.000021069573    15.994914619570
         O            2.858428627399     0.229183172844    -0.000059930427    15.994914619570
         N           -1.139341372601    -0.486608827156     0.000197069573    14.003074004430
         N            0.685159627399     0.952598172844     0.000280069573    14.003074004430
         C           -0.703057672601     0.906668872844    -0.000317130427    12.000000000000
         C           -0.253958372601    -1.547099827156     0.000042069573    12.000000000000
         C           -2.577980372601    -0.742291827156    -0.000072930427    12.000000000000
         C            1.089340627399    -1.389391827156     0.000074069573    12.000000000000
         C            1.660626627399    -0.051265827156    -0.000218930427    12.000000000000
         H           -0.726052372601    -2.525320827156     0.000177069573     1.007825032230
         H           -2.861124372601    -1.303301827156     0.893633069573     1.007825032230
         H           -2.860511372601    -1.304381827156    -0.893342930427     1.007825032230
         H           -3.078473372601     0.223184172844    -0.000817930427     1.007825032230
         H            0.973835227399     1.928618872844     0.000293169573     1.007825032230
         H            1.766979627399    -2.233246827156    -0.000086930427     1.007825032230

  Basis Set: AUG-CC-PVTZ
    Blend: AUG-CC-PVTZ
  Basis Set: (AUG-CC-PVTZ AUX)
    Blend: AUG-CC-PVTZ-JKFIT
	 Reference Energy          =    -451.6544247179396052 [Eh]
	 Singles Energy            =      -0.0000000000000000 [Eh]
	 Same-Spin Energy          =      -0.4574922810534694 [Eh]
	 Opposite-Spin Energy      =      -1.3836296407384745 [Eh]
	 Correlation Energy        =      -1.8411219217919439 [Eh]
	 Total Energy              =    -453.4955466397315718 [Eh]

	 ================> DF-SCS-MP2 Energies <==================
	-----------------------------------------------------------
	 SCS Same-Spin Scale       =       0.3333333333333333 [-]
	 SCS Opposite-Spin Scale   =       1.2000000000000000 [-]
	 SCS Same-Spin Energy      =      -0.1524974270178231 [Eh]
	 SCS Opposite-Spin Energy  =      -1.6603555688861693 [Eh]
	 SCS Correlation Energy    =      -1.8128529959039925 [Eh]
	 SCS Total Energy          =    -453.4672777138436004 [Eh]
	-----------------------------------------------------------

  Dipole Moment: [D]
     X:    -3.4693      Y:    -2.8456      Z:    -0.0010     Total:     4.4871

*** Psi4 exiting successfully. Buy a developer a beer!
