                               Psi4 1.3.2 release

  ==> Input File <==

--------------------------------------------------------------------------
#psi4
#
memory 32 gb

molecule  {
0 1
  O       -1.3945310     1.8555980     0.0000210
  O        2.9082060     0.2751580    -0.0000600
  N       -1.0895640    -0.4406340     0.0001970
  N        0.7349370     0.9985730     0.0002800
  C       -0.6489740     0.8800530    -0.0003070
  C       -0.2041810    -1.5011250     0.0000420
  C       -2.5282030    -0.6963170    -0.0000730
  C        1.1391180    -1.3434170     0.0000740
  C        1.7448441     0.0293638    -0.0002253
  H       -0.6762750    -2.4793460     0.0001770
  H       -2.8113470    -1.2573270     0.8936330
  H       -2.8107340    -1.2584070    -0.8933430
  H       -3.0286960     0.2691590    -0.0008180
  H        1.1075800     1.9457199     0.0003035
  H        1.8167570    -2.1872720    -0.0000870
units angstrom
no_reorient  #important for SAPT in psi4, default
symmetry c1  #important for SAPT in psi4, default
}

set PROPERTIES_ORIGIN ["COM"]
properties('MP2/aug-cc-pvtz', properties = ['dipole'])
--------------------------------------------------------------------------

    Molecular point group: c1
  Charge       = 0
  Multiplicity = 1
  Basis Set: AUG-CC-PVTZ
    Blend: AUG-CC-PVTZ
  Basis Set: (AUG-CC-PVTZ AUX)
    Blend: AUG-CC-PVTZ-JKFIT

    Orbital Energies [Eh]
    ---------------------

    Doubly Occupied:

       1A    -20.547380     2A    -20.544017     3A    -15.640171
       4A    -15.624205     5A    -11.418320     6A    -11.379728
       7A    -11.330445     8A    -11.287407     9A    -11.254743
      10A     -1.432131    11A     -1.411689    12A     -1.309700
      13A     -1.247460    14A     -1.081732    15A     -0.987454
      16A     -0.921654    17A     -0.872874    18A     -0.770422
      19A     -0.745235    20A     -0.697630    21A     -0.682880
      22A     -0.663520    23A     -0.646660    24A     -0.617259
      25A     -0.607966    26A     -0.606308    27A     -0.569106
      28A     -0.562486    29A     -0.496531    30A     -0.478816
      31A     -0.447862    32A     -0.437858    33A     -0.357307

  @DF-RHF Final Energy:  -451.66014267713547

   => Energetics <=

    Nuclear Repulsion Energy =            441.0697995983722990
    One-Electron Energy =               -1490.1019724348443560
    Two-Electron Energy =                 597.3720301593365321
    Total Energy =                       -451.6601426771354681
  Basis Set: (AUG-CC-PVTZ AUX)
    Blend: AUG-CC-PVTZ-RI
    Molecular point group: c1

    Geometry (in Angstrom), charge = 0, multiplicity = 1:

       Center              X                  Y                   Z               Mass
    ------------   -----------------  -----------------  -----------------  -----------------
         O           -1.448668643016     1.813465756860     0.000020615114    15.994914619570
         O            2.854068356984     0.233025756860    -0.000060384886    15.994914619570
         N           -1.143701643016    -0.482766243140     0.000196615114    14.003074004430
         N            0.680799356984     0.956440756860     0.000279615114    14.003074004430
         C           -0.703111643016     0.837920756860    -0.000307384886    12.000000000000
         C           -0.258318643016    -1.543257243140     0.000041615114    12.000000000000
         C           -2.582340643016    -0.738449243140    -0.000073384886    12.000000000000
         C            1.084980356984    -1.385549243140     0.000073615114    12.000000000000
         C            1.690706456984    -0.012768443140    -0.000225684886    12.000000000000
         H           -0.730412643016    -2.521478243140     0.000176615114     1.007825032230
         H           -2.865484643016    -1.299459243140     0.893632615114     1.007825032230
         H           -2.864871643016    -1.300539243140    -0.893343384886     1.007825032230
         H           -3.082833643016     0.227026756860    -0.000818384886     1.007825032230
         H            1.053442356984     1.903587656860     0.000303115114     1.007825032230
         H            1.762619356984    -2.229404243140    -0.000087384886     1.007825032230

  Basis Set: AUG-CC-PVTZ
    Blend: AUG-CC-PVTZ
  Basis Set: (AUG-CC-PVTZ AUX)
    Blend: AUG-CC-PVTZ-JKFIT
	 Reference Energy          =    -451.6601426771354681 [Eh]
	 Singles Energy            =      -0.0000000000000000 [Eh]
	 Same-Spin Energy          =      -0.4568838887871635 [Eh]
	 Opposite-Spin Energy      =      -1.3829346855678972 [Eh]
	 Correlation Energy        =      -1.8398185743550606 [Eh]
	 Total Energy              =    -453.4999612514905039 [Eh]

	 ================> DF-SCS-MP2 Energies <==================
	-----------------------------------------------------------
	 SCS Same-Spin Scale       =       0.3333333333333333 [-]
	 SCS Opposite-Spin Scale   =       1.2000000000000000 [-]
	 SCS Same-Spin Energy      =      -0.1522946295957212 [Eh]
	 SCS Opposite-Spin Energy  =      -1.6595216226814766 [Eh]
	 SCS Correlation Energy    =      -1.8118162522771977 [Eh]
	 SCS Total Energy          =    -453.4719589294126649 [Eh]
	-----------------------------------------------------------

  Dipole Moment: [D]
     X:    -2.8465      Y:    -3.3734      Z:    -0.0010     Total:     4.4139

*** Psi4 exiting successfully. Buy a developer a beer!
