                               Psi4 1.3.2 release

  ==> Input File <==

--------------------------------------------------------------------------
#psi4
#
memory 32 gb

molecule  {
0 1
  O       -1.3600308     1.8810233    -0.0000057
  O        2.9082060     0.2751580    -0.0000600
  N       -1.0432043    -0.4552059     0.0001691
  N        0.7349370     0.9985730     0.0002800
  C       -0.6489740     0.8800530    -0.0003070
  C       -0.2041810    -1.5011250     0.0000420
  C       -2.5282030    -0.6963170    -0.0000730
  C        1.1391180    -1.3434170     0.0000740
  C        1.7104040    -0.0052910    -0.0002190
  H       -0.6762750    -2.4793460     0.0001770
  H       -2.8113470    -1.2573270     0.8936330
  H       -2.8107340    -1.2584070    -0.8933430
  H       -3.0286960     0.2691590    -0.0008180
  H        1.0742980     1.9581480     0.0003170
  H        1.8167570    -2.1872720    -0.0000870
units angstrom
no_reorient  #important for SAPT in psi4, default
symmetry c1  #important for SAPT in psi4, default
}

set PROPERTIES_ORIGIN ["COM"]
properties('MP2/aug-cc-pvtz', properties = ['dipole'])
--------------------------------------------------------------------------

    Molecular point group: c1
  Charge       = 0
  Multiplicity = 1
  Basis Set: AUG-CC-PVTZ
    Blend: AUG-CC-PVTZ
  Basis Set: (AUG-CC-PVTZ AUX)
    Blend: AUG-CC-PVTZ-JKFIT

    Orbital Energies [Eh]
    ---------------------

    Doubly Occupied:

       1A    -20.548689     2A    -20.534341     3A    -15.647940
       4A    -15.622651     5A    -11.420234     6A    -11.375896
       7A    -11.334335     8A    -11.297140     9A    -11.251053
      10A     -1.429670    11A     -1.384652    12A     -1.321264
      13A     -1.241815    14A     -1.088784    15A     -0.989201
      16A     -0.936838    17A     -0.872729    18A     -0.771936
      19A     -0.749105    20A     -0.704165    21A     -0.686234
      22A     -0.657737    23A     -0.639670    24A     -0.614767
      25A     -0.607897    26A     -0.593672    27A     -0.579276
      28A     -0.553622    29A     -0.509345    30A     -0.481538
      31A     -0.442561    32A     -0.430378    33A     -0.356919

  @DF-RHF Final Energy:  -451.65644428166439

   => Energetics <=

    Nuclear Repulsion Energy =            441.4873138727010087
    One-Electron Energy =               -1490.9354083144191918
    Two-Electron Energy =                 597.7916501600539050
    Total Energy =                       -451.6564442816643350
  Basis Set: (AUG-CC-PVTZ AUX)
    Blend: AUG-CC-PVTZ-RI
    Molecular point group: c1

    Geometry (in Angstrom), charge = 0, multiplicity = 1:

       Center              X                  Y                   Z               Mass
    ------------   -----------------  -----------------  -----------------  -----------------
         O           -1.420151979307     1.840483436101    -0.000000304757    15.994914619570
         O            2.848084820693     0.234618136101    -0.000054604757    15.994914619570
         N           -1.103325479307    -0.495745763899     0.000174495243    14.003074004430
         N            0.674815820693     0.958033136101     0.000285395243    14.003074004430
         C           -0.709095179307     0.839513136101    -0.000301604757    12.000000000000
         C           -0.264302179307    -1.541664863899     0.000047395243    12.000000000000
         C           -2.588324179307    -0.736856863899    -0.000067604757    12.000000000000
         C            1.078996820693    -1.383956863899     0.000079395243    12.000000000000
         C            1.650282820693    -0.045830863899    -0.000213604757    12.000000000000
         H           -0.736396179307    -2.519885863899     0.000182395243     1.007825032230
         H           -2.871468179307    -1.297866863899     0.893638395243     1.007825032230
         H           -2.870855179307    -1.298946863899    -0.893337604757     1.007825032230
         H           -3.088817179307     0.228619136101    -0.000812604757     1.007825032230
         H            1.014176820693     1.917608136101     0.000322395243     1.007825032230
         H            1.756635820693    -2.227811863899    -0.000081604757     1.007825032230

  Basis Set: AUG-CC-PVTZ
    Blend: AUG-CC-PVTZ
  Basis Set: (AUG-CC-PVTZ AUX)
    Blend: AUG-CC-PVTZ-JKFIT
	 Reference Energy          =    -451.6564442816643918 [Eh]
	 Singles Energy            =      -0.0000000000000000 [Eh]
	 Same-Spin Energy          =      -0.4584297933401592 [Eh]
	 Opposite-Spin Energy      =      -1.3851979700746004 [Eh]
	 Correlation Energy        =      -1.8436277634147595 [Eh]
	 Total Energy              =    -453.5000720450791505 [Eh]

	 ================> DF-SCS-MP2 Energies <==================
	-----------------------------------------------------------
	 SCS Same-Spin Scale       =       0.3333333333333333 [-]
	 SCS Opposite-Spin Scale   =       1.2000000000000000 [-]
	 SCS Same-Spin Energy      =      -0.1528099311133864 [Eh]
	 SCS Opposite-Spin Energy  =      -1.6622375640895204 [Eh]
	 SCS Correlation Energy    =      -1.8150474952029068 [Eh]
	 SCS Total Energy          =    -453.4714917768673104 [Eh]
	-----------------------------------------------------------

  Dipole Moment: [D]
     X:    -3.5952      Y:    -3.5627      Z:    -0.0008     Total:     5.0614

*** Psi4 exiting successfully. Buy a developer a beer!
