                               Psi4 1.3.2 release

  ==> Input File <==

--------------------------------------------------------------------------
#psi4
#
memory 32 gb

molecule  {
0 1
  O       -1.3945310     1.8555980     0.0000210
  O        2.9031291     0.2960198    -0.0000674
  N       -1.0895640    -0.4406340     0.0001970
  N        0.7349370     0.9985730     0.0002800
  C       -0.6489740     0.8800530    -0.0003070
  C       -0.2041810    -1.5011250     0.0000420
  C       -2.5282030    -0.6963170    -0.0000730
  C        1.1158515    -1.3332429     0.0000661
  C        1.7104040    -0.0052910    -0.0002190
  H       -0.6762750    -2.4793460     0.0001770
  H       -2.8113470    -1.2573270     0.8936330
  H       -2.8107340    -1.2584070    -0.8933430
  H       -3.0286960     0.2691590    -0.0008180
  H        1.0742980     1.9581480     0.0003170
  H        1.8167570    -2.1872720    -0.0000870
units angstrom
no_reorient  #important for SAPT in psi4, default
symmetry c1  #important for SAPT in psi4, default
}

set PROPERTIES_ORIGIN ["COM"]
properties('MP2/aug-cc-pvtz', properties = ['dipole'])
--------------------------------------------------------------------------

    Molecular point group: c1
  Charge       = 0
  Multiplicity = 1
  Basis Set: AUG-CC-PVTZ
    Blend: AUG-CC-PVTZ
  Basis Set: (AUG-CC-PVTZ AUX)
    Blend: AUG-CC-PVTZ-JKFIT

    Orbital Energies [Eh]
    ---------------------

    Doubly Occupied:

       1A    -20.544445     2A    -20.540541     3A    -15.642741
       4A    -15.625191     5A    -11.417428     6A    -11.381001
       7A    -11.334211     8A    -11.289240     9A    -11.256433
      10A     -1.427821    11A     -1.389146    12A     -1.312210
      13A     -1.244675    14A     -1.095744    15A     -0.988875
      16A     -0.930551    17A     -0.872257    18A     -0.772735
      19A     -0.751019    20A     -0.701656    21A     -0.684936
      22A     -0.656871    23A     -0.644185    24A     -0.614660
      25A     -0.605303    26A     -0.604773    27A     -0.568525
      28A     -0.554372    29A     -0.501004    30A     -0.479947
      31A     -0.446902    32A     -0.432343    33A     -0.363764

  @DF-RHF Final Energy:  -451.65983501554086

   => Energetics <=

    Nuclear Repulsion Energy =            441.6511641260113379
    One-Electron Energy =               -1491.2709913838168632
    Two-Electron Energy =                 597.9599922422646614
    Total Energy =                       -451.6598350155409207
  Basis Set: (AUG-CC-PVTZ AUX)
    Blend: AUG-CC-PVTZ-RI
    Molecular point group: c1

    Geometry (in Angstrom), charge = 0, multiplicity = 1:

       Center              X                  Y                   Z               Mass
    ------------   -----------------  -----------------  -----------------  -----------------
         O           -1.442264267689     1.813049710826     0.000021598562    15.994914619570
         O            2.855395832311     0.253471510826    -0.000066801438    15.994914619570
         N           -1.137297267689    -0.483182289174     0.000197598562    14.003074004430
         N            0.687203732311     0.956024710826     0.000280598562    14.003074004430
         C           -0.696707267689     0.837504710826    -0.000306401438    12.000000000000
         C           -0.251914267689    -1.543673289174     0.000042598562    12.000000000000
         C           -2.575936267689    -0.738865289174    -0.000072401438    12.000000000000
         C            1.068118232311    -1.375791189174     0.000066698562    12.000000000000
         C            1.662670732311    -0.047839289174    -0.000218401438    12.000000000000
         H           -0.724008267689    -2.521894289174     0.000177598562     1.007825032230
         H           -2.859080267689    -1.299875289174     0.893633598562     1.007825032230
         H           -2.858467267689    -1.300955289174    -0.893342401438     1.007825032230
         H           -3.076429267689     0.226610710826    -0.000817401438     1.007825032230
         H            1.026564732311     1.915599710826     0.000317598562     1.007825032230
         H            1.769023732311    -2.229820289174    -0.000086401438     1.007825032230

  Basis Set: AUG-CC-PVTZ
    Blend: AUG-CC-PVTZ
  Basis Set: (AUG-CC-PVTZ AUX)
    Blend: AUG-CC-PVTZ-JKFIT
	 Reference Energy          =    -451.6598350155408639 [Eh]
	 Singles Energy            =      -0.0000000000000000 [Eh]
	 Same-Spin Energy          =      -0.4579996353029457 [Eh]
	 Opposite-Spin Energy      =      -1.3845934088782494 [Eh]
	 Correlation Energy        =      -1.8425930441811951 [Eh]
	 Total Energy              =    -453.5024280597220354 [Eh]

	 ================> DF-SCS-MP2 Energies <==================
	-----------------------------------------------------------
	 SCS Same-Spin Scale       =       0.3333333333333333 [-]
	 SCS Opposite-Spin Scale   =       1.2000000000000000 [-]
	 SCS Same-Spin Energy      =      -0.1526665451009819 [Eh]
	 SCS Opposite-Spin Energy  =      -1.6615120906538994 [Eh]
	 SCS Correlation Energy    =      -1.8141786357548813 [Eh]
	 SCS Total Energy          =    -453.4740136512957633 [Eh]
	-----------------------------------------------------------

  Dipole Moment: [D]
     X:    -3.1836      Y:    -3.5957      Z:    -0.0008     Total:     4.8026

*** Psi4 exiting successfully. Buy a developer a beer!
