                               Psi4 1.3.2 release

  ==> Input File <==

--------------------------------------------------------------------------
#psi4
#
memory 32 gb

molecule  {
0 1
  O       -1.3945310     1.8555980     0.0000210
  O        2.9082060     0.2751580    -0.0000600
  N       -1.0895640    -0.4406340     0.0001970
  N        0.7349370     0.9985730     0.0002800
  C       -0.6489740     0.8800530    -0.0003070
  C       -0.2041810    -1.5011250     0.0000420
  C       -2.5282030    -0.6963170    -0.0000730
  C        1.1391180    -1.3434170     0.0000740
  C        1.6869635     0.0044755    -0.0002119
  H       -0.6762750    -2.4793460     0.0001770
  H       -2.8113470    -1.2573270     0.8936330
  H       -2.8107340    -1.2584070    -0.8933430
  H       -3.0286960     0.2691590    -0.0008180
  H        1.0742980     1.9581480     0.0003170
  H        1.8019265    -2.1989699    -0.0000812
units angstrom
no_reorient  #important for SAPT in psi4, default
symmetry c1  #important for SAPT in psi4, default
}

set PROPERTIES_ORIGIN ["COM"]
properties('MP2/aug-cc-pvtz', properties = ['dipole'])
--------------------------------------------------------------------------

    Molecular point group: c1
  Charge       = 0
  Multiplicity = 1
  Basis Set: AUG-CC-PVTZ
    Blend: AUG-CC-PVTZ
  Basis Set: (AUG-CC-PVTZ AUX)
    Blend: AUG-CC-PVTZ-JKFIT

    Orbital Energies [Eh]
    ---------------------

    Doubly Occupied:

       1A    -20.548108     2A    -20.533651     3A    -15.645975
       4A    -15.631110     5A    -11.421137     6A    -11.379558
       7A    -11.336747     8A    -11.291064     9A    -11.256972
      10A     -1.430869    11A     -1.376726    12A     -1.313430
      13A     -1.250653    14A     -1.092161    15A     -0.991572
      16A     -0.931542    17A     -0.878345    18A     -0.775244
      19A     -0.753280    20A     -0.700626    21A     -0.687349
      22A     -0.659095    23A     -0.641892    24A     -0.616735
      25A     -0.612005    26A     -0.596451    27A     -0.573216
      28A     -0.551061    29A     -0.500729    30A     -0.480480
      31A     -0.443842    32A     -0.432275    33A     -0.360586

  @DF-RHF Final Energy:  -451.65824295552363

   => Energetics <=

    Nuclear Repulsion Energy =            441.3626287365204917
    One-Electron Energy =               -1490.6527601089353539
    Two-Electron Energy =                 597.6318884168912291
    Total Energy =                       -451.6582429555236331
  Basis Set: (AUG-CC-PVTZ AUX)
    Blend: AUG-CC-PVTZ-RI
    Molecular point group: c1

    Geometry (in Angstrom), charge = 0, multiplicity = 1:

       Center              X                  Y                   Z               Mass
    ------------   -----------------  -----------------  -----------------  -----------------
         O           -1.442773380212     1.815829425273     0.000019185038    15.994914619570
         O            2.859963619788     0.235389425273    -0.000061814962    15.994914619570
         N           -1.137806380212    -0.480402574727     0.000195185038    14.003074004430
         N            0.686694619788     0.958804425273     0.000278185038    14.003074004430
         C           -0.697216380212     0.840284425273    -0.000308814962    12.000000000000
         C           -0.252423380212    -1.540893574727     0.000040185038    12.000000000000
         C           -2.576445380212    -0.736085574727    -0.000074814962    12.000000000000
         C            1.090875619788    -1.383185574727     0.000072185038    12.000000000000
         C            1.638721119788    -0.035293074727    -0.000213714962    12.000000000000
         H           -0.724517380212    -2.519114574727     0.000175185038     1.007825032230
         H           -2.859589380212    -1.297095574727     0.893631185038     1.007825032230
         H           -2.858976380212    -1.298175574727    -0.893344814962     1.007825032230
         H           -3.076938380212     0.229390425273    -0.000819814962     1.007825032230
         H            1.026055619788     1.918379425273     0.000315185038     1.007825032230
         H            1.753684119788    -2.238738474727    -0.000083014962     1.007825032230

  Basis Set: AUG-CC-PVTZ
    Blend: AUG-CC-PVTZ
  Basis Set: (AUG-CC-PVTZ AUX)
    Blend: AUG-CC-PVTZ-JKFIT
	 Reference Energy          =    -451.6582429555236331 [Eh]
	 Singles Energy            =      -0.0000000000000000 [Eh]
	 Same-Spin Energy          =      -0.4584558481534409 [Eh]
	 Opposite-Spin Energy      =      -1.3855288201511184 [Eh]
	 Correlation Energy        =      -1.8439846683045593 [Eh]
	 Total Energy              =    -453.5022276238282188 [Eh]

	 ================> DF-SCS-MP2 Energies <==================
	-----------------------------------------------------------
	 SCS Same-Spin Scale       =       0.3333333333333333 [-]
	 SCS Opposite-Spin Scale   =       1.2000000000000000 [-]
	 SCS Same-Spin Energy      =      -0.1528186160511469 [Eh]
	 SCS Opposite-Spin Energy  =      -1.6626345841813421 [Eh]
	 SCS Correlation Energy    =      -1.8154532002324890 [Eh]
	 SCS Total Energy          =    -453.4736961557561017 [Eh]
	-----------------------------------------------------------

  Dipole Moment: [D]
     X:    -3.4492      Y:    -3.4946      Z:    -0.0008     Total:     4.9101

*** Psi4 exiting successfully. Buy a developer a beer!
