                               Psi4 1.3.2 release

  ==> Input File <==

--------------------------------------------------------------------------
#psi4
#
memory 32 gb

molecule  {
0 1
  O       -1.3945310     1.8555980     0.0000210
  O        2.9082060     0.2751580    -0.0000600
  N       -1.0895640    -0.4406340     0.0001970
  N        0.7349370     0.9985730     0.0002800
  C       -0.6489740     0.8800530    -0.0003070
  C       -0.2088666    -1.4541485     0.0000304
  C       -2.5282030    -0.6963170    -0.0000730
  C        1.1391180    -1.3434170     0.0000740
  C        1.6633561     0.0138314    -0.0002261
  H       -0.6762750    -2.4793460     0.0001770
  H       -2.8113470    -1.2573270     0.8936330
  H       -2.8107340    -1.2584070    -0.8933430
  H       -3.0286960     0.2691590    -0.0008180
  H        1.0742980     1.9581480     0.0003170
  H        1.8167570    -2.1872720    -0.0000870
units angstrom
no_reorient  #important for SAPT in psi4, default
symmetry c1  #important for SAPT in psi4, default
}

set PROPERTIES_ORIGIN ["COM"]
properties('MP2/aug-cc-pvtz', properties = ['dipole'])
--------------------------------------------------------------------------

    Molecular point group: c1
  Charge       = 0
  Multiplicity = 1
  Basis Set: AUG-CC-PVTZ
    Blend: AUG-CC-PVTZ
  Basis Set: (AUG-CC-PVTZ AUX)
    Blend: AUG-CC-PVTZ-JKFIT

    Orbital Energies [Eh]
    ---------------------

    Doubly Occupied:

       1A    -20.552789     2A    -20.525204     3A    -15.651309
       4A    -15.635398     5A    -11.425245     6A    -11.375287
       7A    -11.336913     8A    -11.295459     9A    -11.254064
      10A     -1.437231    11A     -1.366023    12A     -1.324306
      13A     -1.255734    14A     -1.092078    15A     -0.998022
      16A     -0.934564    17A     -0.885378    18A     -0.780157
      19A     -0.755558    20A     -0.695991    21A     -0.694702
      22A     -0.662347    23A     -0.637708    24A     -0.620331
      25A     -0.614612    26A     -0.587546    27A     -0.576181
      28A     -0.548570    29A     -0.509046    30A     -0.481423
      31A     -0.437220    32A     -0.430194    33A     -0.357868

  @DF-RHF Final Energy:  -451.65182952953035

   => Energetics <=

    Nuclear Repulsion Energy =            442.5154240542959201
    One-Electron Energy =               -1492.8655956843672357
    Two-Electron Energy =                 598.6983421005410264
    Total Energy =                       -451.6518295295303460
  Basis Set: (AUG-CC-PVTZ AUX)
    Blend: AUG-CC-PVTZ-RI
    Molecular point group: c1

    Geometry (in Angstrom), charge = 0, multiplicity = 1:

       Center              X                  Y                   Z               Mass
    ------------   -----------------  -----------------  -----------------  -----------------
         O           -1.440198309501     1.810372726905     0.000021687720    15.994914619570
         O            2.862538690499     0.229932726905    -0.000059312280    15.994914619570
         N           -1.135231309501    -0.485859273095     0.000197687720    14.003074004430
         N            0.689269690499     0.953347726905     0.000280687720    14.003074004430
         C           -0.694641309501     0.834827726905    -0.000306312280    12.000000000000
         C           -0.254533909501    -1.499373773095     0.000031087720    12.000000000000
         C           -2.573870309501    -0.741542273095    -0.000072312280    12.000000000000
         C            1.093450690499    -1.388642273095     0.000074687720    12.000000000000
         C            1.617688790499    -0.031393873095    -0.000225412280    12.000000000000
         H           -0.721942309501    -2.524571273095     0.000177687720     1.007825032230
         H           -2.857014309501    -1.302552273095     0.893633687720     1.007825032230
         H           -2.856401309501    -1.303632273095    -0.893342312280     1.007825032230
         H           -3.074363309501     0.223933726905    -0.000817312280     1.007825032230
         H            1.028630690499     1.912922726905     0.000317687720     1.007825032230
         H            1.771089690499    -2.232497273095    -0.000086312280     1.007825032230

  Basis Set: AUG-CC-PVTZ
    Blend: AUG-CC-PVTZ
  Basis Set: (AUG-CC-PVTZ AUX)
    Blend: AUG-CC-PVTZ-JKFIT
	 Reference Energy          =    -451.6518295295303460 [Eh]
	 Singles Energy            =      -0.0000000000000000 [Eh]
	 Same-Spin Energy          =      -0.4591978428291187 [Eh]
	 Opposite-Spin Energy      =      -1.3860945929365984 [Eh]
	 Correlation Energy        =      -1.8452924357657170 [Eh]
	 Total Energy              =    -453.4971219652960599 [Eh]

	 ================> DF-SCS-MP2 Energies <==================
	-----------------------------------------------------------
	 SCS Same-Spin Scale       =       0.3333333333333333 [-]
	 SCS Opposite-Spin Scale   =       1.2000000000000000 [-]
	 SCS Same-Spin Energy      =      -0.1530659476097062 [Eh]
	 SCS Opposite-Spin Energy  =      -1.6633135115239182 [Eh]
	 SCS Correlation Energy    =      -1.8163794591336244 [Eh]
	 SCS Total Energy          =    -453.4682089886639460 [Eh]
	-----------------------------------------------------------

  Dipole Moment: [D]
     X:    -3.8408      Y:    -3.3502      Z:    -0.0008     Total:     5.0967

*** Psi4 exiting successfully. Buy a developer a beer!
