                               Psi4 1.3.2 release

  ==> Input File <==

--------------------------------------------------------------------------
#psi4
#
memory 32 gb

molecule  {
0 1
  O       -1.3945310     1.8555980     0.0000210
  O        2.9082060     0.2751580    -0.0000600
  N       -1.1260353    -0.4721794     0.0001920
  N        0.7349370     0.9985730     0.0002800
  C       -0.6489740     0.8800530    -0.0003070
  C       -0.2041810    -1.5011250     0.0000420
  C       -2.5282030    -0.6963170    -0.0000730
  C        1.1438036    -1.3903935     0.0000669
  C        1.7104040    -0.0052910    -0.0002190
  H       -0.6762750    -2.4793460     0.0001770
  H       -2.8113470    -1.2573270     0.8936330
  H       -2.8107340    -1.2584070    -0.8933430
  H       -3.0286960     0.2691590    -0.0008180
  H        1.0742980     1.9581480     0.0003170
  H        1.8167570    -2.1872720    -0.0000870
units angstrom
no_reorient  #important for SAPT in psi4, default
symmetry c1  #important for SAPT in psi4, default
}

set PROPERTIES_ORIGIN ["COM"]
properties('MP2/aug-cc-pvtz', properties = ['dipole'])
--------------------------------------------------------------------------

    Molecular point group: c1
  Charge       = 0
  Multiplicity = 1
  Basis Set: AUG-CC-PVTZ
    Blend: AUG-CC-PVTZ
  Basis Set: (AUG-CC-PVTZ AUX)
    Blend: AUG-CC-PVTZ-JKFIT

    Orbital Energies [Eh]
    ---------------------

    Doubly Occupied:

       1A    -20.551273     2A    -20.541313     3A    -15.644018
       4A    -15.631123     5A    -11.424209     6A    -11.383606
       7A    -11.334496     8A    -11.285295     9A    -11.256146
      10A     -1.428353    11A     -1.389613    12A     -1.311569
      13A     -1.249919    14A     -1.089501    15A     -0.986731
      16A     -0.921072    17A     -0.875201    18A     -0.770275
      19A     -0.754063    20A     -0.695978    21A     -0.684792
      22A     -0.665369    23A     -0.646876    24A     -0.621792
      25A     -0.616411    26A     -0.602066    27A     -0.568980
      28A     -0.553043    29A     -0.497342    30A     -0.480194
      31A     -0.445999    32A     -0.435497    33A     -0.358756

  @DF-RHF Final Energy:  -451.65451792239651

   => Energetics <=

    Nuclear Repulsion Energy =            439.7857180718875725
    One-Electron Energy =               -1487.4787308737970761
    Two-Electron Energy =                 596.0384948795128821
    Total Energy =                       -451.6545179223965079
  Basis Set: (AUG-CC-PVTZ AUX)
    Blend: AUG-CC-PVTZ-RI
    Molecular point group: c1

    Geometry (in Angstrom), charge = 0, multiplicity = 1:

       Center              X                  Y                   Z               Mass
    ------------   -----------------  -----------------  -----------------  -----------------
         O           -1.441517851108     1.824642764956     0.000021138822    15.994914619570
         O            2.861219148892     0.244202764956    -0.000059861178    15.994914619570
         N           -1.173022151108    -0.503134635044     0.000192138822    14.003074004430
         N            0.687950148892     0.967617764956     0.000280138822    14.003074004430
         C           -0.695960851108     0.849097764956    -0.000306861178    12.000000000000
         C           -0.251167851108    -1.532080235044     0.000042138822    12.000000000000
         C           -2.575189851108    -0.727272235044    -0.000072861178    12.000000000000
         C            1.096816748892    -1.421348735044     0.000067038822    12.000000000000
         C            1.663417148892    -0.036246235044    -0.000218861178    12.000000000000
         H           -0.723261851108    -2.510301235044     0.000177138822     1.007825032230
         H           -2.858333851108    -1.288282235044     0.893633138822     1.007825032230
         H           -2.857720851108    -1.289362235044    -0.893342861178     1.007825032230
         H           -3.075682851108     0.238203764956    -0.000817861178     1.007825032230
         H            1.027311148892     1.927192764956     0.000317138822     1.007825032230
         H            1.769770148892    -2.218227235044    -0.000086861178     1.007825032230

  Basis Set: AUG-CC-PVTZ
    Blend: AUG-CC-PVTZ
  Basis Set: (AUG-CC-PVTZ AUX)
    Blend: AUG-CC-PVTZ-JKFIT
	 Reference Energy          =    -451.6545179223965079 [Eh]
	 Singles Energy            =      -0.0000000000000000 [Eh]
	 Same-Spin Energy          =      -0.4578640801347050 [Eh]
	 Opposite-Spin Energy      =      -1.3850853488256099 [Eh]
	 Correlation Energy        =      -1.8429494289603148 [Eh]
	 Total Energy              =    -453.4974673513568177 [Eh]

	 ================> DF-SCS-MP2 Energies <==================
	-----------------------------------------------------------
	 SCS Same-Spin Scale       =       0.3333333333333333 [-]
	 SCS Opposite-Spin Scale   =       1.2000000000000000 [-]
	 SCS Same-Spin Energy      =      -0.1526213600449016 [Eh]
	 SCS Opposite-Spin Energy  =      -1.6621024185907318 [Eh]
	 SCS Correlation Energy    =      -1.8147237786356334 [Eh]
	 SCS Total Energy          =    -453.4692417010321606 [Eh]
	-----------------------------------------------------------

  Dipole Moment: [D]
     X:    -3.0920      Y:    -3.2492      Z:    -0.0009     Total:     4.4853

*** Psi4 exiting successfully. Buy a developer a beer!
