                               Psi4 1.3.2 release

  ==> Input File <==

--------------------------------------------------------------------------
#psi4
#
memory 32 gb

molecule  {
0 1
  O       -1.3945310     1.8555980     0.0000210
  O        2.9082060     0.2751580    -0.0000600
  N       -1.0895640    -0.4406340     0.0001970
  N        0.7349370     0.9985730     0.0002800
  C       -0.6374658     0.8761579    -0.0003113
  C       -0.1949603    -1.4933583     0.0000360
  C       -2.5282030    -0.6963170    -0.0000730
  C        1.1391180    -1.3434170     0.0000740
  C        1.7104040    -0.0052910    -0.0002190
  H       -0.6762750    -2.4793460     0.0001770
  H       -2.8113470    -1.2573270     0.8936330
  H       -2.8107340    -1.2584070    -0.8933430
  H       -3.0286960     0.2691590    -0.0008180
  H        1.0742980     1.9581480     0.0003170
  H        1.8167570    -2.1872720    -0.0000870
units angstrom
no_reorient  #important for SAPT in psi4, default
symmetry c1  #important for SAPT in psi4, default
}

set PROPERTIES_ORIGIN ["COM"]
properties('MP2/aug-cc-pvtz', properties = ['dipole'])
--------------------------------------------------------------------------

    Molecular point group: c1
  Charge       = 0
  Multiplicity = 1
  Basis Set: AUG-CC-PVTZ
    Blend: AUG-CC-PVTZ
  Basis Set: (AUG-CC-PVTZ AUX)
    Blend: AUG-CC-PVTZ-JKFIT

    Orbital Energies [Eh]
    ---------------------

    Doubly Occupied:

       1A    -20.542514     2A    -20.540271     3A    -15.644551
       4A    -15.628547     5A    -11.417901     6A    -11.381075
       7A    -11.336577     8A    -11.290115     9A    -11.255675
      10A     -1.425076    11A     -1.387976    12A     -1.310314
      13A     -1.248893    14A     -1.093851    15A     -0.990391
      16A     -0.929481    17A     -0.875367    18A     -0.773599
      19A     -0.753677    20A     -0.697167    21A     -0.685314
      22A     -0.657472    23A     -0.642602    24A     -0.615804
      25A     -0.610587    26A     -0.602914    27A     -0.571171
      28A     -0.552656    29A     -0.499921    30A     -0.477183
      31A     -0.446943    32A     -0.433383    33A     -0.362313

  @DF-RHF Final Energy:  -451.66012638003855

   => Energetics <=

    Nuclear Repulsion Energy =            441.3997373494839280
    One-Electron Energy =               -1490.7571622334089625
    Two-Electron Energy =                 597.6972985038863726
    Total Energy =                       -451.6601263800386050
  Basis Set: (AUG-CC-PVTZ AUX)
    Blend: AUG-CC-PVTZ-RI
    Molecular point group: c1

    Geometry (in Angstrom), charge = 0, multiplicity = 1:

       Center              X                  Y                   Z               Mass
    ------------   -----------------  -----------------  -----------------  -----------------
         O           -1.447097140063     1.816297118024     0.000020887992    15.994914619570
         O            2.855639859937     0.235857118024    -0.000060112008    15.994914619570
         N           -1.142130140063    -0.479934881976     0.000196887992    14.003074004430
         N            0.682370859937     0.959272118024     0.000279887992    14.003074004430
         C           -0.690031940063     0.836857018024    -0.000311412008    12.000000000000
         C           -0.247526440063    -1.532659181976     0.000035887992    12.000000000000
         C           -2.580769140063    -0.735617881976    -0.000073112008    12.000000000000
         C            1.086551859937    -1.382717881976     0.000073887992    12.000000000000
         C            1.657837859937    -0.044591881976    -0.000219112008    12.000000000000
         H           -0.728841140063    -2.518646881976     0.000176887992     1.007825032230
         H           -2.863913140063    -1.296627881976     0.893632887992     1.007825032230
         H           -2.863300140063    -1.297707881976    -0.893343112008     1.007825032230
         H           -3.081262140063     0.229858118024    -0.000818112008     1.007825032230
         H            1.021731859937     1.918847118024     0.000316887992     1.007825032230
         H            1.764190859937    -2.226572881976    -0.000087112008     1.007825032230

  Basis Set: AUG-CC-PVTZ
    Blend: AUG-CC-PVTZ
  Basis Set: (AUG-CC-PVTZ AUX)
    Blend: AUG-CC-PVTZ-JKFIT
	 Reference Energy          =    -451.6601263800385482 [Eh]
	 Singles Energy            =      -0.0000000000000000 [Eh]
	 Same-Spin Energy          =      -0.4580923891323843 [Eh]
	 Opposite-Spin Energy      =      -1.3848074332263509 [Eh]
	 Correlation Energy        =      -1.8428998223587352 [Eh]
	 Total Energy              =    -453.5030262023972796 [Eh]

	 ================> DF-SCS-MP2 Energies <==================
	-----------------------------------------------------------
	 SCS Same-Spin Scale       =       0.3333333333333333 [-]
	 SCS Opposite-Spin Scale   =       1.2000000000000000 [-]
	 SCS Same-Spin Energy      =      -0.1526974630441281 [Eh]
	 SCS Opposite-Spin Energy  =      -1.6617689198716210 [Eh]
	 SCS Correlation Energy    =      -1.8144663829157490 [Eh]
	 SCS Total Energy          =    -453.4745927629542734 [Eh]
	-----------------------------------------------------------

  Dipole Moment: [D]
     X:    -3.1313      Y:    -3.5896      Z:    -0.0009     Total:     4.7635

*** Psi4 exiting successfully. Buy a developer a beer!
