                               Psi4 1.3.2 release

  ==> Input File <==

--------------------------------------------------------------------------
#psi4
#
memory 32 gb

molecule  {
0 1
  O       -1.3945310     1.8555980     0.0000210
  O        2.9082060     0.2751580    -0.0000600
  N       -1.0895640    -0.4406340     0.0001970
  N        0.7349370     0.9985730     0.0002800
  C       -0.6489740     0.8800530    -0.0003070
  C       -0.1400925    -1.5778887     0.0000308
  C       -2.5282030    -0.6963170    -0.0000730
  C        1.1391180    -1.3434170     0.0000740
  C        1.7104040    -0.0052910    -0.0002190
  H       -0.6762750    -2.4793460     0.0001770
  H       -2.8113470    -1.2573270     0.8936330
  H       -2.8107340    -1.2584070    -0.8933430
  H       -3.0286960     0.2691590    -0.0008180
  H        1.0742980     1.9581480     0.0003170
  H        1.8167570    -2.1872720    -0.0000870
units angstrom
no_reorient  #important for SAPT in psi4, default
symmetry c1  #important for SAPT in psi4, default
}

set PROPERTIES_ORIGIN ["COM"]
properties('MP2/aug-cc-pvtz', properties = ['dipole'])
--------------------------------------------------------------------------

    Molecular point group: c1
  Charge       = 0
  Multiplicity = 1
  Basis Set: AUG-CC-PVTZ
    Blend: AUG-CC-PVTZ
  Basis Set: (AUG-CC-PVTZ AUX)
    Blend: AUG-CC-PVTZ-JKFIT

    Orbital Energies [Eh]
    ---------------------

    Doubly Occupied:

       1A    -20.547523     2A    -20.539469     3A    -15.633214
       4A    -15.625824     5A    -11.412550     6A    -11.387878
       7A    -11.333411     8A    -11.282890     9A    -11.260619
      10A     -1.422090    11A     -1.392807    12A     -1.290810
      13A     -1.238259    14A     -1.106955    15A     -0.979628
      16A     -0.925451    17A     -0.869020    18A     -0.768713
      19A     -0.750055    20A     -0.710032    21A     -0.674417
      22A     -0.656431    23A     -0.643611    24A     -0.616207
      25A     -0.612283    26A     -0.602131    27A     -0.555730
      28A     -0.554724    29A     -0.489483    30A     -0.478341
      31A     -0.450802    32A     -0.433331    33A     -0.373460

  @DF-RHF Final Energy:  -451.64992036637284

   => Energetics <=

    Nuclear Repulsion Energy =            439.8864757940579011
    One-Electron Energy =               -1487.8364879759694759
    Two-Electron Energy =                 596.3000918155386216
    Total Energy =                       -451.6499203663728395
  Basis Set: (AUG-CC-PVTZ AUX)
    Blend: AUG-CC-PVTZ-RI
    Molecular point group: c1

    Geometry (in Angstrom), charge = 0, multiplicity = 1:

       Center              X                  Y                   Z               Mass
    ------------   -----------------  -----------------  -----------------  -----------------
         O           -1.451225219366     1.823974054919     0.000020973677    15.994914619570
         O            2.851511780634     0.243534054919    -0.000060026323    15.994914619570
         N           -1.146258219366    -0.472257945081     0.000196973677    14.003074004430
         N            0.678242780634     0.966949054919     0.000279973677    14.003074004430
         C           -0.705668219366     0.848429054919    -0.000307026323    12.000000000000
         C           -0.196786719366    -1.609512645081     0.000030773677    12.000000000000
         C           -2.584897219366    -0.727940945081    -0.000073026323    12.000000000000
         C            1.082423780634    -1.375040945081     0.000073973677    12.000000000000
         C            1.653709780634    -0.036914945081    -0.000219026323    12.000000000000
         H           -0.732969219366    -2.510969945081     0.000176973677     1.007825032230
         H           -2.868041219366    -1.288950945081     0.893632973677     1.007825032230
         H           -2.867428219366    -1.290030945081    -0.893343026323     1.007825032230
         H           -3.085390219366     0.237535054919    -0.000818026323     1.007825032230
         H            1.017603780634     1.926524054919     0.000316973677     1.007825032230
         H            1.760062780634    -2.218895945081    -0.000087026323     1.007825032230

  Basis Set: AUG-CC-PVTZ
    Blend: AUG-CC-PVTZ
  Basis Set: (AUG-CC-PVTZ AUX)
    Blend: AUG-CC-PVTZ-JKFIT
	 Reference Energy          =    -451.6499203663728395 [Eh]
	 Singles Energy            =      -0.0000000000000000 [Eh]
	 Same-Spin Energy          =      -0.4571018669962885 [Eh]
	 Opposite-Spin Energy      =      -1.3848157819280744 [Eh]
	 Correlation Energy        =      -1.8419176489243629 [Eh]
	 Total Energy              =    -453.4918380152972190 [Eh]

	 ================> DF-SCS-MP2 Energies <==================
	-----------------------------------------------------------
	 SCS Same-Spin Scale       =       0.3333333333333333 [-]
	 SCS Opposite-Spin Scale   =       1.2000000000000000 [-]
	 SCS Same-Spin Energy      =      -0.1523672889987628 [Eh]
	 SCS Opposite-Spin Energy  =      -1.6617789383136892 [Eh]
	 SCS Correlation Energy    =      -1.8141462273124520 [Eh]
	 SCS Total Energy          =    -453.4640665936852884 [Eh]
	-----------------------------------------------------------

  Dipole Moment: [D]
     X:    -2.7126      Y:    -3.7649      Z:    -0.0009     Total:     4.6403

*** Psi4 exiting successfully. Buy a developer a beer!
