                               Psi4 1.3.2 release

  ==> Input File <==

--------------------------------------------------------------------------
#psi4
#
memory 32 gb

molecule  {
0 1
  O       -1.3945310     1.8555980     0.0000210
  O        2.9082060     0.2751580    -0.0000600
  N       -1.0895640    -0.4406340     0.0001970
  N        0.7349370     0.9985730     0.0002800
  C       -0.6489740     0.8800530    -0.0003070
  C       -0.2041810    -1.5011250     0.0000420
  C       -2.6266601    -0.7138154    -0.0000915
  C        1.1391180    -1.3434170     0.0000740
  C        1.7104040    -0.0052910    -0.0002190
  H       -0.6762750    -2.4793460     0.0001770
  H       -2.8113470    -1.2573270     0.8936330
  H       -2.8107340    -1.2584070    -0.8933430
  H       -3.0286960     0.2691590    -0.0008180
  H        1.0742980     1.9581480     0.0003170
  H        1.8167570    -2.1872720    -0.0000870
units angstrom
no_reorient  #important for SAPT in psi4, default
symmetry c1  #important for SAPT in psi4, default
}

set PROPERTIES_ORIGIN ["COM"]
properties('MP2/aug-cc-pvtz', properties = ['dipole'])
--------------------------------------------------------------------------

    Molecular point group: c1
  Charge       = 0
  Multiplicity = 1
  Basis Set: AUG-CC-PVTZ
    Blend: AUG-CC-PVTZ
  Basis Set: (AUG-CC-PVTZ AUX)
    Blend: AUG-CC-PVTZ-JKFIT

    Orbital Energies [Eh]
    ---------------------

    Doubly Occupied:

       1A    -20.542630     2A    -20.535673     3A    -15.640304
       4A    -15.623795     5A    -11.415264     6A    -11.376874
       7A    -11.334442     8A    -11.295475     9A    -11.252228
      10A     -1.423626    11A     -1.385104    12A     -1.300674
      13A     -1.237906    14A     -1.084694    15A     -0.993815
      16A     -0.925139    17A     -0.871353    18A     -0.766686
      19A     -0.744637    20A     -0.696591    21A     -0.682280
      22A     -0.652538    23A     -0.635156    24A     -0.624865
      25A     -0.619898    26A     -0.588217    27A     -0.578235
      28A     -0.554710    29A     -0.502773    30A     -0.476777
      31A     -0.443219    32A     -0.430733    33A     -0.357606

  @DF-RHF Final Energy:  -451.65313494487151

   => Energetics <=

    Nuclear Repulsion Energy =            439.2051099201270858
    One-Electron Energy =               -1486.5286593332498342
    Two-Electron Energy =                 595.6704144682511242
    Total Energy =                       -451.6531349448715673
  Basis Set: (AUG-CC-PVTZ AUX)
    Blend: AUG-CC-PVTZ-RI
    Molecular point group: c1

    Geometry (in Angstrom), charge = 0, multiplicity = 1:

       Center              X                  Y                   Z               Mass
    ------------   -----------------  -----------------  -----------------  -----------------
         O           -1.435749958361     1.818331662962     0.000021668679    15.994914619570
         O            2.866987041639     0.237891662962    -0.000059331321    15.994914619570
         N           -1.130782958361    -0.477900337038     0.000197668679    14.003074004430
         N            0.693718041639     0.961306662962     0.000280668679    14.003074004430
         C           -0.690192958361     0.842786662962    -0.000306331321    12.000000000000
         C           -0.245399958361    -1.538391337038     0.000042668679    12.000000000000
         C           -2.667879058361    -0.751081737038    -0.000090831321    12.000000000000
         C            1.097899041639    -1.380683337038     0.000074668679    12.000000000000
         C            1.669185041639    -0.042557337038    -0.000218331321    12.000000000000
         H           -0.717493958361    -2.516612337038     0.000177668679     1.007825032230
         H           -2.852565958361    -1.294593337038     0.893633668679     1.007825032230
         H           -2.851952958361    -1.295673337038    -0.893342331321     1.007825032230
         H           -3.069914958361     0.231892662962    -0.000817331321     1.007825032230
         H            1.033079041639     1.920881662962     0.000317668679     1.007825032230
         H            1.775538041639    -2.224538337038    -0.000086331321     1.007825032230

  Basis Set: AUG-CC-PVTZ
    Blend: AUG-CC-PVTZ
  Basis Set: (AUG-CC-PVTZ AUX)
    Blend: AUG-CC-PVTZ-JKFIT
	 Reference Energy          =    -451.6531349448715105 [Eh]
	 Singles Energy            =      -0.0000000000000000 [Eh]
	 Same-Spin Energy          =      -0.4577112015940452 [Eh]
	 Opposite-Spin Energy      =      -1.3849773057373740 [Eh]
	 Correlation Energy        =      -1.8426885073314192 [Eh]
	 Total Energy              =    -453.4958234522029557 [Eh]

	 ================> DF-SCS-MP2 Energies <==================
	-----------------------------------------------------------
	 SCS Same-Spin Scale       =       0.3333333333333333 [-]
	 SCS Opposite-Spin Scale   =       1.2000000000000000 [-]
	 SCS Same-Spin Energy      =      -0.1525704005313484 [Eh]
	 SCS Opposite-Spin Energy  =      -1.6619727668848487 [Eh]
	 SCS Correlation Energy    =      -1.8145431674161971 [Eh]
	 SCS Total Energy          =    -453.4676781122877287 [Eh]
	-----------------------------------------------------------

  Dipole Moment: [D]
     X:    -3.5712      Y:    -3.6425      Z:    -0.0009     Total:     5.1011

*** Psi4 exiting successfully. Buy a developer a beer!
