                               Psi4 1.3.2 release

  ==> Input File <==

--------------------------------------------------------------------------
#psi4
#
memory 32 gb

molecule  {
0 1
  O       -1.3945310     1.8555980     0.0000210
  O        2.9082060     0.2751580    -0.0000600
  N       -1.0895640    -0.4406340     0.0001970
  N        0.7262139     0.9900223     0.0002845
  C       -0.6489740     0.8800530    -0.0003070
  C       -0.2041810    -1.5011250     0.0000420
  C       -2.5282030    -0.6963170    -0.0000730
  C        1.1274626    -1.3383807     0.0000800
  C        1.7104040    -0.0052910    -0.0002190
  H       -0.6762750    -2.4793460     0.0001770
  H       -2.8113470    -1.2573270     0.8936330
  H       -2.8107340    -1.2584070    -0.8933430
  H       -3.0286960     0.2691590    -0.0008180
  H        1.0742980     1.9581480     0.0003170
  H        1.8167570    -2.1872720    -0.0000870
units angstrom
no_reorient  #important for SAPT in psi4, default
symmetry c1  #important for SAPT in psi4, default
}

set PROPERTIES_ORIGIN ["COM"]
properties('MP2/aug-cc-pvtz', properties = ['dipole'])
--------------------------------------------------------------------------

    Molecular point group: c1
  Charge       = 0
  Multiplicity = 1
  Basis Set: AUG-CC-PVTZ
    Blend: AUG-CC-PVTZ
  Basis Set: (AUG-CC-PVTZ AUX)
    Blend: AUG-CC-PVTZ-JKFIT

    Orbital Energies [Eh]
    ---------------------

    Doubly Occupied:

       1A    -20.544366     2A    -20.540848     3A    -15.642955
       4A    -15.627413     5A    -11.417337     6A    -11.381134
       7A    -11.335113     8A    -11.289186     9A    -11.255576
      10A     -1.428671    11A     -1.388926    12A     -1.312389
      13A     -1.246736    14A     -1.093140    15A     -0.989506
      16A     -0.929710    17A     -0.874900    18A     -0.771821
      19A     -0.750448    20A     -0.699497    21A     -0.685506
      22A     -0.657406    23A     -0.644315    24A     -0.615377
      25A     -0.607174    26A     -0.603262    27A     -0.569409
      28A     -0.554452    29A     -0.499914    30A     -0.479697
      31A     -0.447374    32A     -0.433717    33A     -0.361815

  @DF-RHF Final Energy:  -451.65993766238427

   => Energetics <=

    Nuclear Repulsion Energy =            441.6064000219065520
    One-Electron Energy =               -1491.1744885027078453
    Two-Electron Energy =                 597.9081508184169707
    Total Energy =                       -451.6599376623842090
  Basis Set: (AUG-CC-PVTZ AUX)
    Blend: AUG-CC-PVTZ-RI
    Molecular point group: c1

    Geometry (in Angstrom), charge = 0, multiplicity = 1:

       Center              X                  Y                   Z               Mass
    ------------   -----------------  -----------------  -----------------  -----------------
         O           -1.443044855455     1.817136194734     0.000018836200    15.994914619570
         O            2.859692144545     0.236696194734    -0.000062163800    15.994914619570
         N           -1.138077855455    -0.479095805266     0.000194836200    14.003074004430
         N            0.677700044545     0.951560494734     0.000282336200    14.003074004430
         C           -0.697487855455     0.841591194734    -0.000309163800    12.000000000000
         C           -0.252694855455    -1.539586805266     0.000039836200    12.000000000000
         C           -2.576716855455    -0.734778805266    -0.000075163800    12.000000000000
         C            1.078948744545    -1.376842505266     0.000077836200    12.000000000000
         C            1.661890144545    -0.043752805266    -0.000221163800    12.000000000000
         H           -0.724788855455    -2.517807805266     0.000174836200     1.007825032230
         H           -2.859860855455    -1.295788805266     0.893630836200     1.007825032230
         H           -2.859247855455    -1.296868805266    -0.893345163800     1.007825032230
         H           -3.077209855455     0.230697194734    -0.000820163800     1.007825032230
         H            1.025784144545     1.919686194734     0.000314836200     1.007825032230
         H            1.768243144545    -2.225733805266    -0.000089163800     1.007825032230

  Basis Set: AUG-CC-PVTZ
    Blend: AUG-CC-PVTZ
  Basis Set: (AUG-CC-PVTZ AUX)
    Blend: AUG-CC-PVTZ-JKFIT
	 Reference Energy          =    -451.6599376623842659 [Eh]
	 Singles Energy            =      -0.0000000000000000 [Eh]
	 Same-Spin Energy          =      -0.4582038815095785 [Eh]
	 Opposite-Spin Energy      =      -1.3848980417822025 [Eh]
	 Correlation Energy        =      -1.8431019232917811 [Eh]
	 Total Energy              =    -453.5030395856760492 [Eh]

	 ================> DF-SCS-MP2 Energies <==================
	-----------------------------------------------------------
	 SCS Same-Spin Scale       =       0.3333333333333333 [-]
	 SCS Opposite-Spin Scale   =       1.2000000000000000 [-]
	 SCS Same-Spin Energy      =      -0.1527346271698595 [Eh]
	 SCS Opposite-Spin Energy  =      -1.6618776501386430 [Eh]
	 SCS Correlation Energy    =      -1.8146122773085025 [Eh]
	 SCS Total Energy          =    -453.4745499396927926 [Eh]
	-----------------------------------------------------------

  Dipole Moment: [D]
     X:    -3.1699      Y:    -3.5363      Z:    -0.0009     Total:     4.7491

*** Psi4 exiting successfully. Buy a developer a beer!
