                               Psi4 1.3.2 release

  ==> Input File <==

--------------------------------------------------------------------------
#psi4
#
memory 32 gb

molecule  {
0 1
  O       -1.3945310     1.8555980     0.0000210
  O        2.9082060     0.2751580    -0.0000600
  N       -1.0895640    -0.4406340     0.0001970
  N        0.7349370     0.9985730     0.0002800
  C       -0.6439947     0.8318274    -0.0002993
  C       -0.2041810    -1.5011250     0.0000420
  C       -2.5282030    -0.6963170    -0.0000730
  C        1.1391180    -1.3434170     0.0000740
  C        1.7104040    -0.0052910    -0.0002190
  H       -0.6762750    -2.4793460     0.0001770
  H       -2.8113470    -1.2573270     0.8936330
  H       -2.8107340    -1.2584070    -0.8933430
  H       -3.0286960     0.2691590    -0.0008180
  H        1.1075800     1.9457199     0.0003329
  H        1.8167570    -2.1872720    -0.0000870
units angstrom
no_reorient  #important for SAPT in psi4, default
symmetry c1  #important for SAPT in psi4, default
}

set PROPERTIES_ORIGIN ["COM"]
properties('MP2/aug-cc-pvtz', properties = ['dipole'])
--------------------------------------------------------------------------

    Molecular point group: c1
  Charge       = 0
  Multiplicity = 1
  Basis Set: AUG-CC-PVTZ
    Blend: AUG-CC-PVTZ
  Basis Set: (AUG-CC-PVTZ AUX)
    Blend: AUG-CC-PVTZ-JKFIT

    Orbital Energies [Eh]
    ---------------------

    Doubly Occupied:

       1A    -20.540571     2A    -20.533482     3A    -15.651394
       4A    -15.628287     5A    -11.417009     6A    -11.380301
       7A    -11.340245     8A    -11.293546     9A    -11.261612
      10A     -1.418747    11A     -1.384756    12A     -1.309161
      13A     -1.246272    14A     -1.095335    15A     -0.999416
      16A     -0.938036    17A     -0.870526    18A     -0.780952
      19A     -0.754228    20A     -0.701691    21A     -0.690344
      22A     -0.656301    23A     -0.636372    24A     -0.615007
      25A     -0.610949    26A     -0.603703    27A     -0.574438
      28A     -0.549683    29A     -0.498256    30A     -0.471496
      31A     -0.443767    32A     -0.428722    33A     -0.365455

  @DF-RHF Final Energy:  -451.65472179658241

   => Energetics <=

    Nuclear Repulsion Energy =            441.4748784021861070
    One-Electron Energy =               -1490.8790766144395548
    Two-Electron Energy =                 597.7494764156710971
    Total Energy =                       -451.6547217965824075
  Basis Set: (AUG-CC-PVTZ AUX)
    Blend: AUG-CC-PVTZ-RI
    Molecular point group: c1

    Geometry (in Angstrom), charge = 0, multiplicity = 1:

       Center              X                  Y                   Z               Mass
    ------------   -----------------  -----------------  -----------------  -----------------
         O           -1.445863808131     1.821356439981     0.000019047156    15.994914619570
         O            2.856873191869     0.240916439981    -0.000061952844    15.994914619570
         N           -1.140896808131    -0.474875560019     0.000195047156    14.003074004430
         N            0.683604191869     0.964331439981     0.000278047156    14.003074004430
         C           -0.695327508131     0.797585839981    -0.000301252844    12.000000000000
         C           -0.255513808131    -1.535366560019     0.000040047156    12.000000000000
         C           -2.579535808131    -0.730558560019    -0.000074952844    12.000000000000
         C            1.087785191869    -1.377658560019     0.000072047156    12.000000000000
         C            1.659071191869    -0.039532560019    -0.000220952844    12.000000000000
         H           -0.727607808131    -2.513587560019     0.000175047156     1.007825032230
         H           -2.862679808131    -1.291568560019     0.893631047156     1.007825032230
         H           -2.862066808131    -1.292648560019    -0.893344952844     1.007825032230
         H           -3.080028808131     0.234917439981    -0.000819952844     1.007825032230
         H            1.056247191869     1.911478339981     0.000330947156     1.007825032230
         H            1.765424191869    -2.221513560019    -0.000088952844     1.007825032230

  Basis Set: AUG-CC-PVTZ
    Blend: AUG-CC-PVTZ
  Basis Set: (AUG-CC-PVTZ AUX)
    Blend: AUG-CC-PVTZ-JKFIT
	 Reference Energy          =    -451.6547217965824075 [Eh]
	 Singles Energy            =      -0.0000000000000000 [Eh]
	 Same-Spin Energy          =      -0.4585771742777782 [Eh]
	 Opposite-Spin Energy      =      -1.3859267983885084 [Eh]
	 Correlation Energy        =      -1.8445039726662866 [Eh]
	 Total Energy              =    -453.4992257692487101 [Eh]

	 ================> DF-SCS-MP2 Energies <==================
	-----------------------------------------------------------
	 SCS Same-Spin Scale       =       0.3333333333333333 [-]
	 SCS Opposite-Spin Scale   =       1.2000000000000000 [-]
	 SCS Same-Spin Energy      =      -0.1528590580925927 [Eh]
	 SCS Opposite-Spin Energy  =      -1.6631121580662100 [Eh]
	 SCS Correlation Energy    =      -1.8159712161588029 [Eh]
	 SCS Total Energy          =    -453.4706930127412079 [Eh]
	-----------------------------------------------------------

  Dipole Moment: [D]
     X:    -3.0765      Y:    -3.9892      Z:    -0.0007     Total:     5.0377

*** Psi4 exiting successfully. Buy a developer a beer!
