                               Psi4 1.3.2 release

  ==> Input File <==

--------------------------------------------------------------------------
#psi4
#
memory 32 gb

molecule  {
0 1
  O       -1.3945310     1.8555980     0.0000210
  O        2.9082060     0.2751580    -0.0000600
  N       -1.0895640    -0.4406340     0.0001970
  N        0.7349370     0.9985730     0.0002800
  C       -0.6489740     0.8800530    -0.0003070
  C       -0.2041810    -1.5011250     0.0000420
  C       -2.5282030    -0.6963170    -0.0000730
  C        1.1391180    -1.3434170     0.0000740
  C        1.7104040    -0.0052910    -0.0002190
  H       -0.6762750    -2.4793460     0.0001770
  H       -2.8113470    -1.2573270     0.8936330
  H       -2.7996036    -1.2727895    -0.8876097
  H       -3.0202782     0.2733488     0.0156692
  H        1.0742980     1.9581480     0.0003170
  H        1.8167570    -2.1872720    -0.0000870
units angstrom
no_reorient  #important for SAPT in psi4, default
symmetry c1  #important for SAPT in psi4, default
}

set PROPERTIES_ORIGIN ["COM"]
properties('MP2/aug-cc-pvtz', properties = ['dipole'])
--------------------------------------------------------------------------

    Molecular point group: c1
  Charge       = 0
  Multiplicity = 1
  Basis Set: AUG-CC-PVTZ
    Blend: AUG-CC-PVTZ
  Basis Set: (AUG-CC-PVTZ AUX)
    Blend: AUG-CC-PVTZ-JKFIT

    Orbital Energies [Eh]
    ---------------------

    Doubly Occupied:

       1A    -20.545575     2A    -20.538813     3A    -15.644247
       4A    -15.626588     5A    -11.418557     6A    -11.379852
       7A    -11.337093     8A    -11.290053     9A    -11.256162
      10A     -1.428442    11A     -1.388151    12A     -1.312366
      13A     -1.245685    14A     -1.091206    15A     -0.989712
      16A     -0.930733    17A     -0.872244    18A     -0.772151
      19A     -0.751959    20A     -0.699837    21A     -0.685088
      22A     -0.657755    23A     -0.644047    24A     -0.614865
      25A     -0.611015    26A     -0.602093    27A     -0.572709
      28A     -0.554150    29A     -0.499113    30A     -0.480014
      31A     -0.446151    32A     -0.433109    33A     -0.360560

  @DF-RHF Final Energy:  -451.66038476518122

   => Energetics <=

    Nuclear Repulsion Energy =            441.2144386394532489
    One-Electron Energy =               -1490.3894570726954498
    Two-Electron Energy =                 597.5146336680610375
    Total Energy =                       -451.6603847651812202
  Basis Set: (AUG-CC-PVTZ AUX)
    Blend: AUG-CC-PVTZ-RI
    Molecular point group: c1

    Geometry (in Angstrom), charge = 0, multiplicity = 1:

       Center              X                  Y                   Z               Mass
    ------------   -----------------  -----------------  -----------------  -----------------
         O           -1.445279936676     1.816747215934    -0.000157765238    15.994914619570
         O            2.857457063324     0.236307215934    -0.000238765238    15.994914619570
         N           -1.140312936676    -0.479484784066     0.000018234762    14.003074004430
         N            0.684188063324     0.959722215934     0.000101234762    14.003074004430
         C           -0.699722936676     0.841202215934    -0.000485765238    12.000000000000
         C           -0.254929936676    -1.539975784066    -0.000136765238    12.000000000000
         C           -2.578951936676    -0.735167784066    -0.000251765238    12.000000000000
         C            1.088369063324    -1.382267784066    -0.000104765238    12.000000000000
         C            1.659655063324    -0.044141784066    -0.000397765238    12.000000000000
         H           -0.727023936676    -2.518196784066    -0.000001765238     1.007825032230
         H           -2.862095936676    -1.296177784066     0.893454234762     1.007825032230
         H           -2.850352536676    -1.311640284066    -0.887788465238     1.007825032230
         H           -3.071027136676     0.234498015934     0.015490434762     1.007825032230
         H            1.023549063324     1.919297215934     0.000138234762     1.007825032230
         H            1.766008063324    -2.226122784066    -0.000265765238     1.007825032230

  Basis Set: AUG-CC-PVTZ
    Blend: AUG-CC-PVTZ
  Basis Set: (AUG-CC-PVTZ AUX)
    Blend: AUG-CC-PVTZ-JKFIT
	 Reference Energy          =    -451.6603847651812202 [Eh]
	 Singles Energy            =      -0.0000000000000000 [Eh]
	 Same-Spin Energy          =      -0.4580780389456688 [Eh]
	 Opposite-Spin Energy      =      -1.3848489760416649 [Eh]
	 Correlation Energy        =      -1.8429270149873336 [Eh]
	 Total Energy              =    -453.5033117801685307 [Eh]

	 ================> DF-SCS-MP2 Energies <==================
	-----------------------------------------------------------
	 SCS Same-Spin Scale       =       0.3333333333333333 [-]
	 SCS Opposite-Spin Scale   =       1.2000000000000000 [-]
	 SCS Same-Spin Energy      =      -0.1526926796485563 [Eh]
	 SCS Opposite-Spin Energy  =      -1.6618187712499979 [Eh]
	 SCS Correlation Energy    =      -1.8145114508985540 [Eh]
	 SCS Total Energy          =    -453.4748962160797987 [Eh]
	-----------------------------------------------------------

  Dipole Moment: [D]
     X:    -3.2279      Y:    -3.5455      Z:     0.0101     Total:     4.7948

*** Psi4 exiting successfully. Buy a developer a beer!
