                               Psi4 1.3.2 release

  ==> Input File <==

--------------------------------------------------------------------------
#psi4
#
memory 32 gb

molecule  {
0 1
  O       -1.3945310     1.8555980     0.0000210
  O        2.9082060     0.2751580    -0.0000600
  N       -1.0895640    -0.4406340     0.0001970
  N        0.7349370     0.9985730     0.0002800
  C       -0.6489740     0.8800530    -0.0003070
  C       -0.2041810    -1.5011250     0.0000420
  C       -2.5282030    -0.6963170    -0.0000730
  C        1.1376906    -1.3317007     0.0000721
  C        1.7104040    -0.0052910    -0.0002190
  H       -0.6847935    -2.4751890     0.0001760
  H       -2.8113470    -1.2573270     0.8936330
  H       -2.8107340    -1.2584070    -0.8933430
  H       -3.0286960     0.2691590    -0.0008180
  H        1.0742980     1.9581480     0.0003170
  H        1.8167570    -2.1872720    -0.0000870
units angstrom
no_reorient  #important for SAPT in psi4, default
symmetry c1  #important for SAPT in psi4, default
}

set PROPERTIES_ORIGIN ["COM"]
properties('MP2/aug-cc-pvtz', properties = ['dipole'])
--------------------------------------------------------------------------

    Molecular point group: c1
  Charge       = 0
  Multiplicity = 1
  Basis Set: AUG-CC-PVTZ
    Blend: AUG-CC-PVTZ
  Basis Set: (AUG-CC-PVTZ AUX)
    Blend: AUG-CC-PVTZ-JKFIT

    Orbital Energies [Eh]
    ---------------------

    Doubly Occupied:

       1A    -20.545319     2A    -20.538415     3A    -15.644459
       4A    -15.626277     5A    -11.418393     6A    -11.379080
       7A    -11.337931     8A    -11.290116     9A    -11.256106
      10A     -1.428356    11A     -1.388041    12A     -1.312625
      13A     -1.245656    14A     -1.091805    15A     -0.989941
      16A     -0.932359    17A     -0.871944    18A     -0.772152
      19A     -0.751997    20A     -0.700791    21A     -0.685388
      22A     -0.657169    23A     -0.644214    24A     -0.615143
      25A     -0.608550    26A     -0.603037    27A     -0.570687
      28A     -0.554465    29A     -0.499504    30A     -0.480196
      31A     -0.446386    32A     -0.432902    33A     -0.360666

  @DF-RHF Final Energy:  -451.66006258522282

   => Energetics <=

    Nuclear Repulsion Energy =            441.3935799487598501
    One-Electron Energy =               -1490.7471437413694275
    Two-Electron Energy =                 597.6935012073867028
    Total Energy =                       -451.6600625852228177
  Basis Set: (AUG-CC-PVTZ AUX)
    Blend: AUG-CC-PVTZ-RI
    Molecular point group: c1

    Geometry (in Angstrom), charge = 0, multiplicity = 1:

       Center              X                  Y                   Z               Mass
    ------------   -----------------  -----------------  -----------------  -----------------
         O           -1.444919621950     1.815517019286     0.000020096260    15.994914619570
         O            2.857817378050     0.235077019286    -0.000060903740    15.994914619570
         N           -1.139952621950    -0.480714980714     0.000196096260    14.003074004430
         N            0.684548378050     0.958492019286     0.000279096260    14.003074004430
         C           -0.699362621950     0.839972019286    -0.000307903740    12.000000000000
         C           -0.254569621950    -1.541205980714     0.000041096260    12.000000000000
         C           -2.578591621950    -0.736397980714    -0.000073903740    12.000000000000
         C            1.087301978050    -1.371781680714     0.000071196260    12.000000000000
         C            1.660015378050    -0.045371980714    -0.000219903740    12.000000000000
         H           -0.735182121950    -2.515269980714     0.000175096260     1.007825032230
         H           -2.861735621950    -1.297407980714     0.893632096260     1.007825032230
         H           -2.861122621950    -1.298487980714    -0.893343903740     1.007825032230
         H           -3.079084621950     0.229078019286    -0.000818903740     1.007825032230
         H            1.023909378050     1.918067019286     0.000316096260     1.007825032230
         H            1.766368378050    -2.227352980714    -0.000087903740     1.007825032230

  Basis Set: AUG-CC-PVTZ
    Blend: AUG-CC-PVTZ
  Basis Set: (AUG-CC-PVTZ AUX)
    Blend: AUG-CC-PVTZ-JKFIT
	 Reference Energy          =    -451.6600625852228177 [Eh]
	 Singles Energy            =      -0.0000000000000000 [Eh]
	 Same-Spin Energy          =      -0.4582332907022731 [Eh]
	 Opposite-Spin Energy      =      -1.3849913740156763 [Eh]
	 Correlation Energy        =      -1.8432246647179493 [Eh]
	 Total Energy              =    -453.5032872499407404 [Eh]

	 ================> DF-SCS-MP2 Energies <==================
	-----------------------------------------------------------
	 SCS Same-Spin Scale       =       0.3333333333333333 [-]
	 SCS Opposite-Spin Scale   =       1.2000000000000000 [-]
	 SCS Same-Spin Energy      =      -0.1527444302340910 [Eh]
	 SCS Opposite-Spin Energy  =      -1.6619896488188115 [Eh]
	 SCS Correlation Energy    =      -1.8147340790529025 [Eh]
	 SCS Total Energy          =    -453.4747966642757433 [Eh]
	-----------------------------------------------------------

  Dipole Moment: [D]
     X:    -3.2601      Y:    -3.5562      Z:    -0.0009     Total:     4.8244

*** Psi4 exiting successfully. Buy a developer a beer!
