                               Psi4 1.3.2 release

  ==> Input File <==

--------------------------------------------------------------------------
#psi4
#
memory 32 gb

molecule  {
0 1
  O       -1.3945310     1.8555980     0.0000210
  O        2.9082060     0.2751580    -0.0000600
  N       -1.0895640    -0.4406340     0.0001970
  N        0.7349370     0.9985730     0.0002800
  C       -0.6489740     0.8800530    -0.0003070
  C       -0.2041810    -1.5011250     0.0000420
  C       -2.5282030    -0.6963170    -0.0000730
  C        1.1416658    -1.3668848     0.0000778
  C        1.7104040    -0.0052910    -0.0002190
  H       -0.6591308    -2.4874362     0.0001790
  H       -2.8113470    -1.2573270     0.8936330
  H       -2.8107340    -1.2584070    -0.8933430
  H       -3.0286960     0.2691590    -0.0008180
  H        1.0742980     1.9581480     0.0003170
  H        1.8167570    -2.1872720    -0.0000870
units angstrom
no_reorient  #important for SAPT in psi4, default
symmetry c1  #important for SAPT in psi4, default
}

set PROPERTIES_ORIGIN ["COM"]
properties('MP2/aug-cc-pvtz', properties = ['dipole'])
--------------------------------------------------------------------------

    Molecular point group: c1
  Charge       = 0
  Multiplicity = 1
  Basis Set: AUG-CC-PVTZ
    Blend: AUG-CC-PVTZ
  Basis Set: (AUG-CC-PVTZ AUX)
    Blend: AUG-CC-PVTZ-JKFIT

    Orbital Energies [Eh]
    ---------------------

    Doubly Occupied:

       1A    -20.545858     2A    -20.539564     3A    -15.644592
       4A    -15.627157     5A    -11.418841     6A    -11.381285
       7A    -11.335675     8A    -11.289790     9A    -11.256321
      10A     -1.428406    11A     -1.388285    12A     -1.311817
      13A     -1.245645    14A     -1.090012    15A     -0.989185
      16A     -0.927490    17A     -0.873188    18A     -0.771850
      19A     -0.752832    20A     -0.698131    21A     -0.684943
      22A     -0.659359    23A     -0.644229    24A     -0.614556
      25A     -0.614256    26A     -0.599909    27A     -0.573636
      28A     -0.553739    29A     -0.499334    30A     -0.479523
      31A     -0.445467    32A     -0.433374    33A     -0.360661

  @DF-RHF Final Energy:  -451.66030324671937

   => Energetics <=

    Nuclear Repulsion Energy =            440.7485453073697386
    One-Electron Energy =               -1489.4598797674636899
    Two-Electron Energy =                 597.0510312133744719
    Total Energy =                       -451.6603032467194225
  Basis Set: (AUG-CC-PVTZ AUX)
    Blend: AUG-CC-PVTZ-RI
    Molecular point group: c1

    Geometry (in Angstrom), charge = 0, multiplicity = 1:

       Center              X                  Y                   Z               Mass
    ------------   -----------------  -----------------  -----------------  -----------------
         O           -1.445503279541     1.818964671951     0.000019529601    15.994914619570
         O            2.857233720459     0.238524671951    -0.000061470399    15.994914619570
         N           -1.140536279541    -0.477267328049     0.000195529601    14.003074004430
         N            0.683964720459     0.961939671951     0.000278529601    14.003074004430
         C           -0.699946279541     0.843419671951    -0.000308470399    12.000000000000
         C           -0.255153279541    -1.537758328049     0.000040529601    12.000000000000
         C           -2.579175279541    -0.732950328049    -0.000074470399    12.000000000000
         C            1.090693520459    -1.403518128049     0.000076329601    12.000000000000
         C            1.659431720459    -0.041924328049    -0.000220470399    12.000000000000
         H           -0.710103079541    -2.524069528049     0.000177529601     1.007825032230
         H           -2.862319279541    -1.293960328049     0.893631529601     1.007825032230
         H           -2.861706279541    -1.295040328049    -0.893344470399     1.007825032230
         H           -3.079668279541     0.232525671951    -0.000819470399     1.007825032230
         H            1.023325720459     1.921514671951     0.000315529601     1.007825032230
         H            1.765784720459    -2.223905328049    -0.000088470399     1.007825032230

  Basis Set: AUG-CC-PVTZ
    Blend: AUG-CC-PVTZ
  Basis Set: (AUG-CC-PVTZ AUX)
    Blend: AUG-CC-PVTZ-JKFIT
	 Reference Energy          =    -451.6603032467193657 [Eh]
	 Singles Energy            =      -0.0000000000000000 [Eh]
	 Same-Spin Energy          =      -0.4577303158329058 [Eh]
	 Opposite-Spin Energy      =      -1.3845518094849156 [Eh]
	 Correlation Energy        =      -1.8422821253178214 [Eh]
	 Total Energy              =    -453.5025853720371742 [Eh]

	 ================> DF-SCS-MP2 Energies <==================
	-----------------------------------------------------------
	 SCS Same-Spin Scale       =       0.3333333333333333 [-]
	 SCS Opposite-Spin Scale   =       1.2000000000000000 [-]
	 SCS Same-Spin Energy      =      -0.1525767719443019 [Eh]
	 SCS Opposite-Spin Energy  =      -1.6614621713818987 [Eh]
	 SCS Correlation Energy    =      -1.8140389433262005 [Eh]
	 SCS Total Energy          =    -453.4743421900455473 [Eh]
	-----------------------------------------------------------

  Dipole Moment: [D]
     X:    -3.1881      Y:    -3.5077      Z:    -0.0009     Total:     4.7401

*** Psi4 exiting successfully. Buy a developer a beer!
