                               Psi4 1.4a3.dev225

  ==> Input File <==

--------------------------------------------------------------------------
#psi4
#
memory 32 gb

molecule  {
0 1
  O       -1.4350980    -1.8086910     0.0000000
  O        2.9075840    -0.3082450     0.0000000
  N       -1.0785060     0.4619330     0.0000000
  N        0.7249750    -1.0056720    -0.0000010
  C       -0.6517050    -0.8641080     0.0000000
  C       -0.1841290     1.5083600     0.0000000
  C       -2.4751180     0.6659391     0.0000000
  C        1.1582900     1.3329580     0.0000000
  C        1.7164880    -0.0081480     0.0000000
  H       -0.6338540     2.4967290    -0.0000010
  H       -2.9690000     0.2175100    -0.8862740
  H       -2.7140630     1.7465080     0.0000000
  H       -2.9689990     0.2175090     0.8862740
  H        1.0585810    -1.9665760     0.0000000
  H        1.8360540     2.1766110     0.0000000
units angstrom
no_reorient  #important for SAPT in psi4, default
symmetry c1  #important for SAPT in psi4, default
}

set PROPERTIES_ORIGIN ["COM"]
properties('MP2/aug-cc-pvtz', properties = ['dipole'])
--------------------------------------------------------------------------

    Molecular point group: c1
  Charge       = 0
  Multiplicity = 1
  Basis Set: AUG-CC-PVTZ
    Blend: AUG-CC-PVTZ
  Basis Set: (AUG-CC-PVTZ AUX)
    Blend: AUG-CC-PVTZ-JKFIT

    Orbital Energies [Eh]
    ---------------------

    Doubly Occupied:

       1A    -20.547684     2A    -20.539978     3A    -15.646437
       4A    -15.628014     5A    -11.417844     6A    -11.381139
       7A    -11.339575     8A    -11.291567     9A    -11.255331
      10A     -1.432129    11A     -1.390329    12A     -1.319486
      13A     -1.250144    14A     -1.094882    15A     -0.987953
      16A     -0.934418    17A     -0.872330    18A     -0.775820
      19A     -0.755774    20A     -0.702849    21A     -0.689192
      22A     -0.663272    23A     -0.647440    24A     -0.610152
      25A     -0.607635    26A     -0.604650    27A     -0.568952
      28A     -0.549625    29A     -0.499514    30A     -0.481885
      31A     -0.447488    32A     -0.433946    33A     -0.359502

  @DF-RHF Final Energy:  -451.65856957055138

   => Energetics <=

    Nuclear Repulsion Energy =            442.6297911383509813
    One-Electron Energy =               -1493.1228530176658751
    Two-Electron Energy =                 598.8344923087635152
    Total Energy =                       -451.6585695705513217
  Basis Set: (AUG-CC-PVTZ AUX)
    Blend: AUG-CC-PVTZ-RI
    Molecular point group: c1

    Geometry (in Angstrom), charge = 0, multiplicity = 1:

       Center              X                  Y                   Z               Mass
    ------------   -----------------  -----------------  -----------------  -----------------
         O           -1.490050596337    -1.769595805239     0.000000119094    15.994914619570
         O            2.852631403663    -0.269149805239     0.000000119094    15.994914619570
         N           -1.133458596337     0.501028194761     0.000000119094    14.003074004430
         N            0.670022403663    -0.966576805239    -0.000000880906    14.003074004430
         C           -0.706657596337    -0.825012805239     0.000000119094    12.000000000000
         C           -0.239081596337     1.547455194761     0.000000119094    12.000000000000
         C           -2.530070596337     0.705034294761     0.000000119094    12.000000000000
         C            1.103337403663     1.372053194761     0.000000119094    12.000000000000
         C            1.661535403663     0.030947194761     0.000000119094    12.000000000000
         H           -0.688806596337     2.535824194761    -0.000000880906     1.007825032230
         H           -3.023952596337     0.256605194761    -0.886273880906     1.007825032230
         H           -2.769015596337     1.785603194761     0.000000119094     1.007825032230
         H           -3.023951596337     0.256604194761     0.886274119094     1.007825032230
         H            1.003628403663    -1.927480805239     0.000000119094     1.007825032230
         H            1.781101403663     2.215706194761     0.000000119094     1.007825032230

  Basis Set: AUG-CC-PVTZ
    Blend: AUG-CC-PVTZ
  Basis Set: (AUG-CC-PVTZ AUX)
    Blend: AUG-CC-PVTZ-JKFIT
	 Reference Energy          =    -451.6585695705513785 [Eh]
	 Singles Energy            =      -0.0000000000000000 [Eh]
	 Same-Spin Energy          =      -0.4584611375790315 [Eh]
	 Opposite-Spin Energy      =      -1.3849925291176413 [Eh]
	 Correlation Energy        =      -1.8434536666966728 [Eh]
	 Total Energy              =    -453.5020232372480677 [Eh]

	 ================> DF-SCS-MP2 Energies <==================
	-----------------------------------------------------------
	 SCS Same-Spin Scale       =       0.3333333333333333 [-]
	 SCS Opposite-Spin Scale   =       1.2000000000000000 [-]
	 SCS Same-Spin Energy      =      -0.1528203791930105 [Eh]
	 SCS Opposite-Spin Energy  =      -1.6619910349411695 [Eh]
	 SCS Correlation Energy    =      -1.8148114141341800 [Eh]
	 SCS Total Energy          =    -453.4733809846855479 [Eh]
	-----------------------------------------------------------

  Dipole Moment: [D]
     X:    -3.0515      Y:     3.5165      Z:     0.0000     Total:     4.6559

*** Psi4 exiting successfully. Buy a developer a beer!
