                               Psi4 1.3.2 release

  ==> Input File <==

--------------------------------------------------------------------------
#psi4
#
memory 32 gb

molecule  {
0 1
  O       -1.3945310     1.8555980     0.0000210
  O        2.9082060     0.2751580    -0.0000600
  N       -1.0895640    -0.4406340     0.0001970
  N        0.7349370     0.9985730     0.0002800
  C       -0.6489740     0.8800530    -0.0003070
  C       -0.2134691    -1.5088109     0.0000387
  C       -2.5259170    -0.7088616    -0.0000760
  C        1.1391180    -1.3434170     0.0000740
  C        1.7104040    -0.0052910    -0.0002190
  H       -0.6762750    -2.4793460     0.0001770
  H       -2.8113470    -1.2573270     0.8936330
  H       -2.8107340    -1.2584070    -0.8933430
  H       -3.0286960     0.2691590    -0.0008180
  H        1.0742980     1.9581480     0.0003170
  H        1.8167570    -2.1872720    -0.0000870
units angstrom
no_reorient  #important for SAPT in psi4, default
symmetry c1  #important for SAPT in psi4, default
}

set PROPERTIES_ORIGIN ["COM"]
properties('MP2/aug-cc-pvtz', properties = ['dipole'])
--------------------------------------------------------------------------

    Molecular point group: c1
  Charge       = 0
  Multiplicity = 1
  Basis Set: AUG-CC-PVTZ
    Blend: AUG-CC-PVTZ
  Basis Set: (AUG-CC-PVTZ AUX)
    Blend: AUG-CC-PVTZ-JKFIT

    Orbital Energies [Eh]
    ---------------------

    Doubly Occupied:

       1A    -20.545763     2A    -20.538554     3A    -15.644883
       4A    -15.626696     5A    -11.419139     6A    -11.379769
       7A    -11.337838     8A    -11.289777     9A    -11.256978
      10A     -1.428398    11A     -1.387959    12A     -1.312474
      13A     -1.245793    14A     -1.088685    15A     -0.989789
      16A     -0.932130    17A     -0.871913    18A     -0.771608
      19A     -0.752096    20A     -0.702490    21A     -0.686076
      22A     -0.657910    23A     -0.643911    24A     -0.616613
      25A     -0.609396    26A     -0.601926    27A     -0.568784
      28A     -0.554544    29A     -0.499483    30A     -0.480364
      31A     -0.446046    32A     -0.433059    33A     -0.359244

  @DF-RHF Final Energy:  -451.65955273757515

   => Energetics <=

    Nuclear Repulsion Energy =            440.9695327327934251
    One-Electron Energy =               -1489.8979923806514307
    Two-Electron Energy =                 597.2689069102829080
    Total Energy =                       -451.6595527375751544
  Basis Set: (AUG-CC-PVTZ AUX)
    Blend: AUG-CC-PVTZ-RI
    Molecular point group: c1

    Geometry (in Angstrom), charge = 0, multiplicity = 1:

       Center              X                  Y                   Z               Mass
    ------------   -----------------  -----------------  -----------------  -----------------
         O           -1.444456991927     1.818591774344     0.000020507169    15.994914619570
         O            2.858280008073     0.238151774344    -0.000060492831    15.994914619570
         N           -1.139489991927    -0.477640225656     0.000196507169    14.003074004430
         N            0.685011008073     0.961566774344     0.000279507169    14.003074004430
         C           -0.698899991927     0.843046774344    -0.000307492831    12.000000000000
         C           -0.263395091927    -1.545817125656     0.000038207169    12.000000000000
         C           -2.575842991927    -0.745867825656    -0.000076492831    12.000000000000
         C            1.089192008073    -1.380423225656     0.000073507169    12.000000000000
         C            1.660478008073    -0.042297225656    -0.000219492831    12.000000000000
         H           -0.726200991927    -2.516352225656     0.000176507169     1.007825032230
         H           -2.861272991927    -1.294333225656     0.893632507169     1.007825032230
         H           -2.860659991927    -1.295413225656    -0.893343492831     1.007825032230
         H           -3.078621991927     0.232152774344    -0.000818492831     1.007825032230
         H            1.024372008073     1.921141774344     0.000316507169     1.007825032230
         H            1.766831008073    -2.224278225656    -0.000087492831     1.007825032230

  Basis Set: AUG-CC-PVTZ
    Blend: AUG-CC-PVTZ
  Basis Set: (AUG-CC-PVTZ AUX)
    Blend: AUG-CC-PVTZ-JKFIT
	 Reference Energy          =    -451.6595527375751544 [Eh]
	 Singles Energy            =      -0.0000000000000000 [Eh]
	 Same-Spin Energy          =      -0.4582092837271434 [Eh]
	 Opposite-Spin Energy      =      -1.3851474437007900 [Eh]
	 Correlation Energy        =      -1.8433567274279334 [Eh]
	 Total Energy              =    -453.5029094650030856 [Eh]

	 ================> DF-SCS-MP2 Energies <==================
	-----------------------------------------------------------
	 SCS Same-Spin Scale       =       0.3333333333333333 [-]
	 SCS Opposite-Spin Scale   =       1.2000000000000000 [-]
	 SCS Same-Spin Energy      =      -0.1527364279090478 [Eh]
	 SCS Opposite-Spin Energy  =      -1.6621769324409479 [Eh]
	 SCS Correlation Energy    =      -1.8149133603499956 [Eh]
	 SCS Total Energy          =    -453.4744660979251307 [Eh]
	-----------------------------------------------------------

  Dipole Moment: [D]
     X:    -3.2498      Y:    -3.5439      Z:    -0.0009     Total:     4.8084

*** Psi4 exiting successfully. Buy a developer a beer!
