                               Psi4 1.4a3.dev225

  ==> Input File <==

--------------------------------------------------------------------------
#psi4
#
memory 32 gb

molecule  {
0 1
  O       -1.4350980    -1.8086910     0.0000000
  O        2.9075840    -0.3082450     0.0000000
  N       -1.0785060     0.4619330     0.0000000
  N        0.7249750    -1.0056720    -0.0000010
  C       -0.6389375    -0.8487135     0.0000000
  C       -0.1841290     1.5083600     0.0000000
  C       -2.5245930     0.6731660     0.0000000
  C        1.1582900     1.3329580     0.0000000
  C        1.7164880    -0.0081480     0.0000000
  H       -0.6338540     2.4967290    -0.0000010
  H       -2.9690000     0.2175100    -0.8862740
  H       -2.7140630     1.7465080     0.0000000
  H       -2.9689990     0.2175090     0.8862740
  H        1.0585810    -1.9665760     0.0000000
  H        1.8360540     2.1766110     0.0000000
units angstrom
no_reorient  #important for SAPT in psi4, default
symmetry c1  #important for SAPT in psi4, default
}

set PROPERTIES_ORIGIN ["COM"]
properties('MP2/aug-cc-pvtz', properties = ['dipole'])
--------------------------------------------------------------------------

    Molecular point group: c1
  Charge       = 0
  Multiplicity = 1
  Basis Set: AUG-CC-PVTZ
    Blend: AUG-CC-PVTZ
  Basis Set: (AUG-CC-PVTZ AUX)
    Blend: AUG-CC-PVTZ-JKFIT

    Orbital Energies [Eh]
    ---------------------

    Doubly Occupied:

       1A    -20.540452     2A    -20.540100     3A    -15.647076
       4A    -15.629037     5A    -11.415555     6A    -11.381110
       7A    -11.339460     8A    -11.293527     9A    -11.255411
      10A     -1.423203    11A     -1.387662    12A     -1.309544
      13A     -1.249947    14A     -1.092590    15A     -0.991737
      16A     -0.933688    17A     -0.874405    18A     -0.775925
      19A     -0.753526    20A     -0.701716    21A     -0.687074
      22A     -0.657048    23A     -0.639709    24A     -0.611657
      25A     -0.609035    26A     -0.603651    27A     -0.578501
      28A     -0.547507    29A     -0.502993    30A     -0.475990
      31A     -0.446455    32A     -0.432008    33A     -0.360032

  @DF-RHF Final Energy:  -451.65982032877849

   => Energetics <=

    Nuclear Repulsion Energy =            441.7054199571634854
    One-Electron Energy =               -1491.3558204283176565
    Two-Electron Energy =                 597.9905801423756202
    Total Energy =                       -451.6598203287785509
  Basis Set: (AUG-CC-PVTZ AUX)
    Blend: AUG-CC-PVTZ-RI
    Molecular point group: c1

    Geometry (in Angstrom), charge = 0, multiplicity = 1:

       Center              X                  Y                   Z               Mass
    ------------   -----------------  -----------------  -----------------  -----------------
         O           -1.486555834600    -1.771749490539     0.000000119094    15.994914619570
         O            2.856126165400    -0.271303490539     0.000000119094    15.994914619570
         N           -1.129963834600     0.498874509461     0.000000119094    14.003074004430
         N            0.673517165400    -0.968730490539    -0.000000880906    14.003074004430
         C           -0.690395334600    -0.811771990539     0.000000119094    12.000000000000
         C           -0.235586834600     1.545301509461     0.000000119094    12.000000000000
         C           -2.576050834600     0.710107509461     0.000000119094    12.000000000000
         C            1.106832165400     1.369899509461     0.000000119094    12.000000000000
         C            1.665030165400     0.028793509461     0.000000119094    12.000000000000
         H           -0.685311834600     2.533670509461    -0.000000880906     1.007825032230
         H           -3.020457834600     0.254451509461    -0.886273880906     1.007825032230
         H           -2.765520834600     1.783449509461     0.000000119094     1.007825032230
         H           -3.020456834600     0.254450509461     0.886274119094     1.007825032230
         H            1.007123165400    -1.929634490539     0.000000119094     1.007825032230
         H            1.784596165400     2.213552509461     0.000000119094     1.007825032230

  Basis Set: AUG-CC-PVTZ
    Blend: AUG-CC-PVTZ
  Basis Set: (AUG-CC-PVTZ AUX)
    Blend: AUG-CC-PVTZ-JKFIT
	 Reference Energy          =    -451.6598203287784941 [Eh]
	 Singles Energy            =      -0.0000000000000000 [Eh]
	 Same-Spin Energy          =      -0.4582985442864927 [Eh]
	 Opposite-Spin Energy      =      -1.3851416514561015 [Eh]
	 Correlation Energy        =      -1.8434401957425941 [Eh]
	 Total Energy              =    -453.5032605245210675 [Eh]

	 ================> DF-SCS-MP2 Energies <==================
	-----------------------------------------------------------
	 SCS Same-Spin Scale       =       0.3333333333333333 [-]
	 SCS Opposite-Spin Scale   =       1.2000000000000000 [-]
	 SCS Same-Spin Energy      =      -0.1527661814288309 [Eh]
	 SCS Opposite-Spin Energy  =      -1.6621699817473217 [Eh]
	 SCS Correlation Energy    =      -1.8149361631761525 [Eh]
	 SCS Total Energy          =    -453.4747564919546221 [Eh]
	-----------------------------------------------------------

  Dipole Moment: [D]
     X:    -3.0917      Y:     3.7028      Z:     0.0000     Total:     4.8238

*** Psi4 exiting successfully. Buy a developer a beer!
