                               Psi4 1.3.2 release

  ==> Input File <==

--------------------------------------------------------------------------
#psi4
#
memory 32 gb

molecule  {
0 1
  O        0.8108760    -1.0055400     0.0000200
  O        0.4978050     1.2581890     0.0000550
  N       -1.2743362    -0.2082807     0.2999320
  C        0.0409300     0.1256900    -0.0000440
  H       -1.5681090    -1.1717340     0.0000060
  H       -1.9567890     0.5320990     0.0000450
  H        1.7301120    -0.6777840     0.0000950
units angstrom
no_reorient  #important for SAPT in psi4, default
symmetry c1  #important for SAPT in psi4, default
}

set PROPERTIES_ORIGIN ["COM"]
properties('MP2/aug-cc-pvtz', properties = ['dipole'])
--------------------------------------------------------------------------

    Molecular point group: c1
  Charge       = 0
  Multiplicity = 1
  Basis Set: AUG-CC-PVTZ
    Blend: AUG-CC-PVTZ
  Basis Set: (AUG-CC-PVTZ AUX)
    Blend: AUG-CC-PVTZ-JKFIT

    Orbital Energies [Eh]
    ---------------------

    Doubly Occupied:

       1A    -20.620438     2A    -20.544271     3A    -15.607728
       4A    -11.420972     5A     -1.467311     6A     -1.359244
       7A     -1.212535     8A     -0.851150     9A     -0.739751
      10A     -0.705470    11A     -0.657854    12A     -0.638519
      13A     -0.605567    14A     -0.508346    15A     -0.468590
      16A     -0.445131

  @DF-RHF Final Energy:  -243.91554920409192

   => Energetics <=

    Nuclear Repulsion Energy =            122.0327907839888297
    One-Electron Energy =                -576.1909205000658858
    Two-Electron Energy =                 210.2425805119851248
    Total Energy =                       -243.9155492040919171
  Basis Set: (AUG-CC-PVTZ AUX)
    Blend: AUG-CC-PVTZ-RI
    Molecular point group: c1

    Geometry (in Angstrom), charge = 0, multiplicity = 1:

       Center              X                  Y                   Z               Mass
    ------------   -----------------  -----------------  -----------------  -----------------
         O            0.781868272338    -1.026929032212    -0.068826904186    15.994914619570
         O            0.468797272338     1.236799967788    -0.068791904186    15.994914619570
         N           -1.303343927662    -0.229669732212     0.231085095814    14.003074004430
         C            0.011922272338     0.104300967788    -0.068890904186    12.000000000000
         H           -1.597116727662    -1.193123032212    -0.068840904186     1.007825032230
         H           -1.985796727662     0.510709967788    -0.068801904186     1.007825032230
         H            1.701104272338    -0.699173032212    -0.068751904186     1.007825032230

  Basis Set: AUG-CC-PVTZ
    Blend: AUG-CC-PVTZ
  Basis Set: (AUG-CC-PVTZ AUX)
    Blend: AUG-CC-PVTZ-JKFIT
	 Reference Energy          =    -243.9155492040919171 [Eh]
	 Singles Energy            =      -0.0000000000000000 [Eh]
	 Same-Spin Energy          =      -0.2322359002779952 [Eh]
	 Opposite-Spin Energy      =      -0.6903634607100968 [Eh]
	 Correlation Energy        =      -0.9225993609880920 [Eh]
	 Total Energy              =    -244.8381485650800187 [Eh]

	 ================> DF-SCS-MP2 Energies <==================
	-----------------------------------------------------------
	 SCS Same-Spin Scale       =       0.3333333333333333 [-]
	 SCS Opposite-Spin Scale   =       1.2000000000000000 [-]
	 SCS Same-Spin Energy      =      -0.0774119667593317 [Eh]
	 SCS Opposite-Spin Energy  =      -0.8284361528521161 [Eh]
	 SCS Correlation Energy    =      -0.9058481196114478 [Eh]
	 SCS Total Energy          =    -244.8213973237033656 [Eh]
	-----------------------------------------------------------

  Dipole Moment: [D]
     X:    -1.2604      Y:    -1.7976      Z:    -0.7532     Total:     2.3211

*** Psi4 exiting successfully. Buy a developer a beer!
