                               Psi4 1.3.2 release

  ==> Input File <==

--------------------------------------------------------------------------
#psi4
#
memory 32 gb

molecule  {
0 1
  O        0.8108760    -1.0055400     0.0000200
  O        0.4978050     1.2581890     0.0000550
  N       -1.2743235    -0.2082751     0.0499320
  C        0.0409300     0.1256900    -0.0000440
  H       -1.5681090    -1.1717340     0.0000060
  H       -1.9567890     0.5320990     0.0000450
  H        1.7301120    -0.6777840     0.0000950
units angstrom
no_reorient  #important for SAPT in psi4, default
symmetry c1  #important for SAPT in psi4, default
}

set PROPERTIES_ORIGIN ["COM"]
properties('MP2/aug-cc-pvtz', properties = ['dipole'])
--------------------------------------------------------------------------

    Molecular point group: c1
  Charge       = 0
  Multiplicity = 1
  Basis Set: AUG-CC-PVTZ
    Blend: AUG-CC-PVTZ
  Basis Set: (AUG-CC-PVTZ AUX)
    Blend: AUG-CC-PVTZ-JKFIT

    Orbital Energies [Eh]
    ---------------------

    Doubly Occupied:

       1A    -20.616537     2A    -20.535284     3A    -15.599373
       4A    -11.416683     5A     -1.464590     6A     -1.354251
       7A     -1.225751     8A     -0.861330     9A     -0.759084
      10A     -0.706840    11A     -0.667302    12A     -0.646227
      13A     -0.606551    14A     -0.504684    15A     -0.463312
      16A     -0.435702

  @DF-RHF Final Energy:  -243.92553322630994

   => Energetics <=

    Nuclear Repulsion Energy =            122.9306620716492517
    One-Electron Energy =                -577.9853886265382243
    Two-Electron Energy =                 211.1291933285790492
    Total Energy =                       -243.9255332263099376
  Basis Set: (AUG-CC-PVTZ AUX)
    Blend: AUG-CC-PVTZ-RI
    Molecular point group: c1

    Geometry (in Angstrom), charge = 0, multiplicity = 1:

       Center              X                  Y                   Z               Mass
    ------------   -----------------  -----------------  -----------------  -----------------
         O            0.781865357726    -1.026930317395    -0.011452661460    15.994914619570
         O            0.468794357726     1.236798682605    -0.011417661460    15.994914619570
         N           -1.303334142274    -0.229665417395     0.038459338540    14.003074004430
         C            0.011919357726     0.104299682605    -0.011516661460    12.000000000000
         H           -1.597119642274    -1.193124317395    -0.011466661460     1.007825032230
         H           -1.985799642274     0.510708682605    -0.011427661460     1.007825032230
         H            1.701101357726    -0.699174317395    -0.011377661460     1.007825032230

  Basis Set: AUG-CC-PVTZ
    Blend: AUG-CC-PVTZ
  Basis Set: (AUG-CC-PVTZ AUX)
    Blend: AUG-CC-PVTZ-JKFIT
	 Reference Energy          =    -243.9255332263099376 [Eh]
	 Singles Energy            =      -0.0000000000000000 [Eh]
	 Same-Spin Energy          =      -0.2316399562314172 [Eh]
	 Opposite-Spin Energy      =      -0.6875780648766864 [Eh]
	 Correlation Energy        =      -0.9192180211081036 [Eh]
	 Total Energy              =    -244.8447512474180314 [Eh]

	 ================> DF-SCS-MP2 Energies <==================
	-----------------------------------------------------------
	 SCS Same-Spin Scale       =       0.3333333333333333 [-]
	 SCS Opposite-Spin Scale   =       1.2000000000000000 [-]
	 SCS Same-Spin Energy      =      -0.0772133187438057 [Eh]
	 SCS Opposite-Spin Energy  =      -0.8250936778520236 [Eh]
	 SCS Correlation Energy    =      -0.9023069965958294 [Eh]
	 SCS Total Energy          =    -244.8278402229057633 [Eh]
	-----------------------------------------------------------

  Dipole Moment: [D]
     X:    -1.5567      Y:    -1.9174      Z:    -0.1325     Total:     2.4733

*** Psi4 exiting successfully. Buy a developer a beer!
