                               Psi4 1.3.2 release

  ==> Input File <==

--------------------------------------------------------------------------
#psi4
#
memory 32 gb

molecule  {
0 1
  O        0.8108760    -1.0055400     0.0000200
  O        0.4978050     1.2581890     0.0000550
  N       -1.2743337    -0.2082796     0.2499320
  C        0.0409300     0.1256900    -0.0000440
  H       -1.5681090    -1.1717340     0.0000060
  H       -1.9567890     0.5320990     0.0000450
  H        1.7301120    -0.6777840     0.0000950
units angstrom
no_reorient  #important for SAPT in psi4, default
symmetry c1  #important for SAPT in psi4, default
}

set PROPERTIES_ORIGIN ["COM"]
properties('MP2/aug-cc-pvtz', properties = ['dipole'])
--------------------------------------------------------------------------

    Molecular point group: c1
  Charge       = 0
  Multiplicity = 1
  Basis Set: AUG-CC-PVTZ
    Blend: AUG-CC-PVTZ
  Basis Set: (AUG-CC-PVTZ AUX)
    Blend: AUG-CC-PVTZ-JKFIT

    Orbital Energies [Eh]
    ---------------------

    Doubly Occupied:

       1A    -20.619323     2A    -20.541687     3A    -15.604943
       4A    -11.419715     5A     -1.466543     6A     -1.357812
       7A     -1.216696     8A     -0.853904     9A     -0.745017
      10A     -0.705775    11A     -0.660184    12A     -0.641981
      13A     -0.606151    14A     -0.507208    15A     -0.467104
      16A     -0.442366

  @DF-RHF Final Energy:  -243.91939206211771

   => Energetics <=

    Nuclear Repulsion Energy =            122.3076803670941786
    One-Electron Energy =                -576.7413260622842017
    Two-Electron Energy =                 210.5142536330723146
    Total Energy =                       -243.9193920621177085
  Basis Set: (AUG-CC-PVTZ AUX)
    Blend: AUG-CC-PVTZ-RI
    Molecular point group: c1

    Geometry (in Angstrom), charge = 0, multiplicity = 1:

       Center              X                  Y                   Z               Mass
    ------------   -----------------  -----------------  -----------------  -----------------
         O            0.781867698595    -1.026929284659    -0.057352055641    15.994914619570
         O            0.468796698595     1.236799715341    -0.057317055641    15.994914619570
         N           -1.303342001405    -0.229668884659     0.192559944359    14.003074004430
         C            0.011921698595     0.104300715341    -0.057416055641    12.000000000000
         H           -1.597117301405    -1.193123284659    -0.057366055641     1.007825032230
         H           -1.985797301405     0.510709715341    -0.057327055641     1.007825032230
         H            1.701103698595    -0.699173284659    -0.057277055641     1.007825032230

  Basis Set: AUG-CC-PVTZ
    Blend: AUG-CC-PVTZ
  Basis Set: (AUG-CC-PVTZ AUX)
    Blend: AUG-CC-PVTZ-JKFIT
	 Reference Energy          =    -243.9193920621177085 [Eh]
	 Singles Energy            =      -0.0000000000000000 [Eh]
	 Same-Spin Energy          =      -0.2320353196139114 [Eh]
	 Opposite-Spin Energy      =      -0.6894660869922082 [Eh]
	 Correlation Energy        =      -0.9215014066061197 [Eh]
	 Total Energy              =    -244.8408934687238343 [Eh]

	 ================> DF-SCS-MP2 Energies <==================
	-----------------------------------------------------------
	 SCS Same-Spin Scale       =       0.3333333333333333 [-]
	 SCS Opposite-Spin Scale   =       1.2000000000000000 [-]
	 SCS Same-Spin Energy      =      -0.0773451065379705 [Eh]
	 SCS Opposite-Spin Energy  =      -0.8273593043906499 [Eh]
	 SCS Correlation Energy    =      -0.9047044109286203 [Eh]
	 SCS Total Energy          =    -244.8240964730463247 [Eh]
	-----------------------------------------------------------

  Dipole Moment: [D]
     X:    -1.3470      Y:    -1.8325      Z:    -0.6388     Total:     2.3623

*** Psi4 exiting successfully. Buy a developer a beer!
