                               Psi4 1.3.2 release

  ==> Input File <==

--------------------------------------------------------------------------
#psi4
#
memory 32 gb

molecule  {
0 1
  O        0.8108760    -1.0055400     0.0000200
  O        0.4978050     1.2581890     0.0000550
  N       -1.2743261    -0.2082762     0.0999320
  C        0.0409300     0.1256900    -0.0000440
  H       -1.5681090    -1.1717340     0.0000060
  H       -1.9567890     0.5320990     0.0000450
  H        1.7301120    -0.6777840     0.0000950
units angstrom
no_reorient  #important for SAPT in psi4, default
symmetry c1  #important for SAPT in psi4, default
}

set PROPERTIES_ORIGIN ["COM"]
properties('MP2/aug-cc-pvtz', properties = ['dipole'])
--------------------------------------------------------------------------

    Molecular point group: c1
  Charge       = 0
  Multiplicity = 1
  Basis Set: AUG-CC-PVTZ
    Blend: AUG-CC-PVTZ
  Basis Set: (AUG-CC-PVTZ AUX)
    Blend: AUG-CC-PVTZ-JKFIT

    Orbital Energies [Eh]
    ---------------------

    Doubly Occupied:

       1A    -20.616915     2A    -20.536147     3A    -15.600022
       4A    -11.417088     5A     -1.464857     6A     -1.354732
       7A     -1.224623     8A     -0.860282     9A     -0.757112
      10A     -0.706646    11A     -0.666382    12A     -0.645870
      13A     -0.606573    14A     -0.505003    15A     -0.463833
      16A     -0.436580

  @DF-RHF Final Energy:  -243.92495364941948

   => Energetics <=

    Nuclear Repulsion Energy =            122.8509688944188696
    One-Electron Energy =                -577.8265084017544950
    Two-Electron Energy =                 211.0505858579161327
    Total Energy =                       -243.9249536494194786
  Basis Set: (AUG-CC-PVTZ AUX)
    Blend: AUG-CC-PVTZ-RI
    Molecular point group: c1

    Geometry (in Angstrom), charge = 0, multiplicity = 1:

       Center              X                  Y                   Z               Mass
    ------------   -----------------  -----------------  -----------------  -----------------
         O            0.781865954418    -1.026930064949    -0.022927510005    15.994914619570
         O            0.468794954418     1.236798935051    -0.022892510005    15.994914619570
         N           -1.303336145582    -0.229666264949     0.076984489995    14.003074004430
         C            0.011919954418     0.104299935051    -0.022991510005    12.000000000000
         H           -1.597119045582    -1.193124064949    -0.022941510005     1.007825032230
         H           -1.985799045582     0.510708935051    -0.022902510005     1.007825032230
         H            1.701101954418    -0.699174064949    -0.022852510005     1.007825032230

  Basis Set: AUG-CC-PVTZ
    Blend: AUG-CC-PVTZ
  Basis Set: (AUG-CC-PVTZ AUX)
    Blend: AUG-CC-PVTZ-JKFIT
	 Reference Energy          =    -243.9249536494194786 [Eh]
	 Singles Energy            =      -0.0000000000000000 [Eh]
	 Same-Spin Energy          =      -0.2316867831519165 [Eh]
	 Opposite-Spin Energy      =      -0.6878096091101458 [Eh]
	 Correlation Energy        =      -0.9194963922620623 [Eh]
	 Total Energy              =    -244.8444500416815401 [Eh]

	 ================> DF-SCS-MP2 Energies <==================
	-----------------------------------------------------------
	 SCS Same-Spin Scale       =       0.3333333333333333 [-]
	 SCS Opposite-Spin Scale   =       1.2000000000000000 [-]
	 SCS Same-Spin Energy      =      -0.0772289277173055 [Eh]
	 SCS Opposite-Spin Energy  =      -0.8253715309321749 [Eh]
	 SCS Correlation Energy    =      -0.9026004586494804 [Eh]
	 SCS Total Energy          =    -244.8275541080689663 [Eh]
	-----------------------------------------------------------

  Dipole Moment: [D]
     X:    -1.5288      Y:    -1.9061      Z:    -0.2639     Total:     2.4576

*** Psi4 exiting successfully. Buy a developer a beer!
