                               Psi4 1.3.2 release

  ==> Input File <==

--------------------------------------------------------------------------
#psi4
#
memory 32 gb

molecule  {
0 1
  O        0.8108760    -1.0055400     0.0000200
  O        0.4978050     1.2581890     0.0000550
  N       -1.2743312    -0.2082785     0.1999320
  C        0.0409300     0.1256900    -0.0000440
  H       -1.5681090    -1.1717340     0.0000060
  H       -1.9567890     0.5320990     0.0000450
  H        1.7301120    -0.6777840     0.0000950
units angstrom
no_reorient  #important for SAPT in psi4, default
symmetry c1  #important for SAPT in psi4, default
}

set PROPERTIES_ORIGIN ["COM"]
properties('MP2/aug-cc-pvtz', properties = ['dipole'])
--------------------------------------------------------------------------

    Molecular point group: c1
  Charge       = 0
  Multiplicity = 1
  Basis Set: AUG-CC-PVTZ
    Blend: AUG-CC-PVTZ
  Basis Set: (AUG-CC-PVTZ AUX)
    Blend: AUG-CC-PVTZ-JKFIT

    Orbital Energies [Eh]
    ---------------------

    Doubly Occupied:

       1A    -20.618339     2A    -20.539416     3A    -15.602761
       4A    -11.418630     5A     -1.465858     6A     -1.356551
       7A     -1.220098     8A     -0.856444     9A     -0.749854
      10A     -0.706069    11A     -0.662675    12A     -0.644019
      13A     -0.606450    14A     -0.506269    15A     -0.465778
      16A     -0.439966

  @DF-RHF Final Energy:  -243.92208153335423

   => Energetics <=

    Nuclear Repulsion Energy =            122.5374573855170581
    One-Electron Energy =                -577.2007223417440400
    Two-Electron Energy =                 210.7411834228727230
    Total Energy =                       -243.9220815333542305
  Basis Set: (AUG-CC-PVTZ AUX)
    Blend: AUG-CC-PVTZ-RI
    Molecular point group: c1

    Geometry (in Angstrom), charge = 0, multiplicity = 1:

       Center              X                  Y                   Z               Mass
    ------------   -----------------  -----------------  -----------------  -----------------
         O            0.781867124853    -1.026929537106    -0.045877207096    15.994914619570
         O            0.468796124853     1.236799462894    -0.045842207096    15.994914619570
         N           -1.303340075147    -0.229668037106     0.154034792904    14.003074004430
         C            0.011921124853     0.104300462894    -0.045941207096    12.000000000000
         H           -1.597117875147    -1.193123537106    -0.045891207096     1.007825032230
         H           -1.985797875147     0.510709462894    -0.045852207096     1.007825032230
         H            1.701103124853    -0.699173537106    -0.045802207096     1.007825032230

  Basis Set: AUG-CC-PVTZ
    Blend: AUG-CC-PVTZ
  Basis Set: (AUG-CC-PVTZ AUX)
    Blend: AUG-CC-PVTZ-JKFIT
	 Reference Energy          =    -243.9220815333542305 [Eh]
	 Singles Energy            =      -0.0000000000000000 [Eh]
	 Same-Spin Energy          =      -0.2318809386094809 [Eh]
	 Opposite-Spin Energy      =      -0.6887480668235534 [Eh]
	 Correlation Energy        =      -0.9206290054330343 [Eh]
	 Total Energy              =    -244.8427105387872587 [Eh]

	 ================> DF-SCS-MP2 Energies <==================
	-----------------------------------------------------------
	 SCS Same-Spin Scale       =       0.3333333333333333 [-]
	 SCS Opposite-Spin Scale   =       1.2000000000000000 [-]
	 SCS Same-Spin Energy      =      -0.0772936462031603 [Eh]
	 SCS Opposite-Spin Energy  =      -0.8264976801882641 [Eh]
	 SCS Correlation Energy    =      -0.9037913263914243 [Eh]
	 SCS Total Energy          =    -244.8258728597456582 [Eh]
	-----------------------------------------------------------

  Dipole Moment: [D]
     X:    -1.4221      Y:    -1.8628      Z:    -0.5184     Total:     2.4003

*** Psi4 exiting successfully. Buy a developer a beer!
