                               Psi4 1.3.2 release

  ==> Input File <==

--------------------------------------------------------------------------
#psi4
#
memory 32 gb

molecule  {
0 1
  O        0.8108760    -1.0055400     0.0000200
  O        0.4978050     1.2581890     0.0000550
  N       -1.2743286    -0.2082774     0.1499320
  C        0.0409300     0.1256900    -0.0000440
  H       -1.5681090    -1.1717340     0.0000060
  H       -1.9567890     0.5320990     0.0000450
  H        1.7301120    -0.6777840     0.0000950
units angstrom
no_reorient  #important for SAPT in psi4, default
symmetry c1  #important for SAPT in psi4, default
}

set PROPERTIES_ORIGIN ["COM"]
properties('MP2/aug-cc-pvtz', properties = ['dipole'])
--------------------------------------------------------------------------

    Molecular point group: c1
  Charge       = 0
  Multiplicity = 1
  Basis Set: AUG-CC-PVTZ
    Blend: AUG-CC-PVTZ
  Basis Set: (AUG-CC-PVTZ AUX)
    Blend: AUG-CC-PVTZ-JKFIT

    Orbital Energies [Eh]
    ---------------------

    Doubly Occupied:

       1A    -20.617525     2A    -20.537544     3A    -15.601137
       4A    -11.417745     5A     -1.465287     6A     -1.355510
       7A     -1.222740     8A     -0.858617     9A     -0.753969
      10A     -0.706372    11A     -0.664823    12A     -0.645194
      13A     -0.606561    14A     -0.505532    15A     -0.464670
      16A     -0.438017

  @DF-RHF Final Energy:  -243.92386175569050

   => Energetics <=

    Nuclear Repulsion Energy =            122.7193252995528923
    One-Electron Energy =                -577.5638861047182218
    Two-Electron Energy =                 210.9206990494748197
    Total Energy =                       -243.9238617556904956
  Basis Set: (AUG-CC-PVTZ AUX)
    Blend: AUG-CC-PVTZ-RI
    Molecular point group: c1

    Geometry (in Angstrom), charge = 0, multiplicity = 1:

       Center              X                  Y                   Z               Mass
    ------------   -----------------  -----------------  -----------------  -----------------
         O            0.781866528161    -1.026929789552    -0.034402358551    15.994914619570
         O            0.468795528161     1.236799210448    -0.034367358551    15.994914619570
         N           -1.303338071839    -0.229667189552     0.115509641449    14.003074004430
         C            0.011920528161     0.104300210448    -0.034466358551    12.000000000000
         H           -1.597118471839    -1.193123789552    -0.034416358551     1.007825032230
         H           -1.985798471839     0.510709210448    -0.034377358551     1.007825032230
         H            1.701102528161    -0.699173789552    -0.034327358551     1.007825032230

  Basis Set: AUG-CC-PVTZ
    Blend: AUG-CC-PVTZ
  Basis Set: (AUG-CC-PVTZ AUX)
    Blend: AUG-CC-PVTZ-JKFIT
	 Reference Energy          =    -243.9238617556904956 [Eh]
	 Singles Energy            =      -0.0000000000000000 [Eh]
	 Same-Spin Energy          =      -0.2317662399689654 [Eh]
	 Opposite-Spin Energy      =      -0.6881982482791339 [Eh]
	 Correlation Energy        =      -0.9199644882480993 [Eh]
	 Total Energy              =    -244.8438262439385937 [Eh]

	 ================> DF-SCS-MP2 Energies <==================
	-----------------------------------------------------------
	 SCS Same-Spin Scale       =       0.3333333333333333 [-]
	 SCS Opposite-Spin Scale   =       1.2000000000000000 [-]
	 SCS Same-Spin Energy      =      -0.0772554133229885 [Eh]
	 SCS Opposite-Spin Energy  =      -0.8258378979349607 [Eh]
	 SCS Correlation Energy    =      -0.9030933112579491 [Eh]
	 SCS Total Energy          =    -244.8269550669484431 [Eh]
	-----------------------------------------------------------

  Dipole Moment: [D]
     X:    -1.4834      Y:    -1.8876      Z:    -0.3930     Total:     2.4327

*** Psi4 exiting successfully. Buy a developer a beer!
