                               Psi4 1.3.2 release

  ==> Input File <==

--------------------------------------------------------------------------
#psi4
#
memory 32 gb

molecule  {
0 1
  O       -1.9983450    -0.7282080     0.0003470
  C        0.8217550    -0.4600250    -0.0005990
  C       -0.0915640     0.7578760     0.0000330
  C        2.2978970    -0.0745110     0.0003180
  C       -1.5581360     0.4144240    -0.0001330
  H        0.5909330    -1.0784560     0.8725540
  H        0.5917080    -1.0769800    -0.8750200
  H        0.1002270     1.3980580     0.8739280
  H        0.1003310     1.3991950    -0.8729740
  H        2.5495760     0.5185710     0.8851420
  H        2.9367550    -0.9620450    -0.0002290
  H        2.5502710     0.5201590    -0.8832390
  H       -2.2527899     1.2806675     0.1993570
units angstrom
no_reorient  #important for SAPT in psi4, default
symmetry c1  #important for SAPT in psi4, default
}

set PROPERTIES_ORIGIN ["COM"]
properties('MP2/aug-cc-pvtz', properties = ['dipole'])
--------------------------------------------------------------------------

    Molecular point group: c1
  Charge       = 0
  Multiplicity = 1
  Basis Set: AUG-CC-PVTZ
    Blend: AUG-CC-PVTZ
  Basis Set: (AUG-CC-PVTZ AUX)
    Blend: AUG-CC-PVTZ-JKFIT

    Orbital Energies [Eh]
    ---------------------

    Doubly Occupied:

       1A    -20.559104     2A    -11.337388     3A    -11.245184
       4A    -11.227378     5A    -11.220433     6A     -1.383560
       7A     -1.081755     8A     -0.976294     9A     -0.846470
      10A     -0.768565    11A     -0.670358    12A     -0.648769
      13A     -0.631490    14A     -0.570344    15A     -0.566130
      16A     -0.512464    17A     -0.500459    18A     -0.490999
      19A     -0.479617    20A     -0.420817

  @DF-RHF Final Energy:  -231.06877647384823

   => Energetics <=

    Nuclear Repulsion Energy =            171.8547442517926811
    One-Electron Energy =                -653.5718875555381828
    Two-Electron Energy =                 250.6483668298972702
    Total Energy =                       -231.0687764738482315
  Basis Set: (AUG-CC-PVTZ AUX)
    Blend: AUG-CC-PVTZ-RI
    Molecular point group: c1

    Geometry (in Angstrom), charge = 0, multiplicity = 1:

       Center              X                  Y                   Z               Mass
    ------------   -----------------  -----------------  -----------------  -----------------
         O           -1.899800934545    -0.700734894344    -0.002457127763    15.994914619570
         C            0.920299065455    -0.432551894344    -0.003403127763    12.000000000000
         C            0.006980065455     0.785349105656    -0.002771127763    12.000000000000
         C            2.396441065455    -0.047037894344    -0.002486127763    12.000000000000
         C           -1.459591934545     0.441897105656    -0.002937127763    12.000000000000
         H            0.689477065455    -1.050982894344     0.869749872237     1.007825032230
         H            0.690252065455    -1.049506894344    -0.877824127763     1.007825032230
         H            0.198771065455     1.425531105656     0.871123872237     1.007825032230
         H            0.198875065455     1.426668105656    -0.875778127763     1.007825032230
         H            2.648120065455     0.546044105656     0.882337872237     1.007825032230
         H            3.035299065455    -0.934571894344    -0.003033127763     1.007825032230
         H            2.648815065455     0.547632105656    -0.886043127763     1.007825032230
         H           -2.154245834545     1.308140605656     0.196552872237     1.007825032230

  Basis Set: AUG-CC-PVTZ
    Blend: AUG-CC-PVTZ
  Basis Set: (AUG-CC-PVTZ AUX)
    Blend: AUG-CC-PVTZ-JKFIT
	 Reference Energy          =    -231.0687764738482315 [Eh]
	 Singles Energy            =      -0.0000000000000000 [Eh]
	 Same-Spin Energy          =      -0.2295431536494819 [Eh]
	 Opposite-Spin Energy      =      -0.7935156462175283 [Eh]
	 Correlation Energy        =      -1.0230587998670102 [Eh]
	 Total Energy              =    -232.0918352737152475 [Eh]

	 ================> DF-SCS-MP2 Energies <==================
	-----------------------------------------------------------
	 SCS Same-Spin Scale       =       0.3333333333333333 [-]
	 SCS Opposite-Spin Scale   =       1.2000000000000000 [-]
	 SCS Same-Spin Energy      =      -0.0765143845498273 [Eh]
	 SCS Opposite-Spin Energy  =      -0.9522187754610340 [Eh]
	 SCS Correlation Energy    =      -1.0287331600108613 [Eh]
	 SCS Total Energy          =    -232.0975096338590902 [Eh]
	-----------------------------------------------------------

  Dipole Moment: [D]
     X:     1.5454      Y:     2.1032      Z:     0.0616     Total:     2.6106

*** Psi4 exiting successfully. Buy a developer a beer!
