                               Psi4 1.3.2 release

  ==> Input File <==

--------------------------------------------------------------------------
#psi4
#
memory 32 gb

molecule  {
0 1
  O       -1.9983450    -0.7282080     0.0003470
  C        0.8217550    -0.4600250    -0.0005990
  C       -0.0915640     0.7578760     0.0000330
  C        2.2978970    -0.0745110     0.0003180
  C       -1.5581360     0.4144240    -0.0001330
  H        0.5909330    -1.0784560     0.8725540
  H        0.5917080    -1.0769800    -0.8750200
  H        0.1002270     1.3980580     0.8739280
  H        0.1003310     1.3991950    -0.8729740
  H        2.5495760     0.5185710     0.8851420
  H        2.9367550    -0.9620450    -0.0002290
  H        2.5502710     0.5201590    -0.8832390
  H       -2.2528099     1.2807143     0.2993570
units angstrom
no_reorient  #important for SAPT in psi4, default
symmetry c1  #important for SAPT in psi4, default
}

set PROPERTIES_ORIGIN ["COM"]
properties('MP2/aug-cc-pvtz', properties = ['dipole'])
--------------------------------------------------------------------------

    Molecular point group: c1
  Charge       = 0
  Multiplicity = 1
  Basis Set: AUG-CC-PVTZ
    Blend: AUG-CC-PVTZ
  Basis Set: (AUG-CC-PVTZ AUX)
    Blend: AUG-CC-PVTZ-JKFIT

    Orbital Energies [Eh]
    ---------------------

    Doubly Occupied:

       1A    -20.560182     2A    -11.339712     3A    -11.245737
       4A    -11.227742     5A    -11.220678     6A     -1.384277
       7A     -1.082030     8A     -0.976147     9A     -0.845235
      10A     -0.766151    11A     -0.668853    12A     -0.648410
      13A     -0.631701    14A     -0.571187    15A     -0.565359
      16A     -0.513208    17A     -0.500833    18A     -0.491044
      19A     -0.479920    20A     -0.419461

  @DF-RHF Final Energy:  -231.06555037889041

   => Energetics <=

    Nuclear Repulsion Energy =            171.7772211861019969
    One-Electron Energy =                -653.4098065090075806
    Two-Electron Energy =                 250.5670349440151767
    Total Energy =                       -231.0655503788904070
  Basis Set: (AUG-CC-PVTZ AUX)
    Blend: AUG-CC-PVTZ-RI
    Molecular point group: c1

    Geometry (in Angstrom), charge = 0, multiplicity = 1:

       Center              X                  Y                   Z               Mass
    ------------   -----------------  -----------------  -----------------  -----------------
         O           -1.899800654817    -0.700735548908    -0.003855767494    15.994914619570
         C            0.920299345183    -0.432552548908    -0.004801767494    12.000000000000
         C            0.006980345183     0.785348451092    -0.004169767494    12.000000000000
         C            2.396441345183    -0.047038548908    -0.003884767494    12.000000000000
         C           -1.459591654817     0.441896451092    -0.004335767494    12.000000000000
         H            0.689477345183    -1.050983548908     0.868351232506     1.007825032230
         H            0.690252345183    -1.049507548908    -0.879222767494     1.007825032230
         H            0.198771345183     1.425530451092     0.869725232506     1.007825032230
         H            0.198875345183     1.426667451092    -0.877176767494     1.007825032230
         H            2.648120345183     0.546043451092     0.880939232506     1.007825032230
         H            3.035299345183    -0.934572548908    -0.004431767494     1.007825032230
         H            2.648815345183     0.547631451092    -0.887441767494     1.007825032230
         H           -2.154265554817     1.308186751092     0.295154232506     1.007825032230

  Basis Set: AUG-CC-PVTZ
    Blend: AUG-CC-PVTZ
  Basis Set: (AUG-CC-PVTZ AUX)
    Blend: AUG-CC-PVTZ-JKFIT
	 Reference Energy          =    -231.0655503788904070 [Eh]
	 Singles Energy            =      -0.0000000000000000 [Eh]
	 Same-Spin Energy          =      -0.2297089247222306 [Eh]
	 Opposite-Spin Energy      =      -0.7939426281712906 [Eh]
	 Correlation Energy        =      -1.0236515528935213 [Eh]
	 Total Energy              =    -232.0892019317839186 [Eh]

	 ================> DF-SCS-MP2 Energies <==================
	-----------------------------------------------------------
	 SCS Same-Spin Scale       =       0.3333333333333333 [-]
	 SCS Opposite-Spin Scale   =       1.2000000000000000 [-]
	 SCS Same-Spin Energy      =      -0.0765696415740769 [Eh]
	 SCS Opposite-Spin Energy  =      -0.9527311538055486 [Eh]
	 SCS Correlation Energy    =      -1.0293007953796254 [Eh]
	 SCS Total Energy          =    -232.0948511742700191 [Eh]
	-----------------------------------------------------------

  Dipole Moment: [D]
     X:     1.5751      Y:     2.0599      Z:     0.0868     Total:     2.5946

*** Psi4 exiting successfully. Buy a developer a beer!
