                               Psi4 1.3.2 release

  ==> Input File <==

--------------------------------------------------------------------------
#psi4
#
memory 32 gb

molecule  {
0 1
  O       -1.9983450    -0.7282080     0.0003470
  C        0.8217550    -0.4600250    -0.0005990
  C       -0.0915640     0.7578760     0.0000330
  C        2.2978970    -0.0745110     0.0003180
  C       -1.5581360     0.4144240    -0.0001330
  H        0.5909330    -1.0784560     0.8725540
  H        0.5917080    -1.0769800    -0.8750200
  H        0.1002270     1.3980580     0.8739280
  H        0.1003310     1.3991950    -0.8729740
  H        2.5495760     0.5185710     0.8851420
  H        2.9367550    -0.9620450    -0.0002290
  H        2.5502710     0.5201590    -0.8832390
  H       -2.2527700     1.2806208     0.0993570
units angstrom
no_reorient  #important for SAPT in psi4, default
symmetry c1  #important for SAPT in psi4, default
}

set PROPERTIES_ORIGIN ["COM"]
properties('MP2/aug-cc-pvtz', properties = ['dipole'])
--------------------------------------------------------------------------

    Molecular point group: c1
  Charge       = 0
  Multiplicity = 1
  Basis Set: AUG-CC-PVTZ
    Blend: AUG-CC-PVTZ
  Basis Set: (AUG-CC-PVTZ AUX)
    Blend: AUG-CC-PVTZ-JKFIT

    Orbital Energies [Eh]
    ---------------------

    Doubly Occupied:

       1A    -20.558460     2A    -11.335967     3A    -11.244858
       4A    -11.227162     5A    -11.220288     6A     -1.383133
       7A     -1.081597     8A     -0.976413     9A     -0.847337
      10A     -0.770121    11A     -0.671296    12A     -0.648964
      13A     -0.631353    14A     -0.569638    15A     -0.566798
      16A     -0.512004    17A     -0.500240    18A     -0.490992
      19A     -0.479439    20A     -0.421613

  @DF-RHF Final Energy:  -231.07055516393444

   => Energetics <=

    Nuclear Repulsion Energy =            171.9029784318872203
    One-Electron Energy =                -653.6717203307915725
    Two-Electron Energy =                 250.6981867349699087
    Total Energy =                       -231.0705551639344435
  Basis Set: (AUG-CC-PVTZ AUX)
    Blend: AUG-CC-PVTZ-RI
    Molecular point group: c1

    Geometry (in Angstrom), charge = 0, multiplicity = 1:

       Center              X                  Y                   Z               Mass
    ------------   -----------------  -----------------  -----------------  -----------------
         O           -1.899801212874    -0.700734241180    -0.001058488032    15.994914619570
         C            0.920298787126    -0.432551241180    -0.002004488032    12.000000000000
         C            0.006979787126     0.785349758820    -0.001372488032    12.000000000000
         C            2.396440787126    -0.047037241180    -0.001087488032    12.000000000000
         C           -1.459592212874     0.441897758820    -0.001538488032    12.000000000000
         H            0.689476787126    -1.050982241180     0.871148511968     1.007825032230
         H            0.690251787126    -1.049506241180    -0.876425488032     1.007825032230
         H            0.198770787126     1.425531758820     0.872522511968     1.007825032230
         H            0.198874787126     1.426668758820    -0.874379488032     1.007825032230
         H            2.648119787126     0.546044758820     0.883736511968     1.007825032230
         H            3.035298787126    -0.934571241180    -0.001634488032     1.007825032230
         H            2.648814787126     0.547632758820    -0.884644488032     1.007825032230
         H           -2.154226212874     1.308094558820     0.097951511968     1.007825032230

  Basis Set: AUG-CC-PVTZ
    Blend: AUG-CC-PVTZ
  Basis Set: (AUG-CC-PVTZ AUX)
    Blend: AUG-CC-PVTZ-JKFIT
	 Reference Energy          =    -231.0705551639344435 [Eh]
	 Singles Energy            =      -0.0000000000000000 [Eh]
	 Same-Spin Energy          =      -0.2294436520649592 [Eh]
	 Opposite-Spin Energy      =      -0.7932686193247120 [Eh]
	 Correlation Energy        =      -1.0227122713896712 [Eh]
	 Total Energy              =    -232.0932674353241225 [Eh]

	 ================> DF-SCS-MP2 Energies <==================
	-----------------------------------------------------------
	 SCS Same-Spin Scale       =       0.3333333333333333 [-]
	 SCS Opposite-Spin Scale   =       1.2000000000000000 [-]
	 SCS Same-Spin Energy      =      -0.0764812173549864 [Eh]
	 SCS Opposite-Spin Energy  =      -0.9519223431896544 [Eh]
	 SCS Correlation Energy    =      -1.0284035605446409 [Eh]
	 SCS Total Energy          =    -232.0989587244790755 [Eh]
	-----------------------------------------------------------

  Dipole Moment: [D]
     X:     1.5278      Y:     2.1291      Z:     0.0316     Total:     2.6208

*** Psi4 exiting successfully. Buy a developer a beer!
