                               Psi4 1.3.2 release

  ==> Input File <==

--------------------------------------------------------------------------
#psi4
#
memory 32 gb

molecule  {
0 1
  O       -1.9983450    -0.7282080     0.0003470
  C        0.8217550    -0.4600250    -0.0005990
  C       -0.0915640     0.7578760     0.0000330
  C        2.2978970    -0.0745110     0.0003180
  C       -1.5581360     0.4144240    -0.0001330
  H        0.5909330    -1.0784560     0.8725540
  H        0.5917080    -1.0769800    -0.8750200
  H        0.1002270     1.3980580     0.8739280
  H        0.1003310     1.3991950    -0.8729740
  H        2.5495760     0.5185710     0.8851420
  H        2.9367550    -0.9620450    -0.0002290
  H        2.5502710     0.5201590    -0.8832390
  H       -2.2527800     1.2806441     0.1493570
units angstrom
no_reorient  #important for SAPT in psi4, default
symmetry c1  #important for SAPT in psi4, default
}

set PROPERTIES_ORIGIN ["COM"]
properties('MP2/aug-cc-pvtz', properties = ['dipole'])
--------------------------------------------------------------------------

    Molecular point group: c1
  Charge       = 0
  Multiplicity = 1
  Basis Set: AUG-CC-PVTZ
    Blend: AUG-CC-PVTZ
  Basis Set: (AUG-CC-PVTZ AUX)
    Blend: AUG-CC-PVTZ-JKFIT

    Orbital Energies [Eh]
    ---------------------

    Doubly Occupied:

       1A    -20.558728     2A    -11.336561     3A    -11.244993
       4A    -11.227252     5A    -11.220348     6A     -1.383311
       7A     -1.081662     8A     -0.976360     9A     -0.846963
      10A     -0.769463    11A     -0.670902    12A     -0.648885
      13A     -0.631411    14A     -0.569965    15A     -0.566487
      16A     -0.512197    17A     -0.500331    18A     -0.490993
      19A     -0.479513    20A     -0.421283

  @DF-RHF Final Energy:  -231.06982995957509

   => Energetics <=

    Nuclear Repulsion Energy =            171.8827165477822234
    One-Electron Energy =                -653.6298777017979091
    Two-Electron Energy =                 250.6773311944405691
    Total Energy =                       -231.0698299595750882
  Basis Set: (AUG-CC-PVTZ AUX)
    Blend: AUG-CC-PVTZ-RI
    Molecular point group: c1

    Geometry (in Angstrom), charge = 0, multiplicity = 1:

       Center              X                  Y                   Z               Mass
    ------------   -----------------  -----------------  -----------------  -----------------
         O           -1.899801073010    -0.700734567063    -0.001757807897    15.994914619570
         C            0.920298926990    -0.432551567063    -0.002703807897    12.000000000000
         C            0.006979926990     0.785349432937    -0.002071807897    12.000000000000
         C            2.396440926990    -0.047037567063    -0.001786807897    12.000000000000
         C           -1.459592073010     0.441897432937    -0.002237807897    12.000000000000
         H            0.689476926990    -1.050982567063     0.870449192103     1.007825032230
         H            0.690251926990    -1.049506567063    -0.877124807897     1.007825032230
         H            0.198770926990     1.425531432937     0.871823192103     1.007825032230
         H            0.198874926990     1.426668432937    -0.875078807897     1.007825032230
         H            2.648119926990     0.546044432937     0.883037192103     1.007825032230
         H            3.035298926990    -0.934571567063    -0.002333807897     1.007825032230
         H            2.648814926990     0.547632432937    -0.885343807897     1.007825032230
         H           -2.154236073010     1.308117532937     0.147252192103     1.007825032230

  Basis Set: AUG-CC-PVTZ
    Blend: AUG-CC-PVTZ
  Basis Set: (AUG-CC-PVTZ AUX)
    Blend: AUG-CC-PVTZ-JKFIT
	 Reference Energy          =    -231.0698299595750882 [Eh]
	 Singles Energy            =      -0.0000000000000000 [Eh]
	 Same-Spin Energy          =      -0.2294851049751159 [Eh]
	 Opposite-Spin Energy      =      -0.7933705467482876 [Eh]
	 Correlation Energy        =      -1.0228556517234035 [Eh]
	 Total Energy              =    -232.0926856112984922 [Eh]

	 ================> DF-SCS-MP2 Energies <==================
	-----------------------------------------------------------
	 SCS Same-Spin Scale       =       0.3333333333333333 [-]
	 SCS Opposite-Spin Scale   =       1.2000000000000000 [-]
	 SCS Same-Spin Energy      =      -0.0764950349917053 [Eh]
	 SCS Opposite-Spin Energy  =      -0.9520446560979450 [Eh]
	 SCS Correlation Energy    =      -1.0285396910896503 [Eh]
	 SCS Total Energy          =    -232.0983696506647505 [Eh]
	-----------------------------------------------------------

  Dipole Moment: [D]
     X:     1.5351      Y:     2.1183      Z:     0.0471     Total:     2.6165

*** Psi4 exiting successfully. Buy a developer a beer!
