                               Psi4 1.3.2 release

  ==> Input File <==

--------------------------------------------------------------------------
#psi4
#
memory 32 gb

molecule  {
0 1
  O       -1.9983450    -0.7282080     0.0003470
  C        0.8217550    -0.4600250    -0.0005990
  C       -0.0915640     0.7578760     0.0000330
  C        2.2978970    -0.0745110     0.0003180
  C       -1.5581360     0.4144240    -0.0001330
  H        0.5909330    -1.0784560     0.8725540
  H        0.5917080    -1.0769800    -0.8750200
  H        0.1002270     1.3980580     0.8739280
  H        0.1003310     1.3991950    -0.8729740
  H        2.5495760     0.5185710     0.8851420
  H        2.9367550    -0.9620450    -0.0002290
  H        2.5502710     0.5201590    -0.8832390
  H       -2.2527999     1.2806909     0.2493570
units angstrom
no_reorient  #important for SAPT in psi4, default
symmetry c1  #important for SAPT in psi4, default
}

set PROPERTIES_ORIGIN ["COM"]
properties('MP2/aug-cc-pvtz', properties = ['dipole'])
--------------------------------------------------------------------------

    Molecular point group: c1
  Charge       = 0
  Multiplicity = 1
  Basis Set: AUG-CC-PVTZ
    Blend: AUG-CC-PVTZ
  Basis Set: (AUG-CC-PVTZ AUX)
    Blend: AUG-CC-PVTZ-JKFIT

    Orbital Energies [Eh]
    ---------------------

    Doubly Occupied:

       1A    -20.559588     2A    -11.338441     3A    -11.245431
       4A    -11.227541     5A    -11.220543     6A     -1.383881
       7A     -1.081877     8A     -0.976221     9A     -0.845884
      10A     -0.767450    11A     -0.669671    12A     -0.648613
      13A     -0.631588    14A     -0.570755    15A     -0.565750
      16A     -0.512802    17A     -0.500626    18A     -0.491014
      19A     -0.479753    20A     -0.420212

  @DF-RHF Final Energy:  -231.06736181725137

   => Energetics <=

    Nuclear Repulsion Energy =            171.8194302526543424
    One-Electron Energy =                -653.4983043678149670
    Two-Electron Energy =                 250.6115122979092575
    Total Energy =                       -231.0673618172513670
  Basis Set: (AUG-CC-PVTZ AUX)
    Blend: AUG-CC-PVTZ-RI
    Molecular point group: c1

    Geometry (in Angstrom), charge = 0, multiplicity = 1:

       Center              X                  Y                   Z               Mass
    ------------   -----------------  -----------------  -----------------  -----------------
         O           -1.899800794681    -0.700735221626    -0.003156447628    15.994914619570
         C            0.920299205319    -0.432552221626    -0.004102447628    12.000000000000
         C            0.006980205319     0.785348778374    -0.003470447628    12.000000000000
         C            2.396441205319    -0.047038221626    -0.003185447628    12.000000000000
         C           -1.459591794681     0.441896778374    -0.003636447628    12.000000000000
         H            0.689477205319    -1.050983221626     0.869050552372     1.007825032230
         H            0.690252205319    -1.049507221626    -0.878523447628     1.007825032230
         H            0.198771205319     1.425530778374     0.870424552372     1.007825032230
         H            0.198875205319     1.426667778374    -0.876477447628     1.007825032230
         H            2.648120205319     0.546043778374     0.881638552372     1.007825032230
         H            3.035299205319    -0.934572221626    -0.003732447628     1.007825032230
         H            2.648815205319     0.547631778374    -0.886742447628     1.007825032230
         H           -2.154255694681     1.308163678374     0.245853552372     1.007825032230

  Basis Set: AUG-CC-PVTZ
    Blend: AUG-CC-PVTZ
  Basis Set: (AUG-CC-PVTZ AUX)
    Blend: AUG-CC-PVTZ-JKFIT
	 Reference Energy          =    -231.0673618172513670 [Eh]
	 Singles Energy            =      -0.0000000000000000 [Eh]
	 Same-Spin Energy          =      -0.2296177795180231 [Eh]
	 Opposite-Spin Energy      =      -0.7937057489404824 [Eh]
	 Correlation Energy        =      -1.0233235284585056 [Eh]
	 Total Energy              =    -232.0906853457098862 [Eh]

	 ================> DF-SCS-MP2 Energies <==================
	-----------------------------------------------------------
	 SCS Same-Spin Scale       =       0.3333333333333333 [-]
	 SCS Opposite-Spin Scale   =       1.2000000000000000 [-]
	 SCS Same-Spin Energy      =      -0.0765392598393410 [Eh]
	 SCS Opposite-Spin Energy  =      -0.9524468987285788 [Eh]
	 SCS Correlation Energy    =      -1.0289861585679199 [Eh]
	 SCS Total Energy          =    -232.0963479758192989 [Eh]
	-----------------------------------------------------------

  Dipole Moment: [D]
     X:     1.5587      Y:     2.0837      Z:     0.0750     Total:     2.6033

*** Psi4 exiting successfully. Buy a developer a beer!
