                               Psi4 1.3.2 release

  ==> Input File <==

--------------------------------------------------------------------------
#psi4
#
memory 32 gb

molecule  {
0 1
  O       -1.9983450    -0.7282080     0.0003470
  C        0.8217550    -0.4600250    -0.0005990
  C       -0.0915640     0.7578760     0.0000330
  C        2.2978970    -0.0745110     0.0003180
  C       -1.5581360     0.4144240    -0.0001330
  H        0.5909330    -1.0784560     0.8725540
  H        0.5917080    -1.0769800    -0.8750200
  H        0.1002270     1.3980580     0.8739280
  H        0.1003310     1.3991950    -0.8729740
  H        2.5495760     0.5185710     0.8851420
  H        2.9367550    -0.9620450    -0.0002290
  H        2.5502710     0.5201590    -0.8832390
  H       -2.2527600     1.2805974     0.0493570
units angstrom
no_reorient  #important for SAPT in psi4, default
symmetry c1  #important for SAPT in psi4, default
}

set PROPERTIES_ORIGIN ["COM"]
properties('MP2/aug-cc-pvtz', properties = ['dipole'])
--------------------------------------------------------------------------

    Molecular point group: c1
  Charge       = 0
  Multiplicity = 1
  Basis Set: AUG-CC-PVTZ
    Blend: AUG-CC-PVTZ
  Basis Set: (AUG-CC-PVTZ AUX)
    Blend: AUG-CC-PVTZ-JKFIT

    Orbital Energies [Eh]
    ---------------------

    Doubly Occupied:

       1A    -20.558300     2A    -11.335608     3A    -11.244777
       4A    -11.227108     5A    -11.220252     6A     -1.383027
       7A     -1.081559     8A     -0.976446     9A     -0.847570
      10A     -0.770523    11A     -0.671535    12A     -0.649009
      13A     -0.631318    14A     -0.569404    15A     -0.567024
      16A     -0.511887    17A     -0.500187    18A     -0.490992
      19A     -0.479395    20A     -0.421810

  @DF-RHF Final Energy:  -231.07097865534084

   => Energetics <=

    Nuclear Repulsion Energy =            171.9152542540481079
    One-Electron Energy =                -653.6970043630412874
    Two-Electron Energy =                 250.7107714536523133
    Total Energy =                       -231.0709786553408378
  Basis Set: (AUG-CC-PVTZ AUX)
    Blend: AUG-CC-PVTZ-RI
    Molecular point group: c1

    Geometry (in Angstrom), charge = 0, multiplicity = 1:

       Center              X                  Y                   Z               Mass
    ------------   -----------------  -----------------  -----------------  -----------------
         O           -1.899801352738    -0.700733913898    -0.000359168166    15.994914619570
         C            0.920298647262    -0.432550913898    -0.001305168166    12.000000000000
         C            0.006979647262     0.785350086102    -0.000673168166    12.000000000000
         C            2.396440647262    -0.047036913898    -0.000388168166    12.000000000000
         C           -1.459592352738     0.441898086102    -0.000839168166    12.000000000000
         H            0.689476647262    -1.050981913898     0.871847831834     1.007825032230
         H            0.690251647262    -1.049505913898    -0.875726168166     1.007825032230
         H            0.198770647262     1.425532086102     0.873221831834     1.007825032230
         H            0.198874647262     1.426669086102    -0.873680168166     1.007825032230
         H            2.648119647262     0.546045086102     0.884435831834     1.007825032230
         H            3.035298647262    -0.934570913898    -0.000935168166     1.007825032230
         H            2.648814647262     0.547633086102    -0.883945168166     1.007825032230
         H           -2.154216352738     1.308071486102     0.048650831834     1.007825032230

  Basis Set: AUG-CC-PVTZ
    Blend: AUG-CC-PVTZ
  Basis Set: (AUG-CC-PVTZ AUX)
    Blend: AUG-CC-PVTZ-JKFIT
	 Reference Energy          =    -231.0709786553408378 [Eh]
	 Singles Energy            =      -0.0000000000000000 [Eh]
	 Same-Spin Energy          =      -0.2294187895195974 [Eh]
	 Opposite-Spin Energy      =      -0.7932082232423094 [Eh]
	 Correlation Energy        =      -1.0226270127619068 [Eh]
	 Total Energy              =    -232.0936056681027537 [Eh]

	 ================> DF-SCS-MP2 Energies <==================
	-----------------------------------------------------------
	 SCS Same-Spin Scale       =       0.3333333333333333 [-]
	 SCS Opposite-Spin Scale   =       1.2000000000000000 [-]
	 SCS Same-Spin Energy      =      -0.0764729298398658 [Eh]
	 SCS Opposite-Spin Energy  =      -0.9518498678907713 [Eh]
	 SCS Correlation Energy    =      -1.0283227977306371 [Eh]
	 SCS Total Energy          =    -232.0993014530714618 [Eh]
	-----------------------------------------------------------

  Dipole Moment: [D]
     X:     1.5235      Y:     2.1356      Z:     0.0156     Total:     2.6234

*** Psi4 exiting successfully. Buy a developer a beer!
