                               Psi4 1.4a2.dev612

  ==> Input File <==

--------------------------------------------------------------------------
#psi4
#
memory 32 gb

molecule  {
0 1
 Br       -2.5380180    -0.0000120     0.9448210
 Br       -0.5280640    -1.5862110    -0.9362640
 Br       -0.5280770     1.5862250    -0.9362460
  C        0.2865210    -0.0000040     1.3350980
  C        1.7253110    -0.0000010     0.8978270
  C       -0.7275630    -0.0000010     0.1866520
  C        2.4064250    -1.2084570     0.6972750
  C        2.4064210     1.2084560     0.6972700
  C        3.7400270    -1.2080000     0.2881000
  C        3.7400230     1.2080010     0.2880960
  C        4.4087440     0.0000010     0.0783490
  H        0.0657210     0.8845180     1.9439930
  H        0.0657230    -0.8845300     1.9439880
  H        1.8907430    -2.1510710     0.8652730
  H        1.8907350     2.1510690     0.8652640
  H        4.2591870    -2.1516120     0.1385310
  H        4.2591800     2.1516140     0.1385230
  H        5.4488490     0.0000020    -0.2384650
units angstrom
no_reorient  #important for SAPT in psi4, default
symmetry c1  #important for SAPT in psi4, default
}

set PROPERTIES_ORIGIN ["COM"]
properties('MP2/aug-cc-pvtz', properties = ['dipole'])
--------------------------------------------------------------------------

    Molecular point group: c1
  Charge       = 0
  Multiplicity = 1
  Basis Set: AUG-CC-PVTZ
    Blend: AUG-CC-PVTZ
  Basis Set: (AUG-CC-PVTZ AUX)
    Blend: AUG-CC-PVTZ-JKFIT

    Orbital Energies [Eh]
    ---------------------

    Doubly Occupied:

       1A   -490.040522     2A   -490.039111     3A   -490.039111
       4A    -65.180253     5A    -65.178918     6A    -65.178917
       7A    -58.535651     8A    -58.534319     9A    -58.534319
      10A    -58.534013    11A    -58.534008    12A    -58.532681
      13A    -58.532681    14A    -58.532654    15A    -58.532654
      16A    -11.422108    17A    -11.273690    18A    -11.254828
      19A    -11.245446    20A    -11.245433    21A    -11.244831
      22A    -11.242961    23A    -11.242602    24A     -9.852886
      25A     -9.851613    26A     -9.851609    27A     -7.464812
      28A     -7.463597    29A     -7.463593    30A     -7.457218
      31A     -7.457210    32A     -7.455992    33A     -7.455990
      34A     -7.455870    35A     -7.455868    36A     -3.208735
      37A     -3.207550    38A     -3.207529    39A     -3.204811
      40A     -3.204810    41A     -3.203645    42A     -3.203640
      43A     -3.203474    44A     -3.203472    45A     -3.194964
      46A     -3.194960    47A     -3.193637    48A     -3.193635
      49A     -3.193634    50A     -3.193632    51A     -1.181143
      52A     -1.148797    53A     -1.055029    54A     -1.024602
      55A     -1.016824    56A     -1.014861    57A     -0.966343
      58A     -0.836841    59A     -0.826464    60A     -0.771015
      61A     -0.703182    62A     -0.660421    63A     -0.651765
      64A     -0.613325    65A     -0.602596    66A     -0.595797
      67A     -0.593345    68A     -0.543815    69A     -0.521456
      70A     -0.504169    71A     -0.500547    72A     -0.498163
      73A     -0.448927    74A     -0.446339    75A     -0.429818
      76A     -0.411142    77A     -0.410011    78A     -0.398998
      79A     -0.341754    80A     -0.339968

  @DF-RHF Final Energy: -8024.48450923849123

   => Energetics <=

    Nuclear Repulsion Energy =           1734.3864432633472461
    One-Electron Energy =              -14622.9668027568422985
    Two-Electron Energy =                4864.0958502550038247
    Total Energy =                      -8024.4845092384912277
  Basis Set: (AUG-CC-PVTZ AUX)
    Blend: AUG-CC-PVTZ-RI
    Molecular point group: c1

    Geometry (in Angstrom), charge = 0, multiplicity = 1:

       Center              X                  Y                   Z               Mass
    ------------   -----------------  -----------------  -----------------  -----------------
         BR          -2.391482801637    -0.000012258257     0.985685907765    78.918337600000
         BR          -0.381528801637    -1.586211258257    -0.895399092235    78.918337600000
         BR          -0.381541801637     1.586224741743    -0.895381092235    78.918337600000
         C            0.433056198363    -0.000004258257     1.375962907765    12.000000000000
         C            1.871846198363    -0.000001258257     0.938691907765    12.000000000000
         C           -0.581027801637    -0.000001258257     0.227516907765    12.000000000000
         C            2.552960198363    -1.208457258257     0.738139907765    12.000000000000
         C            2.552956198363     1.208455741743     0.738134907765    12.000000000000
         C            3.886562198363    -1.208000258257     0.328964907765    12.000000000000
         C            3.886558198363     1.208000741743     0.328960907765    12.000000000000
         C            4.555279198363     0.000000741743     0.119213907765    12.000000000000
         H            0.212256198363     0.884517741743     1.984857907765     1.007825032230
         H            0.212258198363    -0.884530258257     1.984852907765     1.007825032230
         H            2.037278198363    -2.151071258257     0.906137907765     1.007825032230
         H            2.037270198363     2.151068741743     0.906128907765     1.007825032230
         H            4.405722198363    -2.151612258257     0.179395907765     1.007825032230
         H            4.405715198363     2.151613741743     0.179387907765     1.007825032230
         H            5.595384198363     0.000001741743    -0.197600092235     1.007825032230

  Basis Set: AUG-CC-PVTZ
    Blend: AUG-CC-PVTZ
  Basis Set: (AUG-CC-PVTZ AUX)
    Blend: AUG-CC-PVTZ-JKFIT
	 Reference Energy          =   -8024.4845092384912277 [Eh]
	 Singles Energy            =      -0.0000000000000000 [Eh]
	 Same-Spin Energy          =      -0.6290113679584621 [Eh]
	 Opposite-Spin Energy      =      -1.7177742888191601 [Eh]
	 Correlation Energy        =      -2.3467856567776222 [Eh]
	 Total Energy              =   -8026.8312948952689112 [Eh]

	 ================> DF-SCS-MP2 Energies <==================
	-----------------------------------------------------------
	 SCS Same-Spin Scale       =       0.3333333333333333 [-]
	 SCS Opposite-Spin Scale   =       1.2000000000000000 [-]
	 SCS Same-Spin Energy      =      -0.2096704559861540 [Eh]
	 SCS Opposite-Spin Energy  =      -2.0613291465829922 [Eh]
	 SCS Correlation Energy    =      -2.2709996025691463 [Eh]
	 SCS Total Energy          =   -8026.7555088410599637 [Eh]
	-----------------------------------------------------------

  Dipole Moment: [D]
     X:     1.5886      Y:    -0.0000      Z:     0.8833     Total:     1.8177

*** Psi4 exiting successfully. Buy a developer a beer!
