                               Psi4 1.4a2.dev612

  ==> Input File <==

--------------------------------------------------------------------------
#psi4
#
memory 32 gb

molecule  {
0 1
 Br       -2.5380180    -0.0000120     0.9448210
 Br       -0.5280640    -1.5862110    -0.9362640
 Br       -0.5280770     1.5862250    -0.9362460
  C        0.2865210    -0.0000040     1.3350980
  C        1.7253110    -0.0000010     0.8978270
  C       -0.7275630    -0.0000010     0.1866520
  C        2.3400502    -1.2838599     0.9262046
  C        2.4064210     1.2084560     0.6972700
  C        3.7400270    -1.2080000     0.2881000
  C        3.7400230     1.2080010     0.2880960
  C        4.4087440     0.0000010     0.0783490
  H        0.0657210     0.8845180     1.9439930
  H        0.0657230    -0.8845300     1.9439880
  H        1.8907430    -2.1510710     0.8652730
  H        1.8907350     2.1510690     0.8652640
  H        4.2591870    -2.1516120     0.1385310
  H        4.2591800     2.1516140     0.1385230
  H        5.4488490     0.0000020    -0.2384650
units angstrom
no_reorient  #important for SAPT in psi4, default
symmetry c1  #important for SAPT in psi4, default
}

set PROPERTIES_ORIGIN ["COM"]
properties('MP2/aug-cc-pvtz', properties = ['dipole'])
--------------------------------------------------------------------------

    Molecular point group: c1
  Charge       = 0
  Multiplicity = 1
  Basis Set: AUG-CC-PVTZ
    Blend: AUG-CC-PVTZ
  Basis Set: (AUG-CC-PVTZ AUX)
    Blend: AUG-CC-PVTZ-JKFIT

    Orbital Energies [Eh]
    ---------------------

    Doubly Occupied:

       1A   -490.040144     2A   -490.039540     3A   -490.039222
       4A    -65.179875     5A    -65.179338     6A    -65.179032
       7A    -58.535273     8A    -58.534737     9A    -58.534432
      10A    -58.533636    11A    -58.533630    12A    -58.533106
      13A    -58.533080    14A    -58.532796    15A    -58.532771
      16A    -11.421738    17A    -11.270515    18A    -11.263567
      19A    -11.260222    20A    -11.251846    21A    -11.250062
      22A    -11.245424    23A    -11.244127    24A     -9.852505
      25A     -9.852019    26A     -9.851726    27A     -7.464429
      28A     -7.463988    29A     -7.463701    30A     -7.456842
      31A     -7.456828    32A     -7.456413    33A     -7.456290
      34A     -7.456106    35A     -7.455997    36A     -3.208352
      37A     -3.207926    38A     -3.207639    39A     -3.204433
      40A     -3.204424    41A     -3.204041    42A     -3.203873
      43A     -3.203745    44A     -3.203589    45A     -3.194586
      46A     -3.194582    47A     -3.194074    48A     -3.194070
      49A     -3.193765    50A     -3.193762    51A     -1.178536
      52A     -1.141609    53A     -1.057010    54A     -1.019627
      55A     -1.016679    56A     -1.009247    57A     -0.964472
      58A     -0.849805    59A     -0.819008    60A     -0.767623
      61A     -0.706219    62A     -0.668087    63A     -0.654833
      64A     -0.617790    65A     -0.602611    66A     -0.598496
      67A     -0.581702    68A     -0.542632    69A     -0.526535
      70A     -0.510752    71A     -0.494168    72A     -0.480204
      73A     -0.449001    74A     -0.445920    75A     -0.427734
      76A     -0.411457    77A     -0.410049    78A     -0.398968
      79A     -0.344256    80A     -0.330543

  @DF-RHF Final Energy: -8024.44271641589603

   => Energetics <=

    Nuclear Repulsion Energy =           1731.4301671857167548
    One-Electron Energy =              -14616.9589788137873256
    Two-Electron Energy =                4861.0860952121738592
    Total Energy =                      -8024.4427164158960295
  Basis Set: (AUG-CC-PVTZ AUX)
    Blend: AUG-CC-PVTZ-RI
    Molecular point group: c1

    Geometry (in Angstrom), charge = 0, multiplicity = 1:

       Center              X                  Y                   Z               Mass
    ------------   -----------------  -----------------  -----------------  -----------------
         BR          -2.389138850321     0.002650510244     0.977601516741    78.918337600000
         BR          -0.379184850321    -1.583548489756    -0.903483483259    78.918337600000
         BR          -0.379197850321     1.588887510244    -0.903465483259    78.918337600000
         C            0.435400149679     0.002658510244     1.367878516741    12.000000000000
         C            1.874190149679     0.002661510244     0.930607516741    12.000000000000
         C           -0.578683850321     0.002661510244     0.219432516741    12.000000000000
         C            2.488929349679    -1.281197389756     0.958985116741    12.000000000000
         C            2.555300149679     1.211118510244     0.730050516741    12.000000000000
         C            3.888906149679    -1.205337489756     0.320880516741    12.000000000000
         C            3.888902149679     1.210663510244     0.320876516741    12.000000000000
         C            4.557623149679     0.002663510244     0.111129516741    12.000000000000
         H            0.214600149679     0.887180510244     1.976773516741     1.007825032230
         H            0.214602149679    -0.881867489756     1.976768516741     1.007825032230
         H            2.039622149679    -2.148408489756     0.898053516741     1.007825032230
         H            2.039614149679     2.153731510244     0.898044516741     1.007825032230
         H            4.408066149679    -2.148949489756     0.171311516741     1.007825032230
         H            4.408059149679     2.154276510244     0.171303516741     1.007825032230
         H            5.597728149679     0.002664510244    -0.205684483259     1.007825032230

  Basis Set: AUG-CC-PVTZ
    Blend: AUG-CC-PVTZ
  Basis Set: (AUG-CC-PVTZ AUX)
    Blend: AUG-CC-PVTZ-JKFIT
	 Reference Energy          =   -8024.4427164158960295 [Eh]
	 Singles Energy            =      -0.0000000000000000 [Eh]
	 Same-Spin Energy          =      -0.6298502435183225 [Eh]
	 Opposite-Spin Energy      =      -1.7220935416249570 [Eh]
	 Correlation Energy        =      -2.3519437851432796 [Eh]
	 Total Energy              =   -8026.7946602010397328 [Eh]

	 ================> DF-SCS-MP2 Energies <==================
	-----------------------------------------------------------
	 SCS Same-Spin Scale       =       0.3333333333333333 [-]
	 SCS Opposite-Spin Scale   =       1.2000000000000000 [-]
	 SCS Same-Spin Energy      =      -0.2099500811727742 [Eh]
	 SCS Opposite-Spin Energy  =      -2.0665122499499482 [Eh]
	 SCS Correlation Energy    =      -2.2764623311227226 [Eh]
	 SCS Total Energy          =   -8026.7191787470183044 [Eh]
	-----------------------------------------------------------

  Dipole Moment: [D]
     X:     1.6358      Y:     0.1122      Z:     0.7779     Total:     1.8148

*** Psi4 exiting successfully. Buy a developer a beer!
