                               Psi4 1.4a2.dev612

  ==> Input File <==

--------------------------------------------------------------------------
#psi4
#
memory 32 gb

molecule  {
0 1
 Br       -2.5380180    -0.0000120     0.9448210
 Br       -0.5280640    -1.5862110    -0.9362640
 Br       -0.5280770     1.5862250    -0.9362460
  C        0.2865210    -0.0000040     1.3350980
  C        1.7253110    -0.0000010     0.8978270
  C       -0.7275630    -0.0000010     0.1866520
  C        2.3798751    -1.2386182     0.7888469
  C        2.4064210     1.2084560     0.6972700
  C        3.7400270    -1.2080000     0.2881000
  C        3.7400230     1.2080010     0.2880960
  C        4.4087440     0.0000010     0.0783490
  H        0.0657210     0.8845180     1.9439930
  H        0.0657230    -0.8845300     1.9439880
  H        1.8907430    -2.1510710     0.8652730
  H        1.8907350     2.1510690     0.8652640
  H        4.2591870    -2.1516120     0.1385310
  H        4.2591800     2.1516140     0.1385230
  H        5.4488490     0.0000020    -0.2384650
units angstrom
no_reorient  #important for SAPT in psi4, default
symmetry c1  #important for SAPT in psi4, default
}

set PROPERTIES_ORIGIN ["COM"]
properties('MP2/aug-cc-pvtz', properties = ['dipole'])
--------------------------------------------------------------------------

    Molecular point group: c1
  Charge       = 0
  Multiplicity = 1
  Basis Set: AUG-CC-PVTZ
    Blend: AUG-CC-PVTZ
  Basis Set: (AUG-CC-PVTZ AUX)
    Blend: AUG-CC-PVTZ-JKFIT

    Orbital Energies [Eh]
    ---------------------

    Doubly Occupied:

       1A   -490.040356     2A   -490.039342     3A   -490.039122
       4A    -65.180085     5A    -65.179144     6A    -65.178930
       7A    -58.535483     8A    -58.534544     9A    -58.534330
      10A    -58.533846    11A    -58.533841    12A    -58.532909
      13A    -58.532883    14A    -58.532693    15A    -58.532667
      16A    -11.421924    17A    -11.272255    18A    -11.256880
      19A    -11.249904    20A    -11.247242    21A    -11.245887
      22A    -11.244865    23A    -11.243910    24A     -9.852715
      25A     -9.851831    26A     -9.851623    27A     -7.464640
      28A     -7.463806    29A     -7.463604    30A     -7.457050
      31A     -7.457039    32A     -7.456219    33A     -7.456096
      34A     -7.456003    35A     -7.455886    36A     -3.208562
      37A     -3.207748    38A     -3.207546    39A     -3.204642
      40A     -3.204637    41A     -3.203858    42A     -3.203688
      43A     -3.203650    44A     -3.203486    45A     -3.194796
      46A     -3.194792    47A     -3.193872    48A     -3.193869
      49A     -3.193653    50A     -3.193651    51A     -1.179924
      52A     -1.145654    53A     -1.055544    54A     -1.021783
      55A     -1.016757    56A     -1.013307    57A     -0.965748
      58A     -0.841806    59A     -0.823381    60A     -0.769725
      61A     -0.704316    62A     -0.659620    63A     -0.656605
      64A     -0.614773    65A     -0.602632    66A     -0.598271
      67A     -0.589360    68A     -0.543580    69A     -0.523065
      70A     -0.505380    71A     -0.499894    72A     -0.493769
      73A     -0.448985    74A     -0.446202    75A     -0.429249
      76A     -0.411323    77A     -0.410042    78A     -0.398979
      79A     -0.341942    80A     -0.336651

  @DF-RHF Final Energy: -8024.47723446905729

   => Energetics <=

    Nuclear Repulsion Energy =           1733.3100887890659578
    One-Electron Energy =              -14620.7941097687544243
    Two-Electron Energy =                4863.0067865106320824
    Total Energy =                      -8024.4772344690572936
  Basis Set: (AUG-CC-PVTZ AUX)
    Blend: AUG-CC-PVTZ-RI
    Molecular point group: c1

    Geometry (in Angstrom), charge = 0, multiplicity = 1:

       Center              X                  Y                   Z               Mass
    ------------   -----------------  -----------------  -----------------  -----------------
         BR          -2.390545221817     0.001052850556     0.982452149236    78.918337600000
         BR          -0.380591221817    -1.585146149444    -0.898632850764    78.918337600000
         BR          -0.380604221817     1.587289850556    -0.898614850764    78.918337600000
         C            0.433993778183     0.001060850556     1.372729149236    12.000000000000
         C            1.872783778183     0.001063850556     0.935458149236    12.000000000000
         C           -0.580090221817     0.001063850556     0.224283149236    12.000000000000
         C            2.527347878183    -1.237553349444     0.826478049236    12.000000000000
         C            2.553893778183     1.209520850556     0.734901149236    12.000000000000
         C            3.887499778183    -1.206935149444     0.325731149236    12.000000000000
         C            3.887495778183     1.209065850556     0.325727149236    12.000000000000
         C            4.556216778183     0.001065850556     0.115980149236    12.000000000000
         H            0.213193778183     0.885582850556     1.981624149236     1.007825032230
         H            0.213195778183    -0.883465149444     1.981619149236     1.007825032230
         H            2.038215778183    -2.150006149444     0.902904149236     1.007825032230
         H            2.038207778183     2.152133850556     0.902895149236     1.007825032230
         H            4.406659778183    -2.150547149444     0.176162149236     1.007825032230
         H            4.406652778183     2.152678850556     0.176154149236     1.007825032230
         H            5.596321778183     0.001066850556    -0.200833850764     1.007825032230

  Basis Set: AUG-CC-PVTZ
    Blend: AUG-CC-PVTZ
  Basis Set: (AUG-CC-PVTZ AUX)
    Blend: AUG-CC-PVTZ-JKFIT
	 Reference Energy          =   -8024.4772344690572936 [Eh]
	 Singles Energy            =      -0.0000000000000000 [Eh]
	 Same-Spin Energy          =      -0.6291025293334627 [Eh]
	 Opposite-Spin Energy      =      -1.7186474933212992 [Eh]
	 Correlation Energy        =      -2.3477500226547621 [Eh]
	 Total Energy              =   -8026.8249844917118025 [Eh]

	 ================> DF-SCS-MP2 Energies <==================
	-----------------------------------------------------------
	 SCS Same-Spin Scale       =       0.3333333333333333 [-]
	 SCS Opposite-Spin Scale   =       1.2000000000000000 [-]
	 SCS Same-Spin Energy      =      -0.2097008431111542 [Eh]
	 SCS Opposite-Spin Energy  =      -2.0623769919855590 [Eh]
	 SCS Correlation Energy    =      -2.2720778350967130 [Eh]
	 SCS Total Energy          =   -8026.7493123041540457 [Eh]
	-----------------------------------------------------------

  Dipole Moment: [D]
     X:     1.5959      Y:     0.0176      Z:     0.8472     Total:     1.8069

*** Psi4 exiting successfully. Buy a developer a beer!
