                               Psi4 1.4a2.dev612

  ==> Input File <==

--------------------------------------------------------------------------
#psi4
#
memory 32 gb

molecule  {
0 1
 Br       -2.5380180    -0.0000120     0.9448210
 Br       -0.5280640    -1.5862110    -0.9362640
 Br       -0.5280770     1.5862250    -0.9362460
  C        0.2865210    -0.0000040     1.3350980
  C        1.7253110    -0.0000010     0.8978270
  C       -0.7275630    -0.0000010     0.1866520
  C        2.3666001    -1.2536988     0.8346328
  C        2.4064210     1.2084560     0.6972700
  C        3.7400270    -1.2080000     0.2881000
  C        3.7400230     1.2080010     0.2880960
  C        4.4087440     0.0000010     0.0783490
  H        0.0657210     0.8845180     1.9439930
  H        0.0657230    -0.8845300     1.9439880
  H        1.8907430    -2.1510710     0.8652730
  H        1.8907350     2.1510690     0.8652640
  H        4.2591870    -2.1516120     0.1385310
  H        4.2591800     2.1516140     0.1385230
  H        5.4488490     0.0000020    -0.2384650
units angstrom
no_reorient  #important for SAPT in psi4, default
symmetry c1  #important for SAPT in psi4, default
}

set PROPERTIES_ORIGIN ["COM"]
properties('MP2/aug-cc-pvtz', properties = ['dipole'])
--------------------------------------------------------------------------

    Molecular point group: c1
  Charge       = 0
  Multiplicity = 1
  Basis Set: AUG-CC-PVTZ
    Blend: AUG-CC-PVTZ
  Basis Set: (AUG-CC-PVTZ AUX)
    Blend: AUG-CC-PVTZ-JKFIT

    Orbital Energies [Eh]
    ---------------------

    Doubly Occupied:

       1A   -490.040274     2A   -490.039421     3A   -490.039140
       4A    -65.180003     5A    -65.179221     6A    -65.178949
       7A    -58.535401     8A    -58.534620     9A    -58.534349
      10A    -58.533765    11A    -58.533759    12A    -58.532988
      13A    -58.532962    14A    -58.532712    15A    -58.532687
      16A    -11.421842    17A    -11.271608    18A    -11.258639
      19A    -11.253298    20A    -11.248675    21A    -11.246767
      22A    -11.245136    23A    -11.244115    24A     -9.852633
      25A     -9.851906    26A     -9.851642    27A     -7.464558
      28A     -7.463878    29A     -7.463621    30A     -7.456969
      31A     -7.456957    32A     -7.456296    33A     -7.456173
      34A     -7.456022    35A     -7.455908    36A     -3.208480
      37A     -3.207818    38A     -3.207562    39A     -3.204560
      40A     -3.204554    41A     -3.203931    42A     -3.203761
      43A     -3.203666    44A     -3.203505    45A     -3.194714
      46A     -3.194711    47A     -3.193953    48A     -3.193949
      49A     -3.193675    50A     -3.193672    51A     -1.179404
      52A     -1.144199    53A     -1.055974    54A     -1.020804
      55A     -1.016723    56A     -1.012134    57A     -0.965377
      58A     -0.844442    59A     -0.821847    60A     -0.769051
      61A     -0.704990    62A     -0.661979    63A     -0.656512
      64A     -0.615846    65A     -0.602699    66A     -0.598785
      67A     -0.586739    68A     -0.543347    69A     -0.524107
      70A     -0.507661    71A     -0.497921    72A     -0.489785
      73A     -0.448991    74A     -0.446117    75A     -0.428849
      76A     -0.411380    77A     -0.410040    78A     -0.398968
      79A     -0.342793    80A     -0.334396

  @DF-RHF Final Energy: -8024.46863536959700

   => Energetics <=

    Nuclear Repulsion Energy =           1732.7176145007722425
    One-Electron Energy =              -14619.5899692207622138
    Two-Electron Energy =                4862.4037193503927483
    Total Energy =                      -8024.4686353695969956
  Basis Set: (AUG-CC-PVTZ AUX)
    Blend: AUG-CC-PVTZ-RI
    Molecular point group: c1

    Geometry (in Angstrom), charge = 0, multiplicity = 1:

       Center              X                  Y                   Z               Mass
    ------------   -----------------  -----------------  -----------------  -----------------
         BR          -2.390076430141     0.001585404962     0.980835271738    78.918337600000
         BR          -0.380122430141    -1.584613595038    -0.900249728262    78.918337600000
         BR          -0.380135430141     1.587822404962    -0.900231728262    78.918337600000
         C            0.434462569859     0.001593404962     1.371112271738    12.000000000000
         C            1.873252569859     0.001596404962     0.933841271738    12.000000000000
         C           -0.579621430141     0.001596404962     0.222666271738    12.000000000000
         C            2.514541669859    -1.252101395038     0.870647071738    12.000000000000
         C            2.554362569859     1.210053404962     0.733284271738    12.000000000000
         C            3.887968569859    -1.206402595038     0.324114271738    12.000000000000
         C            3.887964569859     1.209598404962     0.324110271738    12.000000000000
         C            4.556685569859     0.001598404962     0.114363271738    12.000000000000
         H            0.213662569859     0.886115404962     1.980007271738     1.007825032230
         H            0.213664569859    -0.882932595038     1.980002271738     1.007825032230
         H            2.038684569859    -2.149473595038     0.901287271738     1.007825032230
         H            2.038676569859     2.152666404962     0.901278271738     1.007825032230
         H            4.407128569859    -2.150014595038     0.174545271738     1.007825032230
         H            4.407121569859     2.153211404962     0.174537271738     1.007825032230
         H            5.596790569859     0.001599404962    -0.202450728262     1.007825032230

  Basis Set: AUG-CC-PVTZ
    Blend: AUG-CC-PVTZ
  Basis Set: (AUG-CC-PVTZ AUX)
    Blend: AUG-CC-PVTZ-JKFIT
	 Reference Energy          =   -8024.4686353695969956 [Eh]
	 Singles Energy            =      -0.0000000000000000 [Eh]
	 Same-Spin Energy          =      -0.6292719027626499 [Eh]
	 Opposite-Spin Energy      =      -1.7195275348025052 [Eh]
	 Correlation Energy        =      -2.3487994375651553 [Eh]
	 Total Energy              =   -8026.8174348071624991 [Eh]

	 ================> DF-SCS-MP2 Energies <==================
	-----------------------------------------------------------
	 SCS Same-Spin Scale       =       0.3333333333333333 [-]
	 SCS Opposite-Spin Scale   =       1.2000000000000000 [-]
	 SCS Same-Spin Energy      =      -0.2097573009208833 [Eh]
	 SCS Opposite-Spin Energy  =      -2.0634330417630062 [Eh]
	 SCS Correlation Energy    =      -2.2731903426838898 [Eh]
	 SCS Total Energy          =   -8026.7418257122808427 [Eh]
	-----------------------------------------------------------

  Dipole Moment: [D]
     X:     1.6057      Y:     0.0402      Z:     0.8260     Total:     1.8061

*** Psi4 exiting successfully. Buy a developer a beer!
