                               Psi4 1.4a2.dev612

  ==> Input File <==

--------------------------------------------------------------------------
#psi4
#
memory 32 gb

molecule  {
0 1
 Br       -2.5380180    -0.0000120     0.9448210
 Br       -0.5280640    -1.5862110    -0.9362640
 Br       -0.5280770     1.5862250    -0.9362460
  C        0.2865210    -0.0000040     1.3350980
  C        1.7253110    -0.0000010     0.8978270
  C       -0.7275630    -0.0000010     0.1866520
  C        2.3931500    -1.2235376     0.7430609
  C        2.4064210     1.2084560     0.6972700
  C        3.7400270    -1.2080000     0.2881000
  C        3.7400230     1.2080010     0.2880960
  C        4.4087440     0.0000010     0.0783490
  H        0.0657210     0.8845180     1.9439930
  H        0.0657230    -0.8845300     1.9439880
  H        1.8907430    -2.1510710     0.8652730
  H        1.8907350     2.1510690     0.8652640
  H        4.2591870    -2.1516120     0.1385310
  H        4.2591800     2.1516140     0.1385230
  H        5.4488490     0.0000020    -0.2384650
units angstrom
no_reorient  #important for SAPT in psi4, default
symmetry c1  #important for SAPT in psi4, default
}

set PROPERTIES_ORIGIN ["COM"]
properties('MP2/aug-cc-pvtz', properties = ['dipole'])
--------------------------------------------------------------------------

    Molecular point group: c1
  Charge       = 0
  Multiplicity = 1
  Basis Set: AUG-CC-PVTZ
    Blend: AUG-CC-PVTZ
  Basis Set: (AUG-CC-PVTZ AUX)
    Blend: AUG-CC-PVTZ-JKFIT

    Orbital Energies [Eh]
    ---------------------

    Doubly Occupied:

       1A   -490.040440     2A   -490.039240     3A   -490.039113
       4A    -65.180170     5A    -65.179044     6A    -65.178920
       7A    -58.535568     8A    -58.534445     9A    -58.534321
      10A    -58.533931    11A    -58.533925    12A    -58.532809
      13A    -58.532783    14A    -58.532683    15A    -58.532657
      16A    -11.422015    17A    -11.272952    18A    -11.255609
      19A    -11.246904    20A    -11.245838    21A    -11.245517
      22A    -11.244569    23A    -11.243376    24A     -9.852801
      25A     -9.851735    26A     -9.851614    27A     -7.464727
      28A     -7.463714    29A     -7.463597    30A     -7.457135
      31A     -7.457125    32A     -7.456119    33A     -7.455997
      34A     -7.455994    35A     -7.455875    36A     -3.208649
      37A     -3.207658    38A     -3.207539    39A     -3.204727
      40A     -3.204724    41A     -3.203764    42A     -3.203643
      43A     -3.203594    44A     -3.203477    45A     -3.194880
      46A     -3.194877    47A     -3.193768    48A     -3.193766
      49A     -3.193641    50A     -3.193639    51A     -1.180502
      52A     -1.147192    53A     -1.055216    54A     -1.023065
      55A     -1.016793    56A     -1.014215    57A     -0.966071
      58A     -0.839258    59A     -0.824942    60A     -0.770379
      61A     -0.703698    62A     -0.659585    63A     -0.654499
      64A     -0.613878    65A     -0.602525    66A     -0.597134
      67A     -0.591830    68A     -0.543734    69A     -0.522178
      70A     -0.502653    71A     -0.501733    72A     -0.497194
      73A     -0.448966    74A     -0.446277    75A     -0.429570
      76A     -0.411245    77A     -0.410036    78A     -0.398991
      79A     -0.341027    80A     -0.339084

  @DF-RHF Final Energy: -8024.48257964915501

   => Energetics <=

    Nuclear Repulsion Energy =           1733.8667976987467227
    One-Electron Energy =              -14621.9205976250796084
    Two-Electron Energy =                4863.5712202771774173
    Total Energy =                      -8024.4825796491550136
  Basis Set: (AUG-CC-PVTZ AUX)
    Blend: AUG-CC-PVTZ-RI
    Molecular point group: c1

    Geometry (in Angstrom), charge = 0, multiplicity = 1:

       Center              X                  Y                   Z               Mass
    ------------   -----------------  -----------------  -----------------  -----------------
         BR          -2.391014009961     0.000520296149     0.984069030266    78.918337600000
         BR          -0.381060009961    -1.585678703851    -0.897015969734    78.918337600000
         BR          -0.381073009961     1.586757296149    -0.896997969734    78.918337600000
         C            0.433524990039     0.000528296149     1.374346030266    12.000000000000
         C            1.872314990039     0.000531296149     0.937075030266    12.000000000000
         C           -0.580559009961     0.000531296149     0.225900030266    12.000000000000
         C            2.540153990039    -1.223005303851     0.782308930266    12.000000000000
         C            2.553424990039     1.208988296149     0.736518030266    12.000000000000
         C            3.887030990039    -1.207467703851     0.327348030266    12.000000000000
         C            3.887026990039     1.208533296149     0.327344030266    12.000000000000
         C            4.555747990039     0.000533296149     0.117597030266    12.000000000000
         H            0.212724990039     0.885050296149     1.983241030266     1.007825032230
         H            0.212726990039    -0.883997703851     1.983236030266     1.007825032230
         H            2.037746990039    -2.150538703851     0.904521030266     1.007825032230
         H            2.037738990039     2.151601296149     0.904512030266     1.007825032230
         H            4.406190990039    -2.151079703851     0.177779030266     1.007825032230
         H            4.406183990039     2.152146296149     0.177771030266     1.007825032230
         H            5.595852990039     0.000534296149    -0.199216969734     1.007825032230

  Basis Set: AUG-CC-PVTZ
    Blend: AUG-CC-PVTZ
  Basis Set: (AUG-CC-PVTZ AUX)
    Blend: AUG-CC-PVTZ-JKFIT
	 Reference Energy          =   -8024.4825796491550136 [Eh]
	 Singles Energy            =      -0.0000000000000000 [Eh]
	 Same-Spin Energy          =      -0.6290141383260658 [Eh]
	 Opposite-Spin Energy      =      -1.7180554997398585 [Eh]
	 Correlation Energy        =      -2.3470696380659244 [Eh]
	 Total Energy              =   -8026.8296492872204908 [Eh]

	 ================> DF-SCS-MP2 Energies <==================
	-----------------------------------------------------------
	 SCS Same-Spin Scale       =       0.3333333333333333 [-]
	 SCS Opposite-Spin Scale   =       1.2000000000000000 [-]
	 SCS Same-Spin Energy      =      -0.2096713794420219 [Eh]
	 SCS Opposite-Spin Energy  =      -2.0616665996878303 [Eh]
	 SCS Correlation Energy    =      -2.2713379791298522 [Eh]
	 SCS Total Energy          =   -8026.7539176282853077 [Eh]
	-----------------------------------------------------------

  Dipole Moment: [D]
     X:     1.5901      Y:     0.0042      Z:     0.8662     Total:     1.8107

*** Psi4 exiting successfully. Buy a developer a beer!
