                               Psi4 1.4a2.dev612

  ==> Input File <==

--------------------------------------------------------------------------
#psi4
#
memory 32 gb

molecule  {
0 1
 Br       -2.5380180    -0.0000120     0.9448210
 Br       -0.5280640    -1.5862110    -0.9362640
 Br       -0.5280770     1.5862250    -0.9362460
  C        0.2865210    -0.0000040     1.3350980
  C        1.7253110    -0.0000010     0.8978270
  C       -0.7275630    -0.0000010     0.1866520
  C        2.3267752    -1.2989405     0.9719906
  C        2.4064210     1.2084560     0.6972700
  C        3.7400270    -1.2080000     0.2881000
  C        3.7400230     1.2080010     0.2880960
  C        4.4087440     0.0000010     0.0783490
  H        0.0657210     0.8845180     1.9439930
  H        0.0657230    -0.8845300     1.9439880
  H        1.8907430    -2.1510710     0.8652730
  H        1.8907350     2.1510690     0.8652640
  H        4.2591870    -2.1516120     0.1385310
  H        4.2591800     2.1516140     0.1385230
  H        5.4488490     0.0000020    -0.2384650
units angstrom
no_reorient  #important for SAPT in psi4, default
symmetry c1  #important for SAPT in psi4, default
}

set PROPERTIES_ORIGIN ["COM"]
properties('MP2/aug-cc-pvtz', properties = ['dipole'])
--------------------------------------------------------------------------

    Molecular point group: c1
  Charge       = 0
  Multiplicity = 1
  Basis Set: AUG-CC-PVTZ
    Blend: AUG-CC-PVTZ
  Basis Set: (AUG-CC-PVTZ AUX)
    Blend: AUG-CC-PVTZ-JKFIT

    Orbital Energies [Eh]
    ---------------------

    Doubly Occupied:

       1A   -490.040110     2A   -490.039598     3A   -490.039295
       4A    -65.179841     5A    -65.179394     6A    -65.179107
       7A    -58.535239     8A    -58.534793     9A    -58.534505
      10A    -58.533602    11A    -58.533596    12A    -58.533163
      13A    -58.533137    14A    -58.532870    15A    -58.532846
      16A    -11.421733    17A    -11.270100    18A    -11.266677
      19A    -11.263605    20A    -11.253469    21A    -11.252295
      22A    -11.245527    23A    -11.244080    24A     -9.852471
      25A     -9.852074    26A     -9.851801    27A     -7.464396
      28A     -7.464042    29A     -7.463774    30A     -7.456808
      31A     -7.456793    32A     -7.456468    33A     -7.456346
      34A     -7.456182    35A     -7.456075    36A     -3.208319
      37A     -3.207980    38A     -3.207711    39A     -3.204400
      40A     -3.204390    41A     -3.204094    42A     -3.203929
      43A     -3.203817    44A     -3.203664    45A     -3.194552
      46A     -3.194548    47A     -3.194130    48A     -3.194126
      49A     -3.193843    50A     -3.193841    51A     -1.178190
      52A     -1.140511    53A     -1.057569    54A     -1.019307
      55A     -1.016682    56A     -1.007686    57A     -0.963917
      58A     -0.852429    59A     -0.817743    60A     -0.766869
      61A     -0.706597    62A     -0.670915    63A     -0.654017
      64A     -0.618471    65A     -0.602629    66A     -0.597769
      67A     -0.579488    68A     -0.542156    69A     -0.527839
      70A     -0.511811    71A     -0.492393    72A     -0.474668
      73A     -0.449021    74A     -0.445804    75A     -0.426938
      76A     -0.411492    77A     -0.410076    78A     -0.398991
      79A     -0.344873    80A     -0.328985

  @DF-RHF Final Energy: -8024.42609507433644

   => Energetics <=

    Nuclear Repulsion Energy =           1730.7374604537512823
    One-Electron Energy =              -14615.5371271244202944
    Two-Electron Energy =                4860.3735715963330222
    Total Energy =                      -8024.4260950743364447
  Basis Set: (AUG-CC-PVTZ AUX)
    Blend: AUG-CC-PVTZ-RI
    Molecular point group: c1

    Geometry (in Angstrom), charge = 0, multiplicity = 1:

       Center              X                  Y                   Z               Mass
    ------------   -----------------  -----------------  -----------------  -----------------
         BR          -2.388670058645     0.003183064650     0.975984635711    78.918337600000
         BR          -0.378716058645    -1.583015935350    -0.905100364289    78.918337600000
         BR          -0.378729058645     1.589420064650    -0.905082364289    78.918337600000
         C            0.435868941355     0.003191064650     1.366261635711    12.000000000000
         C            1.874658941355     0.003194064650     0.928990635711    12.000000000000
         C           -0.578215058645     0.003194064650     0.217815635711    12.000000000000
         C            2.476123141355    -1.295745435350     1.003154235711    12.000000000000
         C            2.555768941355     1.211651064650     0.728433635711    12.000000000000
         C            3.889374941355    -1.204804935350     0.319263635711    12.000000000000
         C            3.889370941355     1.211196064650     0.319259635711    12.000000000000
         C            4.558091941355     0.003196064650     0.109512635711    12.000000000000
         H            0.215068941355     0.887713064650     1.975156635711     1.007825032230
         H            0.215070941355    -0.881334935350     1.975151635711     1.007825032230
         H            2.040090941355    -2.147875935350     0.896436635711     1.007825032230
         H            2.040082941355     2.154264064650     0.896427635711     1.007825032230
         H            4.408534941355    -2.148416935350     0.169694635711     1.007825032230
         H            4.408527941355     2.154809064650     0.169686635711     1.007825032230
         H            5.598196941355     0.003197064650    -0.207301364289     1.007825032230

  Basis Set: AUG-CC-PVTZ
    Blend: AUG-CC-PVTZ
  Basis Set: (AUG-CC-PVTZ AUX)
    Blend: AUG-CC-PVTZ-JKFIT
	 Reference Energy          =   -8024.4260950743364447 [Eh]
	 Singles Energy            =      -0.0000000000000000 [Eh]
	 Same-Spin Energy          =      -0.6302485425766331 [Eh]
	 Opposite-Spin Energy      =      -1.7237483851568098 [Eh]
	 Correlation Energy        =      -2.3539969277334429 [Eh]
	 Total Energy              =   -8026.7800920020699778 [Eh]

	 ================> DF-SCS-MP2 Energies <==================
	-----------------------------------------------------------
	 SCS Same-Spin Scale       =       0.3333333333333333 [-]
	 SCS Opposite-Spin Scale   =       1.2000000000000000 [-]
	 SCS Same-Spin Energy      =      -0.2100828475255443 [Eh]
	 SCS Opposite-Spin Energy  =      -2.0684980621881719 [Eh]
	 SCS Correlation Energy    =      -2.2785809097137162 [Eh]
	 SCS Total Energy          =   -8026.7046759840504819 [Eh]
	-----------------------------------------------------------

  Dipole Moment: [D]
     X:     1.6558      Y:     0.1605      Z:     0.7516     Total:     1.8255

*** Psi4 exiting successfully. Buy a developer a beer!
