                               Psi4 1.4a2.dev612

  ==> Input File <==

--------------------------------------------------------------------------
#psi4
#
memory 32 gb

molecule  {
0 1
 Br       -2.5380180    -0.0000120     0.9448210
 Br       -0.5280640    -1.5862110    -0.9362640
 Br       -0.5280770     1.5862250    -0.9362460
  C        0.2865210    -0.0000040     1.3350980
  C        1.7253110    -0.0000010     0.8978270
  C       -0.7275630    -0.0000010     0.1866520
  C        2.3533252    -1.2687793     0.8804187
  C        2.4064210     1.2084560     0.6972700
  C        3.7400270    -1.2080000     0.2881000
  C        3.7400230     1.2080010     0.2880960
  C        4.4087440     0.0000010     0.0783490
  H        0.0657210     0.8845180     1.9439930
  H        0.0657230    -0.8845300     1.9439880
  H        1.8907430    -2.1510710     0.8652730
  H        1.8907350     2.1510690     0.8652640
  H        4.2591870    -2.1516120     0.1385310
  H        4.2591800     2.1516140     0.1385230
  H        5.4488490     0.0000020    -0.2384650
units angstrom
no_reorient  #important for SAPT in psi4, default
symmetry c1  #important for SAPT in psi4, default
}

set PROPERTIES_ORIGIN ["COM"]
properties('MP2/aug-cc-pvtz', properties = ['dipole'])
--------------------------------------------------------------------------

    Molecular point group: c1
  Charge       = 0
  Multiplicity = 1
  Basis Set: AUG-CC-PVTZ
    Blend: AUG-CC-PVTZ
  Basis Set: (AUG-CC-PVTZ AUX)
    Blend: AUG-CC-PVTZ-JKFIT

    Orbital Energies [Eh]
    ---------------------

    Doubly Occupied:

       1A   -490.040201     2A   -490.039484     3A   -490.039172
       4A    -65.179931     5A    -65.179283     6A    -65.178982
       7A    -58.535329     8A    -58.534682     9A    -58.534381
      10A    -58.533693    11A    -58.533687    12A    -58.533050
      13A    -58.533025    14A    -58.532745    15A    -58.532720
      16A    -11.421778    17A    -11.271024    18A    -11.260875
      19A    -11.256766    20A    -11.250226    21A    -11.248206
      22A    -11.245304    23A    -11.244149    24A     -9.852561
      25A     -9.851966    26A     -9.851675    27A     -7.464485
      28A     -7.463936    29A     -7.463652    30A     -7.456898
      31A     -7.456885    32A     -7.456359    33A     -7.456235
      34A     -7.456055    35A     -7.455943    36A     -3.208407
      37A     -3.207875    38A     -3.207591    39A     -3.204489
      40A     -3.204481    41A     -3.203989    42A     -3.203820
      43A     -3.203696    44A     -3.203538    45A     -3.194642
      46A     -3.194639    47A     -3.194017    48A     -3.194014
      49A     -3.193710    50A     -3.193708    51A     -1.178942
      52A     -1.142845    53A     -1.056471    54A     -1.020107
      55A     -1.016695    56A     -1.010754    57A     -0.964954
      58A     -0.847124    59A     -0.820381    60A     -0.768352
      61A     -0.705653    62A     -0.665054    63A     -0.655702
      64A     -0.616897    65A     -0.602666    66A     -0.598838
      67A     -0.584148    68A     -0.543031    69A     -0.525277
      70A     -0.509408    71A     -0.496011    72A     -0.485260
      73A     -0.448994    74A     -0.446023    75A     -0.428354
      76A     -0.411422    77A     -0.410040    78A     -0.398962
      79A     -0.343565    80A     -0.332353

  @DF-RHF Final Energy: -8024.45702391026043

   => Energetics <=

    Nuclear Repulsion Energy =           1732.0905895834541752
    One-Electron Energy =              -14618.3107511040125246
    Two-Electron Energy =                4861.7631376102972354
    Total Energy =                      -8024.4570239102604319
  Basis Set: (AUG-CC-PVTZ AUX)
    Blend: AUG-CC-PVTZ-RI
    Molecular point group: c1

    Geometry (in Angstrom), charge = 0, multiplicity = 1:

       Center              X                  Y                   Z               Mass
    ------------   -----------------  -----------------  -----------------  -----------------
         BR          -2.389607641997     0.002117955837     0.979218394240    78.918337600000
         BR          -0.379653641997    -1.584081044163    -0.901866605760    78.918337600000
         BR          -0.379666641997     1.588354955837    -0.901848605760    78.918337600000
         C            0.434931358003     0.002125955837     1.369495394240    12.000000000000
         C            1.873721358003     0.002128955837     0.932224394240    12.000000000000
         C           -0.579152641997     0.002128955837     0.221049394240    12.000000000000
         C            2.501735558003    -1.266649344163     0.914816094240    12.000000000000
         C            2.554831358003     1.210585955837     0.731667394240    12.000000000000
         C            3.888437358003    -1.205870044163     0.322497394240    12.000000000000
         C            3.888433358003     1.210130955837     0.322493394240    12.000000000000
         C            4.557154358003     0.002130955837     0.112746394240    12.000000000000
         H            0.214131358003     0.886647955837     1.978390394240     1.007825032230
         H            0.214133358003    -0.882400044163     1.978385394240     1.007825032230
         H            2.039153358003    -2.148941044163     0.899670394240     1.007825032230
         H            2.039145358003     2.153198955837     0.899661394240     1.007825032230
         H            4.407597358003    -2.149482044163     0.172928394240     1.007825032230
         H            4.407590358003     2.153743955837     0.172920394240     1.007825032230
         H            5.597259358003     0.002131955837    -0.204067605760     1.007825032230

  Basis Set: AUG-CC-PVTZ
    Blend: AUG-CC-PVTZ
  Basis Set: (AUG-CC-PVTZ AUX)
    Blend: AUG-CC-PVTZ-JKFIT
	 Reference Energy          =   -8024.4570239102604319 [Eh]
	 Singles Energy            =      -0.0000000000000000 [Eh]
	 Same-Spin Energy          =      -0.6295222184629475 [Eh]
	 Opposite-Spin Energy      =      -1.7206801877631595 [Eh]
	 Correlation Energy        =      -2.3502024062261069 [Eh]
	 Total Energy              =   -8026.8072263164867763 [Eh]

	 ================> DF-SCS-MP2 Energies <==================
	-----------------------------------------------------------
	 SCS Same-Spin Scale       =       0.3333333333333333 [-]
	 SCS Opposite-Spin Scale   =       1.2000000000000000 [-]
	 SCS Same-Spin Energy      =      -0.2098407394876492 [Eh]
	 SCS Opposite-Spin Energy  =      -2.0648162253157913 [Eh]
	 SCS Correlation Energy    =      -2.2746569648034405 [Eh]
	 SCS Total Energy          =   -8026.7316808750638302 [Eh]
	-----------------------------------------------------------

  Dipole Moment: [D]
     X:     1.6190      Y:     0.0718      Z:     0.8029     Total:     1.8086

*** Psi4 exiting successfully. Buy a developer a beer!
