                               Psi4 1.3.2 release

  ==> Input File <==

--------------------------------------------------------------------------
#psi4
#
memory 32 gb

molecule  {
0 1
  O        0.0000000     1.2846030    -0.0000340
  C       -1.2933030    -0.7398820    -0.0001760
  C        1.2932843    -0.7398806     0.1501460
  C        0.0000000     0.0555960    -0.0000230
  C       -2.5345840     0.1407430     0.0001160
  C        2.5345840     0.1407430    -0.0000420
  H       -1.2807360    -1.4061910     0.8728000
  H       -1.2807880    -1.4056370    -0.8735800
  H        1.2807720    -1.4061280    -0.8728800
  H        1.2807530    -1.4057000     0.8735000
  H       -3.4404540    -0.4711510     0.0003790
  H       -2.5493440     0.7863420     0.8803370
  H       -2.5498290     0.7862720    -0.8801480
  H        2.5497870     0.7862280     0.8802560
  H        2.5493860     0.7863860    -0.8802290
  H        3.4404540    -0.4711510    -0.0002890
units angstrom
no_reorient  #important for SAPT in psi4, default
symmetry c1  #important for SAPT in psi4, default
}

set PROPERTIES_ORIGIN ["COM"]
properties('MP2/aug-cc-pvtz', properties = ['dipole'])
--------------------------------------------------------------------------

    Molecular point group: c1
  Charge       = 0
  Multiplicity = 1
  Basis Set: AUG-CC-PVTZ
    Blend: AUG-CC-PVTZ
  Basis Set: (AUG-CC-PVTZ AUX)
    Blend: AUG-CC-PVTZ-JKFIT

    Orbital Energies [Eh]
    ---------------------

    Doubly Occupied:

       1A    -20.543235     2A    -11.330060     3A    -11.242566
       4A    -11.239968     5A    -11.218198     6A    -11.216258
       7A     -1.374482     8A     -1.069801     9A     -1.036912
      10A     -0.915472    11A     -0.846298    12A     -0.732762
      13A     -0.670579    14A     -0.641201    15A     -0.615589
      16A     -0.599460    17A     -0.563037    18A     -0.533719
      19A     -0.520747    20A     -0.513730    21A     -0.504844
      22A     -0.483843    23A     -0.462991    24A     -0.408000

  @DF-RHF Final Energy:  -270.10746527051901

   => Energetics <=

    Nuclear Repulsion Energy =            238.8392008808058904
    One-Electron Energy =                -839.3258263113048088
    Two-Electron Energy =                 330.3791601599798469
    Total Energy =                       -270.1074652705190147
  Basis Set: (AUG-CC-PVTZ AUX)
    Blend: AUG-CC-PVTZ-RI
    Molecular point group: c1

    Geometry (in Angstrom), charge = 0, multiplicity = 1:

       Center              X                  Y                   Z               Mass
    ------------   -----------------  -----------------  -----------------  -----------------
         O            0.000002595375     1.245247519290    -0.020944760242    15.994914619570
         C           -1.293300404625    -0.779237480710    -0.021086760242    12.000000000000
         C            1.293286895375    -0.779236080710     0.129235239758    12.000000000000
         C            0.000002595375     0.016240519290    -0.020933760242    12.000000000000
         C           -2.534581404625     0.101387519290    -0.020794760242    12.000000000000
         C            2.534586595375     0.101387519290    -0.020952760242    12.000000000000
         H           -1.280733404625    -1.445546480710     0.851889239758     1.007825032230
         H           -1.280785404625    -1.444992480710    -0.894490760242     1.007825032230
         H            1.280774595375    -1.445483480710    -0.893790760242     1.007825032230
         H            1.280755595375    -1.445055480710     0.852589239758     1.007825032230
         H           -3.440451404625    -0.510506480710    -0.020531760242     1.007825032230
         H           -2.549341404625     0.746986519290     0.859426239758     1.007825032230
         H           -2.549826404625     0.746916519290    -0.901058760242     1.007825032230
         H            2.549789595375     0.746872519290     0.859345239758     1.007825032230
         H            2.549388595375     0.747030519290    -0.901139760242     1.007825032230
         H            3.440456595375    -0.510506480710    -0.021199760242     1.007825032230

  Basis Set: AUG-CC-PVTZ
    Blend: AUG-CC-PVTZ
  Basis Set: (AUG-CC-PVTZ AUX)
    Blend: AUG-CC-PVTZ-JKFIT
	 Reference Energy          =    -270.1074652705190147 [Eh]
	 Singles Energy            =      -0.0000000000000000 [Eh]
	 Same-Spin Energy          =      -0.2730728592580569 [Eh]
	 Opposite-Spin Energy      =      -0.9476712275557435 [Eh]
	 Correlation Energy        =      -1.2207440868138004 [Eh]
	 Total Energy              =    -271.3282093573328098 [Eh]

	 ================> DF-SCS-MP2 Energies <==================
	-----------------------------------------------------------
	 SCS Same-Spin Scale       =       0.3333333333333333 [-]
	 SCS Opposite-Spin Scale   =       1.2000000000000000 [-]
	 SCS Same-Spin Energy      =      -0.0910242864193523 [Eh]
	 SCS Opposite-Spin Energy  =      -1.1372054730668921 [Eh]
	 SCS Correlation Energy    =      -1.2282297594862444 [Eh]
	 SCS Total Energy          =    -271.3356950300052404 [Eh]
	-----------------------------------------------------------

  Dipole Moment: [D]
     X:     0.0092      Y:    -2.6578      Z:     0.0844     Total:     2.6592

*** Psi4 exiting successfully. Buy a developer a beer!
