                               Psi4 1.3.2 release

  ==> Input File <==

--------------------------------------------------------------------------
#psi4
#
memory 32 gb

molecule  {
0 1
  O        0.0000000     1.2846030    -0.0000340
  C       -1.2933030    -0.7398820    -0.0001760
  C        1.2932968    -0.7398815     0.0501460
  C        0.0000000     0.0555960    -0.0000230
  C       -2.5345840     0.1407430     0.0001160
  C        2.5345840     0.1407430    -0.0000420
  H       -1.2807360    -1.4061910     0.8728000
  H       -1.2807880    -1.4056370    -0.8735800
  H        1.2807720    -1.4061280    -0.8728800
  H        1.2807530    -1.4057000     0.8735000
  H       -3.4404540    -0.4711510     0.0003790
  H       -2.5493440     0.7863420     0.8803370
  H       -2.5498290     0.7862720    -0.8801480
  H        2.5497870     0.7862280     0.8802560
  H        2.5493860     0.7863860    -0.8802290
  H        3.4404540    -0.4711510    -0.0002890
units angstrom
no_reorient  #important for SAPT in psi4, default
symmetry c1  #important for SAPT in psi4, default
}

set PROPERTIES_ORIGIN ["COM"]
properties('MP2/aug-cc-pvtz', properties = ['dipole'])
--------------------------------------------------------------------------

    Molecular point group: c1
  Charge       = 0
  Multiplicity = 1
  Basis Set: AUG-CC-PVTZ
    Blend: AUG-CC-PVTZ
  Basis Set: (AUG-CC-PVTZ AUX)
    Blend: AUG-CC-PVTZ-JKFIT

    Orbital Energies [Eh]
    ---------------------

    Doubly Occupied:

       1A    -20.542971     2A    -11.328403     3A    -11.240151
       4A    -11.239862     5A    -11.216439     6A    -11.216221
       7A     -1.374180     8A     -1.069646     9A     -1.036708
      10A     -0.915363    11A     -0.843585    12A     -0.727090
      13A     -0.665219    14A     -0.645088    15A     -0.613035
      16A     -0.605442    17A     -0.561010    18A     -0.522735
      19A     -0.519957    20A     -0.510661    21A     -0.505809
      22A     -0.487926    23A     -0.478161    24A     -0.408550

  @DF-RHF Final Energy:  -270.12804487593183

   => Energetics <=

    Nuclear Repulsion Energy =            238.9461903937589966
    One-Electron Energy =                -839.6000421170098207
    Two-Electron Energy =                 330.5258068473189610
    Total Energy =                       -270.1280448759318347
  Basis Set: (AUG-CC-PVTZ AUX)
    Blend: AUG-CC-PVTZ-RI
    Molecular point group: c1

    Geometry (in Angstrom), charge = 0, multiplicity = 1:

       Center              X                  Y                   Z               Mass
    ------------   -----------------  -----------------  -----------------  -----------------
         O            0.000000852672     1.245247644764    -0.007003132781    15.994914619570
         C           -1.293302147328    -0.779237355236    -0.007145132781    12.000000000000
         C            1.293297652672    -0.779236855236     0.043176867219    12.000000000000
         C            0.000000852672     0.016240644764    -0.006992132781    12.000000000000
         C           -2.534583147328     0.101387644764    -0.006853132781    12.000000000000
         C            2.534584852672     0.101387644764    -0.007011132781    12.000000000000
         H           -1.280735147328    -1.445546355236     0.865830867219     1.007825032230
         H           -1.280787147328    -1.444992355236    -0.880549132781     1.007825032230
         H            1.280772852672    -1.445483355236    -0.879849132781     1.007825032230
         H            1.280753852672    -1.445055355236     0.866530867219     1.007825032230
         H           -3.440453147328    -0.510506355236    -0.006590132781     1.007825032230
         H           -2.549343147328     0.746986644764     0.873367867219     1.007825032230
         H           -2.549828147328     0.746916644764    -0.887117132781     1.007825032230
         H            2.549787852672     0.746872644764     0.873286867219     1.007825032230
         H            2.549386852672     0.747030644764    -0.887198132781     1.007825032230
         H            3.440454852672    -0.510506355236    -0.007258132781     1.007825032230

  Basis Set: AUG-CC-PVTZ
    Blend: AUG-CC-PVTZ
  Basis Set: (AUG-CC-PVTZ AUX)
    Blend: AUG-CC-PVTZ-JKFIT
	 Reference Energy          =    -270.1280448759318347 [Eh]
	 Singles Energy            =      -0.0000000000000000 [Eh]
	 Same-Spin Energy          =      -0.2728190997964079 [Eh]
	 Opposite-Spin Energy      =      -0.9466562938880470 [Eh]
	 Correlation Energy        =      -1.2194753936844549 [Eh]
	 Total Energy              =    -271.3475202696162683 [Eh]

	 ================> DF-SCS-MP2 Energies <==================
	-----------------------------------------------------------
	 SCS Same-Spin Scale       =       0.3333333333333333 [-]
	 SCS Opposite-Spin Scale   =       1.2000000000000000 [-]
	 SCS Same-Spin Energy      =      -0.0909396999321360 [Eh]
	 SCS Opposite-Spin Energy  =      -1.1359875526656562 [Eh]
	 SCS Correlation Energy    =      -1.2269272525977921 [Eh]
	 SCS Total Energy          =    -271.3549721285296528 [Eh]
	-----------------------------------------------------------

  Dipole Moment: [D]
     X:     0.0010      Y:    -2.6865      Z:     0.0286     Total:     2.6867

*** Psi4 exiting successfully. Buy a developer a beer!
