                               Psi4 1.3.2 release

  ==> Input File <==

--------------------------------------------------------------------------
#psi4
#
memory 32 gb

molecule  {
0 1
  O        0.0000000     1.2846030    -0.0000340
  C       -1.2933030    -0.7398820    -0.0001760
  C        1.2932906    -0.7398811     0.1001460
  C        0.0000000     0.0555960    -0.0000230
  C       -2.5345840     0.1407430     0.0001160
  C        2.5345840     0.1407430    -0.0000420
  H       -1.2807360    -1.4061910     0.8728000
  H       -1.2807880    -1.4056370    -0.8735800
  H        1.2807720    -1.4061280    -0.8728800
  H        1.2807530    -1.4057000     0.8735000
  H       -3.4404540    -0.4711510     0.0003790
  H       -2.5493440     0.7863420     0.8803370
  H       -2.5498290     0.7862720    -0.8801480
  H        2.5497870     0.7862280     0.8802560
  H        2.5493860     0.7863860    -0.8802290
  H        3.4404540    -0.4711510    -0.0002890
units angstrom
no_reorient  #important for SAPT in psi4, default
symmetry c1  #important for SAPT in psi4, default
}

set PROPERTIES_ORIGIN ["COM"]
properties('MP2/aug-cc-pvtz', properties = ['dipole'])
--------------------------------------------------------------------------

    Molecular point group: c1
  Charge       = 0
  Multiplicity = 1
  Basis Set: AUG-CC-PVTZ
    Blend: AUG-CC-PVTZ
  Basis Set: (AUG-CC-PVTZ AUX)
    Blend: AUG-CC-PVTZ-JKFIT

    Orbital Energies [Eh]
    ---------------------

    Doubly Occupied:

       1A    -20.543071     2A    -11.329028     3A    -11.241058
       4A    -11.239902     5A    -11.217104     6A    -11.216235
       7A     -1.374294     8A     -1.069702     9A     -1.036783
      10A     -0.915399    11A     -0.844583    12A     -0.729274
      13A     -0.667651    14A     -0.643287    15A     -0.614350
      16A     -0.602795    17A     -0.561722    18A     -0.527673
      19A     -0.520201    20A     -0.512567    21A     -0.505551
      22A     -0.484903    23A     -0.472362    24A     -0.408350

  @DF-RHF Final Energy:  -270.12035437481586

   => Energetics <=

    Nuclear Repulsion Energy =            238.9059661713014577
    One-Electron Energy =                -839.4969533303303706
    Two-Electron Energy =                 330.4706327842130804
    Total Energy =                       -270.1203543748158609
  Basis Set: (AUG-CC-PVTZ AUX)
    Blend: AUG-CC-PVTZ-RI
    Molecular point group: c1

    Geometry (in Angstrom), charge = 0, multiplicity = 1:

       Center              X                  Y                   Z               Mass
    ------------   -----------------  -----------------  -----------------  -----------------
         O            0.000001717053     1.245247588998    -0.013973946511    15.994914619570
         C           -1.293301282947    -0.779237411002    -0.014115946511    12.000000000000
         C            1.293292317053    -0.779236511002     0.086206053489    12.000000000000
         C            0.000001717053     0.016240588998    -0.013962946511    12.000000000000
         C           -2.534582282947     0.101387588998    -0.013823946511    12.000000000000
         C            2.534585717053     0.101387588998    -0.013981946511    12.000000000000
         H           -1.280734282947    -1.445546411002     0.858860053489     1.007825032230
         H           -1.280786282947    -1.444992411002    -0.887519946511     1.007825032230
         H            1.280773717053    -1.445483411002    -0.886819946511     1.007825032230
         H            1.280754717053    -1.445055411002     0.859560053489     1.007825032230
         H           -3.440452282947    -0.510506411002    -0.013560946511     1.007825032230
         H           -2.549342282947     0.746986588998     0.866397053489     1.007825032230
         H           -2.549827282947     0.746916588998    -0.894087946511     1.007825032230
         H            2.549788717053     0.746872588998     0.866316053489     1.007825032230
         H            2.549387717053     0.747030588998    -0.894168946511     1.007825032230
         H            3.440455717053    -0.510506411002    -0.014228946511     1.007825032230

  Basis Set: AUG-CC-PVTZ
    Blend: AUG-CC-PVTZ
  Basis Set: (AUG-CC-PVTZ AUX)
    Blend: AUG-CC-PVTZ-JKFIT
	 Reference Energy          =    -270.1203543748158609 [Eh]
	 Singles Energy            =      -0.0000000000000000 [Eh]
	 Same-Spin Energy          =      -0.2729137607257713 [Eh]
	 Opposite-Spin Energy      =      -0.9470358588030791 [Eh]
	 Correlation Energy        =      -1.2199496195288504 [Eh]
	 Total Energy              =    -271.3403039943447084 [Eh]

	 ================> DF-SCS-MP2 Energies <==================
	-----------------------------------------------------------
	 SCS Same-Spin Scale       =       0.3333333333333333 [-]
	 SCS Opposite-Spin Scale   =       1.2000000000000000 [-]
	 SCS Same-Spin Energy      =      -0.0909712535752571 [Eh]
	 SCS Opposite-Spin Energy  =      -1.1364430305636948 [Eh]
	 SCS Correlation Energy    =      -1.2274142841389519 [Eh]
	 SCS Total Energy          =    -271.3477686589548057 [Eh]
	-----------------------------------------------------------

  Dipole Moment: [D]
     X:     0.0041      Y:    -2.6756      Z:     0.0568     Total:     2.6762

*** Psi4 exiting successfully. Buy a developer a beer!
