                               Psi4 1.3.2 release

  ==> Input File <==

--------------------------------------------------------------------------
#psi4
#
memory 32 gb

molecule  {
0 1
  O        0.0000000     1.2846030    -0.0000340
  C       -1.2933030    -0.7398820    -0.0001760
  C        1.2932657    -0.7398792     0.3001460
  C        0.0000000     0.0555960    -0.0000230
  C       -2.5345840     0.1407430     0.0001160
  C        2.5345840     0.1407430    -0.0000420
  H       -1.2807360    -1.4061910     0.8728000
  H       -1.2807880    -1.4056370    -0.8735800
  H        1.2807720    -1.4061280    -0.8728800
  H        1.2807530    -1.4057000     0.8735000
  H       -3.4404540    -0.4711510     0.0003790
  H       -2.5493440     0.7863420     0.8803370
  H       -2.5498290     0.7862720    -0.8801480
  H        2.5497870     0.7862280     0.8802560
  H        2.5493860     0.7863860    -0.8802290
  H        3.4404540    -0.4711510    -0.0002890
units angstrom
no_reorient  #important for SAPT in psi4, default
symmetry c1  #important for SAPT in psi4, default
}

set PROPERTIES_ORIGIN ["COM"]
properties('MP2/aug-cc-pvtz', properties = ['dipole'])
--------------------------------------------------------------------------

    Molecular point group: c1
  Charge       = 0
  Multiplicity = 1
  Basis Set: AUG-CC-PVTZ
    Blend: AUG-CC-PVTZ
  Basis Set: (AUG-CC-PVTZ AUX)
    Blend: AUG-CC-PVTZ-JKFIT

    Orbital Energies [Eh]
    ---------------------

    Doubly Occupied:

       1A    -20.544094     2A    -11.335440     3A    -11.250581
       4A    -11.240332     5A    -11.223826     6A    -11.216384
       7A     -1.375443     8A     -1.070436     9A     -1.037694
      10A     -0.916174    11A     -0.856256    12A     -0.747493
      13A     -0.677787    14A     -0.636124    15A     -0.618013
      16A     -0.588038    17A     -0.571371    18A     -0.546713
      19A     -0.523601    20A     -0.515313    21A     -0.501799
      22A     -0.482915    23A     -0.431217    24A     -0.405488

  @DF-RHF Final Energy:  -270.03679699258134

   => Energetics <=

    Nuclear Repulsion Energy =            238.4828775546512816
    One-Electron Energy =                -838.4142873372088616
    Two-Electron Energy =                 329.8946127899762359
    Total Energy =                       -270.0367969925813441
  Basis Set: (AUG-CC-PVTZ AUX)
    Blend: AUG-CC-PVTZ-RI
    Molecular point group: c1

    Geometry (in Angstrom), charge = 0, multiplicity = 1:

       Center              X                  Y                   Z               Mass
    ------------   -----------------  -----------------  -----------------  -----------------
         O            0.000005188518     1.245247324107    -0.041857201433    15.994914619570
         C           -1.293297811482    -0.779237675893    -0.041999201433    12.000000000000
         C            1.293270888518    -0.779234875893     0.258322798567    12.000000000000
         C            0.000005188518     0.016240324107    -0.041846201433    12.000000000000
         C           -2.534578811482     0.101387324107    -0.041707201433    12.000000000000
         C            2.534589188518     0.101387324107    -0.041865201433    12.000000000000
         H           -1.280730811482    -1.445546675893     0.830976798567     1.007825032230
         H           -1.280782811482    -1.444992675893    -0.915403201433     1.007825032230
         H            1.280777188518    -1.445483675893    -0.914703201433     1.007825032230
         H            1.280758188518    -1.445055675893     0.831676798567     1.007825032230
         H           -3.440448811482    -0.510506675893    -0.041444201433     1.007825032230
         H           -2.549338811482     0.746986324107     0.838513798567     1.007825032230
         H           -2.549823811482     0.746916324107    -0.921971201433     1.007825032230
         H            2.549792188518     0.746872324107     0.838432798567     1.007825032230
         H            2.549391188518     0.747030324107    -0.922052201433     1.007825032230
         H            3.440459188518    -0.510506675893    -0.042112201433     1.007825032230

  Basis Set: AUG-CC-PVTZ
    Blend: AUG-CC-PVTZ
  Basis Set: (AUG-CC-PVTZ AUX)
    Blend: AUG-CC-PVTZ-JKFIT
	 Reference Energy          =    -270.0367969925813441 [Eh]
	 Singles Energy            =      -0.0000000000000000 [Eh]
	 Same-Spin Energy          =      -0.2739577099900185 [Eh]
	 Opposite-Spin Energy      =      -0.9511371797789836 [Eh]
	 Correlation Energy        =      -1.2250948897690022 [Eh]
	 Total Energy              =    -271.2618918823503691 [Eh]

	 ================> DF-SCS-MP2 Energies <==================
	-----------------------------------------------------------
	 SCS Same-Spin Scale       =       0.3333333333333333 [-]
	 SCS Opposite-Spin Scale   =       1.2000000000000000 [-]
	 SCS Same-Spin Energy      =      -0.0913192366633395 [Eh]
	 SCS Opposite-Spin Energy  =      -1.1413646157347803 [Eh]
	 SCS Correlation Energy    =      -1.2326838523981198 [Eh]
	 SCS Total Energy          =    -271.2694808449794550 [Eh]
	-----------------------------------------------------------

  Dipole Moment: [D]
     X:     0.0326      Y:    -2.5740      Z:     0.1553     Total:     2.5789

*** Psi4 exiting successfully. Buy a developer a beer!
