                               Psi4 1.3.2 release

  ==> Input File <==

--------------------------------------------------------------------------
#psi4
#
memory 32 gb

molecule  {
0 1
  O        0.0000000     1.2846030    -0.0000340
  C       -1.2933030    -0.7398820    -0.0001760
  C        1.2932781    -0.7398801     0.2001460
  C        0.0000000     0.0555960    -0.0000230
  C       -2.5345840     0.1407430     0.0001160
  C        2.5345840     0.1407430    -0.0000420
  H       -1.2807360    -1.4061910     0.8728000
  H       -1.2807880    -1.4056370    -0.8735800
  H        1.2807720    -1.4061280    -0.8728800
  H        1.2807530    -1.4057000     0.8735000
  H       -3.4404540    -0.4711510     0.0003790
  H       -2.5493440     0.7863420     0.8803370
  H       -2.5498290     0.7862720    -0.8801480
  H        2.5497870     0.7862280     0.8802560
  H        2.5493860     0.7863860    -0.8802290
  H        3.4404540    -0.4711510    -0.0002890
units angstrom
no_reorient  #important for SAPT in psi4, default
symmetry c1  #important for SAPT in psi4, default
}

set PROPERTIES_ORIGIN ["COM"]
properties('MP2/aug-cc-pvtz', properties = ['dipole'])
--------------------------------------------------------------------------

    Molecular point group: c1
  Charge       = 0
  Multiplicity = 1
  Basis Set: AUG-CC-PVTZ
    Blend: AUG-CC-PVTZ
  Basis Set: (AUG-CC-PVTZ AUX)
    Blend: AUG-CC-PVTZ-JKFIT

    Orbital Energies [Eh]
    ---------------------

    Doubly Occupied:

       1A    -20.543463     2A    -11.331488     3A    -11.244667
       4A    -11.240061     5A    -11.219703     6A    -11.216290
       7A     -1.374739     8A     -1.069950     9A     -1.037102
      10A     -0.915603    11A     -0.848793    12A     -0.737267
      13A     -0.673396    14A     -0.639239    15A     -0.616615
      16A     -0.595740    17A     -0.565105    18A     -0.539284
      19A     -0.521528    20A     -0.514451    21A     -0.503924
      22A     -0.483414    23A     -0.452437    24A     -0.407467

  @DF-RHF Final Energy:  -270.08929034383806

   => Energetics <=

    Nuclear Repulsion Energy =            238.7461985705785423
    One-Electron Energy =                -839.0875256529388935
    Two-Electron Energy =                 330.2520367385222357
    Total Energy =                       -270.0892903438380586
  Basis Set: (AUG-CC-PVTZ AUX)
    Blend: AUG-CC-PVTZ-RI
    Molecular point group: c1

    Geometry (in Angstrom), charge = 0, multiplicity = 1:

       Center              X                  Y                   Z               Mass
    ------------   -----------------  -----------------  -----------------  -----------------
         O            0.000003459756     1.245247449582    -0.027915573972    15.994914619570
         C           -1.293299540244    -0.779237550418    -0.028057573972    12.000000000000
         C            1.293281559756    -0.779235650418     0.172264426028    12.000000000000
         C            0.000003459756     0.016240449582    -0.027904573972    12.000000000000
         C           -2.534580540244     0.101387449582    -0.027765573972    12.000000000000
         C            2.534587459756     0.101387449582    -0.027923573972    12.000000000000
         H           -1.280732540244    -1.445546550418     0.844918426028     1.007825032230
         H           -1.280784540244    -1.444992550418    -0.901461573972     1.007825032230
         H            1.280775459756    -1.445483550418    -0.900761573972     1.007825032230
         H            1.280756459756    -1.445055550418     0.845618426028     1.007825032230
         H           -3.440450540244    -0.510506550418    -0.027502573972     1.007825032230
         H           -2.549340540244     0.746986449582     0.852455426028     1.007825032230
         H           -2.549825540244     0.746916449582    -0.908029573972     1.007825032230
         H            2.549790459756     0.746872449582     0.852374426028     1.007825032230
         H            2.549389459756     0.747030449582    -0.908110573972     1.007825032230
         H            3.440457459756    -0.510506550418    -0.028170573972     1.007825032230

  Basis Set: AUG-CC-PVTZ
    Blend: AUG-CC-PVTZ
  Basis Set: (AUG-CC-PVTZ AUX)
    Blend: AUG-CC-PVTZ-JKFIT
	 Reference Energy          =    -270.0892903438380586 [Eh]
	 Singles Energy            =      -0.0000000000000000 [Eh]
	 Same-Spin Energy          =      -0.2732981327542537 [Eh]
	 Opposite-Spin Energy      =      -0.9485658248476347 [Eh]
	 Correlation Energy        =      -1.2218639576018884 [Eh]
	 Total Energy              =    -271.3111543014399558 [Eh]

	 ================> DF-SCS-MP2 Energies <==================
	-----------------------------------------------------------
	 SCS Same-Spin Scale       =       0.3333333333333333 [-]
	 SCS Opposite-Spin Scale   =       1.2000000000000000 [-]
	 SCS Same-Spin Energy      =      -0.0910993775847512 [Eh]
	 SCS Opposite-Spin Energy  =      -1.1382789898171617 [Eh]
	 SCS Correlation Energy    =      -1.2293783674019130 [Eh]
	 SCS Total Energy          =    -271.3186687112399795 [Eh]
	-----------------------------------------------------------

  Dipole Moment: [D]
     X:     0.0159      Y:    -2.6341      Z:     0.1106     Total:     2.6365

*** Psi4 exiting successfully. Buy a developer a beer!
