                               Psi4 1.3.2 release

  ==> Input File <==

--------------------------------------------------------------------------
#psi4
#
memory 32 gb

molecule  {
0 1
  O        0.0000000     1.2846030    -0.0000340
  C       -1.2933030    -0.7398820    -0.0001760
  C        1.2932719    -0.7398797     0.2501460
  C        0.0000000     0.0555960    -0.0000230
  C       -2.5345840     0.1407430     0.0001160
  C        2.5345840     0.1407430    -0.0000420
  H       -1.2807360    -1.4061910     0.8728000
  H       -1.2807880    -1.4056370    -0.8735800
  H        1.2807720    -1.4061280    -0.8728800
  H        1.2807530    -1.4057000     0.8735000
  H       -3.4404540    -0.4711510     0.0003790
  H       -2.5493440     0.7863420     0.8803370
  H       -2.5498290     0.7862720    -0.8801480
  H        2.5497870     0.7862280     0.8802560
  H        2.5493860     0.7863860    -0.8802290
  H        3.4404540    -0.4711510    -0.0002890
units angstrom
no_reorient  #important for SAPT in psi4, default
symmetry c1  #important for SAPT in psi4, default
}

set PROPERTIES_ORIGIN ["COM"]
properties('MP2/aug-cc-pvtz', properties = ['dipole'])
--------------------------------------------------------------------------

    Molecular point group: c1
  Charge       = 0
  Multiplicity = 1
  Basis Set: AUG-CC-PVTZ
    Blend: AUG-CC-PVTZ
  Basis Set: (AUG-CC-PVTZ AUX)
    Blend: AUG-CC-PVTZ-JKFIT

    Orbital Energies [Eh]
    ---------------------

    Doubly Occupied:

       1A    -20.543750     2A    -11.333290     3A    -11.247347
       4A    -11.240183     5A    -11.221591     6A    -11.216332
       7A     -1.375062     8A     -1.070159     9A     -1.037360
      10A     -0.915822    11A     -0.852116    12A     -0.742352
      13A     -0.675824    14A     -0.637540    15A     -0.617417
      16A     -0.591846    17A     -0.567976    18A     -0.543654
      19A     -0.522497    20A     -0.514947    21A     -0.502892
      22A     -0.483148    23A     -0.441669    24A     -0.406681

  @DF-RHF Final Energy:  -270.06574700185013

   => Energetics <=

    Nuclear Repulsion Energy =            238.6273131369051157
    One-Electron Energy =                -838.7832114325719886
    Two-Electron Energy =                 330.0901512938168025
    Total Energy =                       -270.0657470018501272
  Basis Set: (AUG-CC-PVTZ AUX)
    Blend: AUG-CC-PVTZ-RI
    Molecular point group: c1

    Geometry (in Angstrom), charge = 0, multiplicity = 1:

       Center              X                  Y                   Z               Mass
    ------------   -----------------  -----------------  -----------------  -----------------
         O            0.000004324137     1.245247393815    -0.034886387703    15.994914619570
         C           -1.293298675863    -0.779237606185    -0.035028387703    12.000000000000
         C            1.293276224137    -0.779235306185     0.215293612297    12.000000000000
         C            0.000004324137     0.016240393815    -0.034875387703    12.000000000000
         C           -2.534579675863     0.101387393815    -0.034736387703    12.000000000000
         C            2.534588324137     0.101387393815    -0.034894387703    12.000000000000
         H           -1.280731675863    -1.445546606185     0.837947612297     1.007825032230
         H           -1.280783675863    -1.444992606185    -0.908432387703     1.007825032230
         H            1.280776324137    -1.445483606185    -0.907732387703     1.007825032230
         H            1.280757324137    -1.445055606185     0.838647612297     1.007825032230
         H           -3.440449675863    -0.510506606185    -0.034473387703     1.007825032230
         H           -2.549339675863     0.746986393815     0.845484612297     1.007825032230
         H           -2.549824675863     0.746916393815    -0.915000387703     1.007825032230
         H            2.549791324137     0.746872393815     0.845403612297     1.007825032230
         H            2.549390324137     0.747030393815    -0.915081387703     1.007825032230
         H            3.440458324137    -0.510506606185    -0.035141387703     1.007825032230

  Basis Set: AUG-CC-PVTZ
    Blend: AUG-CC-PVTZ
  Basis Set: (AUG-CC-PVTZ AUX)
    Blend: AUG-CC-PVTZ-JKFIT
	 Reference Energy          =    -270.0657470018501272 [Eh]
	 Singles Energy            =      -0.0000000000000000 [Eh]
	 Same-Spin Energy          =      -0.2735919883890272 [Eh]
	 Opposite-Spin Energy      =      -0.9497217010607860 [Eh]
	 Correlation Energy        =      -1.2233136894498133 [Eh]
	 Total Energy              =    -271.2890606912999374 [Eh]

	 ================> DF-SCS-MP2 Energies <==================
	-----------------------------------------------------------
	 SCS Same-Spin Scale       =       0.3333333333333333 [-]
	 SCS Opposite-Spin Scale   =       1.2000000000000000 [-]
	 SCS Same-Spin Energy      =      -0.0911973294630091 [Eh]
	 SCS Opposite-Spin Energy  =      -1.1396660412729431 [Eh]
	 SCS Correlation Energy    =      -1.2308633707359522 [Eh]
	 SCS Total Energy          =    -271.2966103725860876 [Eh]
	-----------------------------------------------------------

  Dipole Moment: [D]
     X:     0.0238      Y:    -2.6057      Z:     0.1346     Total:     2.6093

*** Psi4 exiting successfully. Buy a developer a beer!
