                               Psi4 1.3.2 release

  ==> Input File <==

--------------------------------------------------------------------------
#psi4
#
memory 32 gb

molecule  {
0 1
  O        1.0620210     0.5679390    -0.5075070
  O       -1.0619730     0.5678990     0.5074520
  C        1.7088310    -0.2054710     0.5088440
  C       -1.7086770    -0.2057720    -0.5087890
  C       -0.0000550     1.3374600    -0.0000670
  C        2.8723760    -0.9214300    -0.1416400
  C       -2.8725180    -0.9212340     0.1416940
  H        2.1040667     0.6400886     1.1431811
  H        0.9992830    -0.9151760     0.9492220
  H       -2.0532400     0.4623650    -1.3124830
  H       -0.9991440    -0.9157750    -0.9486970
  H        0.3294190     1.9615920     0.8407020
  H       -0.3295380     1.9615190    -0.8408980
  H        3.4064450    -1.5299190     0.5938180
  H        2.5134590    -1.5743390    -0.9403860
  H        3.5688290    -0.1989250    -0.5723410
  H       -3.4064460    -1.5299900    -0.5936450
  H       -2.5139360    -1.5738270     0.9408480
  H       -3.5690030    -0.1984340     0.5718480
units angstrom
no_reorient  #important for SAPT in psi4, default
symmetry c1  #important for SAPT in psi4, default
}

set PROPERTIES_ORIGIN ["COM"]
properties('MP2/aug-cc-pvtz', properties = ['dipole'])
--------------------------------------------------------------------------

    Molecular point group: c1
  Charge       = 0
  Multiplicity = 1
  Basis Set: AUG-CC-PVTZ
    Blend: AUG-CC-PVTZ
  Basis Set: (AUG-CC-PVTZ AUX)
    Blend: AUG-CC-PVTZ-JKFIT

    Orbital Energies [Eh]
    ---------------------

    Doubly Occupied:

       1A    -20.558958     2A    -20.554702     3A    -11.322969
       4A    -11.277160     5A    -11.273439     6A    -11.214782
       7A    -11.214436     8A     -1.409591     9A     -1.341240
      10A     -1.033176    11A     -1.011878    12A     -0.896244
      13A     -0.846212    14A     -0.807081    15A     -0.695888
      16A     -0.679549    17A     -0.672946    18A     -0.622456
      19A     -0.618868    20A     -0.576793    21A     -0.538018
      22A     -0.537823    23A     -0.526161    24A     -0.513019
      25A     -0.501548    26A     -0.493413    27A     -0.458524
      28A     -0.436630    29A     -0.433193

  @DF-RHF Final Energy:  -346.15810263491682

   => Energetics <=

    Nuclear Repulsion Energy =            332.6252990339989992
    One-Electron Energy =               -1131.4334069382741745
    Two-Electron Energy =                 452.6500052693583598
    Total Energy =                       -346.1581026349168155
  Basis Set: (AUG-CC-PVTZ AUX)
    Blend: AUG-CC-PVTZ-RI
    Molecular point group: c1

    Geometry (in Angstrom), charge = 0, multiplicity = 1:

       Center              X                  Y                   Z               Mass
    ------------   -----------------  -----------------  -----------------  -----------------
         O            1.061532554484     0.532075972555    -0.505868629352    15.994914619570
         O           -1.062461445516     0.532035972555     0.509090370648    15.994914619570
         C            1.708342554484    -0.241334027445     0.510482370648    12.000000000000
         C           -1.709165445516    -0.241635027445    -0.507150629352    12.000000000000
         C           -0.000543445516     1.301596972555     0.001571370648    12.000000000000
         C            2.871887554484    -0.957293027445    -0.140001629352    12.000000000000
         C           -2.873006445516    -0.957097027445     0.143332370648    12.000000000000
         H            2.103578254484     0.604225572555     1.144819470648     1.007825032230
         H            0.998794554484    -0.951039027445     0.950860370648     1.007825032230
         H           -2.053728445516     0.426501972555    -1.310844629352     1.007825032230
         H           -0.999632445516    -0.951638027445    -0.947058629352     1.007825032230
         H            0.328930554484     1.925728972555     0.842340370648     1.007825032230
         H           -0.330026445516     1.925655972555    -0.839259629352     1.007825032230
         H            3.405956554484    -1.565782027445     0.595456370648     1.007825032230
         H            2.512970554484    -1.610202027445    -0.938747629352     1.007825032230
         H            3.568340554484    -0.234788027445    -0.570702629352     1.007825032230
         H           -3.406934445516    -1.565853027445    -0.592006629352     1.007825032230
         H           -2.514424445516    -1.609690027445     0.942486370648     1.007825032230
         H           -3.569491445516    -0.234297027445     0.573486370648     1.007825032230

  Basis Set: AUG-CC-PVTZ
    Blend: AUG-CC-PVTZ
  Basis Set: (AUG-CC-PVTZ AUX)
    Blend: AUG-CC-PVTZ-JKFIT
	 Reference Energy          =    -346.1581026349168155 [Eh]
	 Singles Energy            =      -0.0000000000000000 [Eh]
	 Same-Spin Energy          =      -0.3398097649301853 [Eh]
	 Opposite-Spin Energy      =      -1.1632300616579934 [Eh]
	 Correlation Energy        =      -1.5030398265881786 [Eh]
	 Total Energy              =    -347.6611424615049941 [Eh]

	 ================> DF-SCS-MP2 Energies <==================
	-----------------------------------------------------------
	 SCS Same-Spin Scale       =       0.3333333333333333 [-]
	 SCS Opposite-Spin Scale   =       1.2000000000000000 [-]
	 SCS Same-Spin Energy      =      -0.1132699216433951 [Eh]
	 SCS Opposite-Spin Energy  =      -1.3958760739895919 [Eh]
	 SCS Correlation Energy    =      -1.5091459956329869 [Eh]
	 SCS Total Energy          =    -347.6672486305498069 [Eh]
	-----------------------------------------------------------

  Dipole Moment: [D]
     X:     0.0226      Y:    -0.4217      Z:    -0.0779     Total:     0.4294

*** Psi4 exiting successfully. Buy a developer a beer!
