                               Psi4 1.3.2 release

  ==> Input File <==

--------------------------------------------------------------------------
#psi4
#
memory 32 gb

molecule  {
0 1
  O        1.0620210     0.5679390    -0.5075070
  O       -1.0619730     0.5678990     0.5074520
  C        1.7088310    -0.2054710     0.5088440
  C       -1.7086770    -0.2057720    -0.5087890
  C       -0.0000550     1.3374600    -0.0000670
  C        2.8723760    -0.9214300    -0.1416400
  C       -2.8725180    -0.9212340     0.1416940
  H        2.0738779     0.5337694     1.2445954
  H        0.9992830    -0.9151760     0.9492220
  H       -2.0532400     0.4623650    -1.3124830
  H       -0.9991440    -0.9157750    -0.9486970
  H        0.3294190     1.9615920     0.8407020
  H       -0.3295380     1.9615190    -0.8408980
  H        3.4064450    -1.5299190     0.5938180
  H        2.5134590    -1.5743390    -0.9403860
  H        3.5688290    -0.1989250    -0.5723410
  H       -3.4064460    -1.5299900    -0.5936450
  H       -2.5139360    -1.5738270     0.9408480
  H       -3.5690030    -0.1984340     0.5718480
units angstrom
no_reorient  #important for SAPT in psi4, default
symmetry c1  #important for SAPT in psi4, default
}

set PROPERTIES_ORIGIN ["COM"]
properties('MP2/aug-cc-pvtz', properties = ['dipole'])
--------------------------------------------------------------------------

    Molecular point group: c1
  Charge       = 0
  Multiplicity = 1
  Basis Set: AUG-CC-PVTZ
    Blend: AUG-CC-PVTZ
  Basis Set: (AUG-CC-PVTZ AUX)
    Blend: AUG-CC-PVTZ-JKFIT

    Orbital Energies [Eh]
    ---------------------

    Doubly Occupied:

       1A    -20.559019     2A    -20.557120     3A    -11.323382
       4A    -11.274096     5A    -11.273367     6A    -11.214456
       7A    -11.214346     8A     -1.409755     9A     -1.341269
      10A     -1.033204    11A     -1.012116    12A     -0.896229
      13A     -0.847123    14A     -0.810092    15A     -0.693123
      16A     -0.682058    17A     -0.672575    18A     -0.621714
      19A     -0.618705    20A     -0.577433    21A     -0.537969
      22A     -0.537257    23A     -0.525855    24A     -0.514325
      25A     -0.501315    26A     -0.494965    27A     -0.460378
      28A     -0.437612    29A     -0.434692

  @DF-RHF Final Energy:  -346.16471428829334

   => Energetics <=

    Nuclear Repulsion Energy =            332.5969497070253169
    One-Electron Energy =               -1131.3722297099723164
    Two-Electron Energy =                 452.6105657146537169
    Total Energy =                       -346.1647142882933395
  Basis Set: (AUG-CC-PVTZ AUX)
    Blend: AUG-CC-PVTZ-RI
    Molecular point group: c1

    Geometry (in Angstrom), charge = 0, multiplicity = 1:

       Center              X                  Y                   Z               Mass
    ------------   -----------------  -----------------  -----------------  -----------------
         O            1.061824867494     0.533105443267    -0.506850606752    15.994914619570
         O           -1.062169132506     0.533065443267     0.508108393248    15.994914619570
         C            1.708634867494    -0.240304556733     0.509500393248    12.000000000000
         C           -1.708873132506    -0.240605556733    -0.508132606752    12.000000000000
         C           -0.000251132506     1.302626443267     0.000589393248    12.000000000000
         C            2.872179867494    -0.956263556733    -0.140983606752    12.000000000000
         C           -2.872714132506    -0.956067556733     0.142350393248    12.000000000000
         H            2.073681767494     0.498935843267     1.245251793248     1.007825032230
         H            0.999086867494    -0.950009556733     0.949878393248     1.007825032230
         H           -2.053436132506     0.427531443267    -1.311826606752     1.007825032230
         H           -0.999340132506    -0.950608556733    -0.948040606752     1.007825032230
         H            0.329222867494     1.926758443267     0.841358393248     1.007825032230
         H           -0.329734132506     1.926685443267    -0.840241606752     1.007825032230
         H            3.406248867494    -1.564752556733     0.594474393248     1.007825032230
         H            2.513262867494    -1.609172556733    -0.939729606752     1.007825032230
         H            3.568632867494    -0.233758556733    -0.571684606752     1.007825032230
         H           -3.406642132506    -1.564823556733    -0.592988606752     1.007825032230
         H           -2.514132132506    -1.608660556733     0.941504393248     1.007825032230
         H           -3.569199132506    -0.233267556733     0.572504393248     1.007825032230

  Basis Set: AUG-CC-PVTZ
    Blend: AUG-CC-PVTZ
  Basis Set: (AUG-CC-PVTZ AUX)
    Blend: AUG-CC-PVTZ-JKFIT
	 Reference Energy          =    -346.1647142882933395 [Eh]
	 Singles Energy            =      -0.0000000000000000 [Eh]
	 Same-Spin Energy          =      -0.3395128904694474 [Eh]
	 Opposite-Spin Energy      =      -1.1625775212269636 [Eh]
	 Correlation Energy        =      -1.5020904116964111 [Eh]
	 Total Energy              =    -347.6668046999897683 [Eh]

	 ================> DF-SCS-MP2 Energies <==================
	-----------------------------------------------------------
	 SCS Same-Spin Scale       =       0.3333333333333333 [-]
	 SCS Opposite-Spin Scale   =       1.2000000000000000 [-]
	 SCS Same-Spin Energy      =      -0.1131709634898158 [Eh]
	 SCS Opposite-Spin Energy  =      -1.3950930254723561 [Eh]
	 SCS Correlation Energy    =      -1.5082639889621721 [Eh]
	 SCS Total Energy          =    -347.6729782772555382 [Eh]
	-----------------------------------------------------------

  Dipole Moment: [D]
     X:     0.0155      Y:    -0.3958      Z:    -0.0238     Total:     0.3968

*** Psi4 exiting successfully. Buy a developer a beer!
