                               Psi4 1.3.2 release

  ==> Input File <==

--------------------------------------------------------------------------
#psi4
#
memory 32 gb

molecule  {
0 1
  O        1.0620210     0.5679390    -0.5075070
  O       -1.0619730     0.5678990     0.5074520
  C        1.7088310    -0.2054710     0.5088440
  C       -1.7086770    -0.2057720    -0.5087890
  C       -0.0000550     1.3374600    -0.0000670
  C        2.8723760    -0.9214300    -0.1416400
  C       -2.8725180    -0.9212340     0.1416940
  H        2.1141297     0.6755283     1.1093763
  H        0.9992830    -0.9151760     0.9492220
  H       -2.0532400     0.4623650    -1.3124830
  H       -0.9991440    -0.9157750    -0.9486970
  H        0.3294190     1.9615920     0.8407020
  H       -0.3295380     1.9615190    -0.8408980
  H        3.4064450    -1.5299190     0.5938180
  H        2.5134590    -1.5743390    -0.9403860
  H        3.5688290    -0.1989250    -0.5723410
  H       -3.4064460    -1.5299900    -0.5936450
  H       -2.5139360    -1.5738270     0.9408480
  H       -3.5690030    -0.1984340     0.5718480
units angstrom
no_reorient  #important for SAPT in psi4, default
symmetry c1  #important for SAPT in psi4, default
}

set PROPERTIES_ORIGIN ["COM"]
properties('MP2/aug-cc-pvtz', properties = ['dipole'])
--------------------------------------------------------------------------

    Molecular point group: c1
  Charge       = 0
  Multiplicity = 1
  Basis Set: AUG-CC-PVTZ
    Blend: AUG-CC-PVTZ
  Basis Set: (AUG-CC-PVTZ AUX)
    Blend: AUG-CC-PVTZ-JKFIT

    Orbital Energies [Eh]
    ---------------------

    Doubly Occupied:

       1A    -20.558985     2A    -20.554101     3A    -11.322884
       4A    -11.278669     5A    -11.273493     6A    -11.214930
       7A    -11.214487     8A     -1.409642     9A     -1.341341
      10A     -1.033162    11A     -1.011793    12A     -0.896305
      13A     -0.845891    14A     -0.806005    15A     -0.696901
      16A     -0.678941    17A     -0.673062    18A     -0.622264
      19A     -0.618801    20A     -0.576666    21A     -0.538065
      22A     -0.538048    23A     -0.526346    24A     -0.512632
      25A     -0.501798    26A     -0.492492    27A     -0.458118
      28A     -0.436463    29A     -0.431655

  @DF-RHF Final Energy:  -346.15449276412920

   => Energetics <=

    Nuclear Repulsion Energy =            332.6201109673737619
    One-Electron Energy =               -1131.4213246849690222
    Two-Electron Energy =                 452.6467209534660583
    Total Energy =                       -346.1544927641292020
  Basis Set: (AUG-CC-PVTZ AUX)
    Blend: AUG-CC-PVTZ-RI
    Molecular point group: c1

    Geometry (in Angstrom), charge = 0, multiplicity = 1:

       Center              X                  Y                   Z               Mass
    ------------   -----------------  -----------------  -----------------  -----------------
         O            1.061435116168     0.531732815974    -0.505541303229    15.994914619570
         O           -1.062558883832     0.531692815974     0.509417696771    15.994914619570
         C            1.708245116168    -0.241677184026     0.510809696771    12.000000000000
         C           -1.709262883832    -0.241978184026    -0.506823303229    12.000000000000
         C           -0.000640883832     1.301253815974     0.001898696771    12.000000000000
         C            2.871790116168    -0.957636184026    -0.139674303229    12.000000000000
         C           -2.873103883832    -0.957440184026     0.143659696771    12.000000000000
         H            2.113543816168     0.639322115974     1.111341996771     1.007825032230
         H            0.998697116168    -0.951382184026     0.951187696771     1.007825032230
         H           -2.053825883832     0.426158815974    -1.310517303229     1.007825032230
         H           -0.999729883832    -0.951981184026    -0.946731303229     1.007825032230
         H            0.328833116168     1.925385815974     0.842667696771     1.007825032230
         H           -0.330123883832     1.925312815974    -0.838932303229     1.007825032230
         H            3.405859116168    -1.566125184026     0.595783696771     1.007825032230
         H            2.512873116168    -1.610545184026    -0.938420303229     1.007825032230
         H            3.568243116168    -0.235131184026    -0.570375303229     1.007825032230
         H           -3.407031883832    -1.566196184026    -0.591679303229     1.007825032230
         H           -2.514521883832    -1.610033184026     0.942813696771     1.007825032230
         H           -3.569588883832    -0.234640184026     0.573813696771     1.007825032230

  Basis Set: AUG-CC-PVTZ
    Blend: AUG-CC-PVTZ
  Basis Set: (AUG-CC-PVTZ AUX)
    Blend: AUG-CC-PVTZ-JKFIT
	 Reference Energy          =    -346.1544927641292020 [Eh]
	 Singles Energy            =      -0.0000000000000000 [Eh]
	 Same-Spin Energy          =      -0.3399593450075215 [Eh]
	 Opposite-Spin Energy      =      -1.1635600599334264 [Eh]
	 Correlation Energy        =      -1.5035194049409479 [Eh]
	 Total Energy              =    -347.6580121690701617 [Eh]

	 ================> DF-SCS-MP2 Energies <==================
	-----------------------------------------------------------
	 SCS Same-Spin Scale       =       0.3333333333333333 [-]
	 SCS Opposite-Spin Scale   =       1.2000000000000000 [-]
	 SCS Same-Spin Energy      =      -0.1133197816691738 [Eh]
	 SCS Opposite-Spin Energy  =      -1.3962720719201116 [Eh]
	 SCS Correlation Energy    =      -1.5095918535892854 [Eh]
	 SCS Total Energy          =    -347.6640846177185153 [Eh]
	-----------------------------------------------------------

  Dipole Moment: [D]
     X:     0.0206      Y:    -0.4314      Z:    -0.1009     Total:     0.4435

*** Psi4 exiting successfully. Buy a developer a beer!
