                               Psi4 1.3.2 release

  ==> Input File <==

--------------------------------------------------------------------------
#psi4
#
memory 32 gb

molecule  {
0 1
  O        1.0620210     0.5679390    -0.5075070
  O       -1.0619730     0.5678990     0.5074520
  C        1.7088310    -0.2054710     0.5088440
  C       -1.7086770    -0.2057720    -0.5087890
  C       -0.0000550     1.3374600    -0.0000670
  C        2.8723760    -0.9214300    -0.1416400
  C       -2.8725180    -0.9212340     0.1416940
  H        2.0839408     0.5692092     1.2107906
  H        0.9992830    -0.9151760     0.9492220
  H       -2.0532400     0.4623650    -1.3124830
  H       -0.9991440    -0.9157750    -0.9486970
  H        0.3294190     1.9615920     0.8407020
  H       -0.3295380     1.9615190    -0.8408980
  H        3.4064450    -1.5299190     0.5938180
  H        2.5134590    -1.5743390    -0.9403860
  H        3.5688290    -0.1989250    -0.5723410
  H       -3.4064460    -1.5299900    -0.5936450
  H       -2.5139360    -1.5738270     0.9408480
  H       -3.5690030    -0.1984340     0.5718480
units angstrom
no_reorient  #important for SAPT in psi4, default
symmetry c1  #important for SAPT in psi4, default
}

set PROPERTIES_ORIGIN ["COM"]
properties('MP2/aug-cc-pvtz', properties = ['dipole'])
--------------------------------------------------------------------------

    Molecular point group: c1
  Charge       = 0
  Multiplicity = 1
  Basis Set: AUG-CC-PVTZ
    Blend: AUG-CC-PVTZ
  Basis Set: (AUG-CC-PVTZ AUX)
    Blend: AUG-CC-PVTZ-JKFIT

    Orbital Energies [Eh]
    ---------------------

    Doubly Occupied:

       1A    -20.558976     2A    -20.556220     3A    -11.323219
       4A    -11.274860     5A    -11.273376     6A    -11.214546
       7A    -11.214365     8A     -1.409648     9A     -1.341205
      10A     -1.033199    11A     -1.012043    12A     -0.896205
      13A     -0.846840    14A     -0.809144    15A     -0.693978
      16A     -0.681131    17A     -0.672694    18A     -0.622177
      19A     -0.618838    20A     -0.577178    21A     -0.537973
      22A     -0.537423    23A     -0.525913    24A     -0.513884
      25A     -0.501265    26A     -0.494713    27A     -0.459679
      28A     -0.437313    29A     -0.434564

  @DF-RHF Final Energy:  -346.16319104340783

   => Energetics <=

    Nuclear Repulsion Energy =            332.6139917298028195
    One-Electron Energy =               -1131.4092235502253061
    Two-Electron Energy =                 452.6320407770146517
    Total Energy =                       -346.1631910434078350
  Basis Set: (AUG-CC-PVTZ AUX)
    Blend: AUG-CC-PVTZ-RI
    Molecular point group: c1

    Geometry (in Angstrom), charge = 0, multiplicity = 1:

       Center              X                  Y                   Z               Mass
    ------------   -----------------  -----------------  -----------------  -----------------
         O            1.061727430147     0.532762285717    -0.506523280629    15.994914619570
         O           -1.062266569853     0.532722285717     0.508435719371    15.994914619570
         C            1.708537430147    -0.240647714283     0.509827719371    12.000000000000
         C           -1.708970569853    -0.240948714283    -0.507805280629    12.000000000000
         C           -0.000348569853     1.302283285717     0.000916719371    12.000000000000
         C            2.872082430147    -0.956606714283    -0.140656280629    12.000000000000
         C           -2.872811569853    -0.956410714283     0.142677719371    12.000000000000
         H            2.083647230147     0.534032485717     1.211774319371     1.007825032230
         H            0.998989430147    -0.950352714283     0.950205719371     1.007825032230
         H           -2.053533569853     0.427188285717    -1.311499280629     1.007825032230
         H           -0.999437569853    -0.950951714283    -0.947713280629     1.007825032230
         H            0.329125430147     1.926415285717     0.841685719371     1.007825032230
         H           -0.329831569853     1.926342285717    -0.839914280629     1.007825032230
         H            3.406151430147    -1.565095714283     0.594801719371     1.007825032230
         H            2.513165430147    -1.609515714283    -0.939402280629     1.007825032230
         H            3.568535430147    -0.234101714283    -0.571357280629     1.007825032230
         H           -3.406739569853    -1.565166714283    -0.592661280629     1.007825032230
         H           -2.514229569853    -1.609003714283     0.941831719371     1.007825032230
         H           -3.569296569853    -0.233610714283     0.572831719371     1.007825032230

  Basis Set: AUG-CC-PVTZ
    Blend: AUG-CC-PVTZ
  Basis Set: (AUG-CC-PVTZ AUX)
    Blend: AUG-CC-PVTZ-JKFIT
	 Reference Energy          =    -346.1631910434078350 [Eh]
	 Singles Energy            =      -0.0000000000000000 [Eh]
	 Same-Spin Energy          =      -0.3395857409900086 [Eh]
	 Opposite-Spin Energy      =      -1.1627383740337180 [Eh]
	 Correlation Energy        =      -1.5023241150237268 [Eh]
	 Total Energy              =    -347.6655151584315604 [Eh]

	 ================> DF-SCS-MP2 Energies <==================
	-----------------------------------------------------------
	 SCS Same-Spin Scale       =       0.3333333333333333 [-]
	 SCS Opposite-Spin Scale   =       1.2000000000000000 [-]
	 SCS Same-Spin Energy      =      -0.1131952469966695 [Eh]
	 SCS Opposite-Spin Energy  =      -1.3952860488404617 [Eh]
	 SCS Correlation Energy    =      -1.5084812958371312 [Eh]
	 SCS Total Energy          =    -347.6716723392449921 [Eh]
	-----------------------------------------------------------

  Dipole Moment: [D]
     X:     0.0201      Y:    -0.4038      Z:    -0.0394     Total:     0.4062

*** Psi4 exiting successfully. Buy a developer a beer!
