                               Psi4 1.3.2 release

  ==> Input File <==

--------------------------------------------------------------------------
#psi4
#
memory 32 gb

molecule  {
0 1
  O        1.0620210     0.5679390    -0.5075070
  O       -1.0619730     0.5678990     0.5074520
  C        1.7088310    -0.2054710     0.5088440
  C       -1.7086770    -0.2057720    -0.5087890
  C       -0.0000550     1.3374600    -0.0000670
  C        2.8723760    -0.9214300    -0.1416400
  C       -2.8725180    -0.9212340     0.1416940
  H        2.0638149     0.4983297     1.2784002
  H        0.9992830    -0.9151760     0.9492220
  H       -2.0532400     0.4623650    -1.3124830
  H       -0.9991440    -0.9157750    -0.9486970
  H        0.3294190     1.9615920     0.8407020
  H       -0.3295380     1.9615190    -0.8408980
  H        3.4064450    -1.5299190     0.5938180
  H        2.5134590    -1.5743390    -0.9403860
  H        3.5688290    -0.1989250    -0.5723410
  H       -3.4064460    -1.5299900    -0.5936450
  H       -2.5139360    -1.5738270     0.9408480
  H       -3.5690030    -0.1984340     0.5718480
units angstrom
no_reorient  #important for SAPT in psi4, default
symmetry c1  #important for SAPT in psi4, default
}

set PROPERTIES_ORIGIN ["COM"]
properties('MP2/aug-cc-pvtz', properties = ['dipole'])
--------------------------------------------------------------------------

    Molecular point group: c1
  Charge       = 0
  Multiplicity = 1
  Basis Set: AUG-CC-PVTZ
    Blend: AUG-CC-PVTZ
  Basis Set: (AUG-CC-PVTZ AUX)
    Blend: AUG-CC-PVTZ-JKFIT

    Orbital Energies [Eh]
    ---------------------

    Doubly Occupied:

       1A    -20.559083     2A    -20.558103     3A    -11.323568
       4A    -11.273602     5A    -11.273373     6A    -11.214386
       7A    -11.214337     8A     -1.409911     9A     -1.341386
      10A     -1.033201    11A     -1.012177    12A     -0.896280
      13A     -0.847369    14A     -0.810961    15A     -0.692364
      16A     -0.683032    17A     -0.672471    18A     -0.621151
      19A     -0.618385    20A     -0.577727    21A     -0.537974
      22A     -0.537115    23A     -0.525842    24A     -0.514746
      25A     -0.501518    26A     -0.494911    27A     -0.461122
      28A     -0.437765    29A     -0.434613

  @DF-RHF Final Energy:  -346.16558783018201

   => Energetics <=

    Nuclear Repulsion Energy =            332.5720809236884179
    One-Electron Energy =               -1131.3183879142734440
    Two-Electron Energy =                 452.5807191604030209
    Total Energy =                       -346.1655878301820053
  Basis Set: (AUG-CC-PVTZ AUX)
    Blend: AUG-CC-PVTZ-RI
    Molecular point group: c1

    Geometry (in Angstrom), charge = 0, multiplicity = 1:

       Center              X                  Y                   Z               Mass
    ------------   -----------------  -----------------  -----------------  -----------------
         O            1.061922305810     0.533448599848    -0.507177932874    15.994914619570
         O           -1.062071694190     0.533408599848     0.507781067126    15.994914619570
         C            1.708732305810    -0.239961400152     0.509173067126    12.000000000000
         C           -1.708775694190    -0.240262400152    -0.508459932874    12.000000000000
         C           -0.000153694190     1.302969599848     0.000262067126    12.000000000000
         C            2.872277305810    -0.955920400152    -0.141310932874    12.000000000000
         C           -2.872616694190    -0.955724400152     0.142023067126    12.000000000000
         H            2.063716205810     0.463839299848     1.278729267126     1.007825032230
         H            0.999184305810    -0.949666400152     0.949551067126     1.007825032230
         H           -2.053338694190     0.427874599848    -1.312153932874     1.007825032230
         H           -0.999242694190    -0.950265400152    -0.948367932874     1.007825032230
         H            0.329320305810     1.927101599848     0.841031067126     1.007825032230
         H           -0.329636694190     1.927028599848    -0.840568932874     1.007825032230
         H            3.406346305810    -1.564409400152     0.594147067126     1.007825032230
         H            2.513360305810    -1.608829400152    -0.940056932874     1.007825032230
         H            3.568730305810    -0.233415400152    -0.572011932874     1.007825032230
         H           -3.406544694190    -1.564480400152    -0.593315932874     1.007825032230
         H           -2.514034694190    -1.608317400152     0.941177067126     1.007825032230
         H           -3.569101694190    -0.232924400152     0.572177067126     1.007825032230

  Basis Set: AUG-CC-PVTZ
    Blend: AUG-CC-PVTZ
  Basis Set: (AUG-CC-PVTZ AUX)
    Blend: AUG-CC-PVTZ-JKFIT
	 Reference Energy          =    -346.1655878301820053 [Eh]
	 Singles Energy            =      -0.0000000000000000 [Eh]
	 Same-Spin Energy          =      -0.3394667792213388 [Eh]
	 Opposite-Spin Energy      =      -1.1624740387624759 [Eh]
	 Correlation Energy        =      -1.5019408179838147 [Eh]
	 Total Energy              =    -347.6675286481658418 [Eh]

	 ================> DF-SCS-MP2 Energies <==================
	-----------------------------------------------------------
	 SCS Same-Spin Scale       =       0.3333333333333333 [-]
	 SCS Opposite-Spin Scale   =       1.2000000000000000 [-]
	 SCS Same-Spin Energy      =      -0.1131555930737796 [Eh]
	 SCS Opposite-Spin Energy  =      -1.3949688465149710 [Eh]
	 SCS Correlation Energy    =      -1.5081244395887505 [Eh]
	 SCS Total Energy          =    -347.6737122697707605 [Eh]
	-----------------------------------------------------------

  Dipole Moment: [D]
     X:     0.0087      Y:    -0.3887      Z:    -0.0107     Total:     0.3889

*** Psi4 exiting successfully. Buy a developer a beer!
