                               Psi4 1.3.2 release

  ==> Input File <==

--------------------------------------------------------------------------
#psi4
#
memory 32 gb

molecule  {
0 1
  O        1.0620210     0.5679390    -0.5075070
  O       -1.0619730     0.5678990     0.5074520
  C        1.7088310    -0.2054710     0.5088440
  C       -1.7086770    -0.2057720    -0.5087890
  C       -0.0000550     1.3374600    -0.0000670
  C        2.8723760    -0.9214300    -0.1416400
  C       -2.8725180    -0.9212340     0.1416940
  H        2.0940038     0.6046489     1.1769859
  H        0.9992830    -0.9151760     0.9492220
  H       -2.0532400     0.4623650    -1.3124830
  H       -0.9991440    -0.9157750    -0.9486970
  H        0.3294190     1.9615920     0.8407020
  H       -0.3295380     1.9615190    -0.8408980
  H        3.4064450    -1.5299190     0.5938180
  H        2.5134590    -1.5743390    -0.9403860
  H        3.5688290    -0.1989250    -0.5723410
  H       -3.4064460    -1.5299900    -0.5936450
  H       -2.5139360    -1.5738270     0.9408480
  H       -3.5690030    -0.1984340     0.5718480
units angstrom
no_reorient  #important for SAPT in psi4, default
symmetry c1  #important for SAPT in psi4, default
}

set PROPERTIES_ORIGIN ["COM"]
properties('MP2/aug-cc-pvtz', properties = ['dipole'])
--------------------------------------------------------------------------

    Molecular point group: c1
  Charge       = 0
  Multiplicity = 1
  Basis Set: AUG-CC-PVTZ
    Blend: AUG-CC-PVTZ
  Basis Set: (AUG-CC-PVTZ AUX)
    Blend: AUG-CC-PVTZ-JKFIT

    Orbital Energies [Eh]
    ---------------------

    Doubly Occupied:

       1A    -20.558956     2A    -20.555411     3A    -11.323081
       4A    -11.275885     5A    -11.273400     6A    -11.214654
       7A    -11.214395     8A     -1.409593     9A     -1.341195
      10A     -1.033189    11A     -1.011963    12A     -0.896210
      13A     -0.846533    14A     -0.808134    15A     -0.694907
      16A     -0.680286    17A     -0.672821    18A     -0.622433
      19A     -0.618880    20A     -0.576964    21A     -0.537989
      22A     -0.537613    23A     -0.526016    24A     -0.513442
      25A     -0.501356    26A     -0.494176    27A     -0.459052
      28A     -0.436939    29A     -0.434125

  @DF-RHF Final Energy:  -346.16099506997625

   => Energetics <=

    Nuclear Repulsion Energy =            332.6233615412246536
    One-Electron Energy =               -1131.4295160384581322
    Two-Electron Energy =                 452.6451594272572265
    Total Energy =                       -346.1609950699762521
  Basis Set: (AUG-CC-PVTZ AUX)
    Blend: AUG-CC-PVTZ-RI
    Molecular point group: c1

    Geometry (in Angstrom), charge = 0, multiplicity = 1:

       Center              X                  Y                   Z               Mass
    ------------   -----------------  -----------------  -----------------  -----------------
         O            1.061629991831     0.532419129136    -0.506195955475    15.994914619570
         O           -1.062364008169     0.532379129136     0.508763044525    15.994914619570
         C            1.708439991831    -0.240990870864     0.510155044525    12.000000000000
         C           -1.709068008169    -0.241291870864    -0.507477955475    12.000000000000
         C           -0.000446008169     1.301940129136     0.001244044525    12.000000000000
         C            2.871984991831    -0.956949870864    -0.140328955475    12.000000000000
         C           -2.872909008169    -0.956753870864     0.143005044525    12.000000000000
         H            2.093612791831     0.569129029136     1.178296944525     1.007825032230
         H            0.998891991831    -0.950695870864     0.950533044525     1.007825032230
         H           -2.053631008169     0.426845129136    -1.311171955475     1.007825032230
         H           -0.999535008169    -0.951294870864    -0.947385955475     1.007825032230
         H            0.329027991831     1.926072129136     0.842013044525     1.007825032230
         H           -0.329929008169     1.925999129136    -0.839586955475     1.007825032230
         H            3.406053991831    -1.565438870864     0.595129044525     1.007825032230
         H            2.513067991831    -1.609858870864    -0.939074955475     1.007825032230
         H            3.568437991831    -0.234444870864    -0.571029955475     1.007825032230
         H           -3.406837008169    -1.565509870864    -0.592333955475     1.007825032230
         H           -2.514327008169    -1.609346870864     0.942159044525     1.007825032230
         H           -3.569394008169    -0.233953870864     0.573159044525     1.007825032230

  Basis Set: AUG-CC-PVTZ
    Blend: AUG-CC-PVTZ
  Basis Set: (AUG-CC-PVTZ AUX)
    Blend: AUG-CC-PVTZ-JKFIT
	 Reference Energy          =    -346.1609950699762521 [Eh]
	 Singles Energy            =      -0.0000000000000000 [Eh]
	 Same-Spin Energy          =      -0.3396849223690532 [Eh]
	 Opposite-Spin Energy      =      -1.1629560421858951 [Eh]
	 Correlation Energy        =      -1.5026409645549483 [Eh]
	 Total Energy              =    -347.6636360345311800 [Eh]

	 ================> DF-SCS-MP2 Energies <==================
	-----------------------------------------------------------
	 SCS Same-Spin Scale       =       0.3333333333333333 [-]
	 SCS Opposite-Spin Scale   =       1.2000000000000000 [-]
	 SCS Same-Spin Energy      =      -0.1132283074563511 [Eh]
	 SCS Opposite-Spin Energy  =      -1.3955472506230742 [Eh]
	 SCS Correlation Energy    =      -1.5087755580794253 [Eh]
	 SCS Total Energy          =    -347.6697706280556872 [Eh]
	-----------------------------------------------------------

  Dipole Moment: [D]
     X:     0.0225      Y:    -0.4124      Z:    -0.0574     Total:     0.4170

*** Psi4 exiting successfully. Buy a developer a beer!
