                               Psi4 1.3.2 release

  ==> Input File <==

--------------------------------------------------------------------------
#psi4
#
memory 32 gb

molecule  {
0 1
  O       -0.8598500     1.1359517    -0.7080127
  C        0.6908080    -0.2688650     0.3923890
  C        1.1946870    -1.2650980    -0.6685790
  C        1.6030820     0.9446750     0.4967120
  C       -0.7197390     0.1522350     0.0136690
  C       -1.7994537    -0.7464733     0.5665974
  H        0.6514880    -0.7856950     1.3599030
  H        1.2206430    -0.7821580    -1.6480110
  H        2.2053530    -1.6017900    -0.4206070
  H        0.5514890    -2.1461630    -0.7366640
  H        1.2521310     1.6422800     1.2622420
  H        1.6225110     1.4777260    -0.4537380
  H        2.6197860     0.6362020     0.7540910
  H       -1.6800360    -1.7612670     0.2847220
  H       -2.7934900    -0.3633680     0.0910490
  H       -1.9015030    -0.6283060     1.6249380
units angstrom
no_reorient  #important for SAPT in psi4, default
symmetry c1  #important for SAPT in psi4, default
}

set PROPERTIES_ORIGIN ["COM"]
properties('MP2/aug-cc-pvtz', properties = ['dipole'])
--------------------------------------------------------------------------

    Molecular point group: c1
  Charge       = 0
  Multiplicity = 1
  Basis Set: AUG-CC-PVTZ
    Blend: AUG-CC-PVTZ
  Basis Set: (AUG-CC-PVTZ AUX)
    Blend: AUG-CC-PVTZ-JKFIT

    Orbital Energies [Eh]
    ---------------------

    Doubly Occupied:

       1A    -20.545380     2A    -11.330270     3A    -11.241064
       4A    -11.238411     5A    -11.228438     6A    -11.212417
       7A     -1.375931     8A     -1.089445     9A     -1.009117
      10A     -0.937028    11A     -0.848574    12A     -0.724170
      13A     -0.666444    14A     -0.630179    15A     -0.622507
      16A     -0.601211    17A     -0.560758    18A     -0.556638
      19A     -0.543619    20A     -0.509794    21A     -0.501568
      22A     -0.481725    23A     -0.472077    24A     -0.404240

  @DF-RHF Final Energy:  -270.11990325178272

   => Energetics <=

    Nuclear Repulsion Energy =            245.4716062358836552
    One-Electron Energy =                -852.5210079671173844
    Two-Electron Energy =                 336.9294984794510128
    Total Energy =                       -270.1199032517827163
  Basis Set: (AUG-CC-PVTZ AUX)
    Blend: AUG-CC-PVTZ-RI
    Molecular point group: c1

    Geometry (in Angstrom), charge = 0, multiplicity = 1:

       Center              X                  Y                   Z               Mass
    ------------   -----------------  -----------------  -----------------  -----------------
         O           -0.879102079288     1.140356672252    -0.712884786969    15.994914619570
         C            0.671555920712    -0.264460027748     0.387516913031    12.000000000000
         C            1.175434920712    -1.260693027748    -0.673451086969    12.000000000000
         C            1.583829920712     0.949079972252     0.491839913031    12.000000000000
         C           -0.738991079288     0.156639972252     0.008796913031    12.000000000000
         C           -1.818705779288    -0.742068327748     0.561725313031    12.000000000000
         H            0.632235920712    -0.781290027748     1.355030913031     1.007825032230
         H            1.201390920712    -0.777753027748    -1.652883086969     1.007825032230
         H            2.186100920712    -1.597385027748    -0.425479086969     1.007825032230
         H            0.532236920712    -2.141758027748    -0.741536086969     1.007825032230
         H            1.232878920712     1.646684972252     1.257369913031     1.007825032230
         H            1.603258920712     1.482130972252    -0.458610086969     1.007825032230
         H            2.600533920712     0.640606972252     0.749218913031     1.007825032230
         H           -1.699288079288    -1.756862027748     0.279849913031     1.007825032230
         H           -2.812742079288    -0.358963027748     0.086176913031     1.007825032230
         H           -1.920755079288    -0.623901027748     1.620065913031     1.007825032230

  Basis Set: AUG-CC-PVTZ
    Blend: AUG-CC-PVTZ
  Basis Set: (AUG-CC-PVTZ AUX)
    Blend: AUG-CC-PVTZ-JKFIT
	 Reference Energy          =    -270.1199032517827163 [Eh]
	 Singles Energy            =      -0.0000000000000000 [Eh]
	 Same-Spin Energy          =      -0.2746440228728894 [Eh]
	 Opposite-Spin Energy      =      -0.9499494066510952 [Eh]
	 Correlation Energy        =      -1.2245934295239844 [Eh]
	 Total Energy              =    -271.3444966813066799 [Eh]

	 ================> DF-SCS-MP2 Energies <==================
	-----------------------------------------------------------
	 SCS Same-Spin Scale       =       0.3333333333333333 [-]
	 SCS Opposite-Spin Scale   =       1.2000000000000000 [-]
	 SCS Same-Spin Energy      =      -0.0915480076242964 [Eh]
	 SCS Opposite-Spin Energy  =      -1.1399392879813142 [Eh]
	 SCS Correlation Energy    =      -1.2314872956056107 [Eh]
	 SCS Total Energy          =    -271.3513905473883483 [Eh]
	-----------------------------------------------------------

  Dipole Moment: [D]
     X:     0.4356      Y:    -2.2915      Z:     1.5657     Total:     2.8093

*** Psi4 exiting successfully. Buy a developer a beer!
