                               Psi4 1.4a3.dev225

  ==> Input File <==

--------------------------------------------------------------------------
#psi4
#
memory 32 gb

molecule  {
0 1
  O        0.8586560    -1.1799710    -0.8389030
  C       -0.6220090     0.2405930     0.4084700
  C       -1.1011690     1.3295070    -0.5625920
  C       -1.6147530    -0.9146890     0.4753170
  C        0.7907949    -0.2561009    -0.0699218
  C        1.9534160     0.5043800     0.4706610
  H       -0.5088060     0.6902670     1.4041320
  H       -1.2062520     0.9086330    -1.5670350
  H       -2.0743030     1.7168190    -0.2469230
  H       -0.4032100     2.1709140    -0.6131640
  H       -1.2799510    -1.6832910     1.1776610
  H       -1.7123230    -1.3800890    -0.5076340
  H       -2.5969660    -0.5569830     0.7981250
  H        1.8130240     1.5867940     0.3929810
  H        2.8429500     0.2000390    -0.0822420
  H        2.0885060     0.2697440     1.5324280
units angstrom
no_reorient  #important for SAPT in psi4, default
symmetry c1  #important for SAPT in psi4, default
}

set PROPERTIES_ORIGIN ["COM"]
properties('MP2/aug-cc-pvtz', properties = ['dipole'])
--------------------------------------------------------------------------

    Molecular point group: c1
  Charge       = 0
  Multiplicity = 1
  Basis Set: AUG-CC-PVTZ
    Blend: AUG-CC-PVTZ
  Basis Set: (AUG-CC-PVTZ AUX)
    Blend: AUG-CC-PVTZ-JKFIT

    Orbital Energies [Eh]
    ---------------------

    Doubly Occupied:

       1A    -20.544874     2A    -11.327161     3A    -11.241372
       4A    -11.236264     5A    -11.226589     6A    -11.213630
       7A     -1.390917     8A     -1.082710     9A     -1.011317
      10A     -0.935293    11A     -0.839988    12A     -0.724496
      13A     -0.665544    14A     -0.633384    15A     -0.615285
      16A     -0.600443    17A     -0.572385    18A     -0.553468
      19A     -0.543065    20A     -0.517311    21A     -0.502250
      22A     -0.483109    23A     -0.476127    24A     -0.397987

  @DF-RHF Final Energy:  -270.12855091552785

   => Energetics <=

    Nuclear Repulsion Energy =            244.6494133925605468
    One-Electron Energy =                -850.8859921346488591
    Two-Electron Energy =                 336.1080278265604875
    Total Energy =                       -270.1285509155278532
  Basis Set: (AUG-CC-PVTZ AUX)
    Blend: AUG-CC-PVTZ-RI
    Molecular point group: c1

    Geometry (in Angstrom), charge = 0, multiplicity = 1:

       Center              X                  Y                   Z               Mass
    ------------   -----------------  -----------------  -----------------  -----------------
         O            0.817430723841    -1.132619298722    -0.810453526664    15.994914619570
         C           -0.663234276159     0.287944701278     0.436919473336    12.000000000000
         C           -1.142394276159     1.376858701278    -0.534142526664    12.000000000000
         C           -1.655978276159    -0.867337298722     0.503766473336    12.000000000000
         C            0.749569623841    -0.208749198722    -0.041472326664    12.000000000000
         C            1.912190723841     0.551731701278     0.499110473336    12.000000000000
         H           -0.550031276159     0.737618701278     1.432581473336     1.007825032230
         H           -1.247477276159     0.955984701278    -1.538585526664     1.007825032230
         H           -2.115528276159     1.764170701278    -0.218473526664     1.007825032230
         H           -0.444435276159     2.218265701278    -0.584714526664     1.007825032230
         H           -1.321176276159    -1.635939298722     1.206110473336     1.007825032230
         H           -1.753548276159    -1.332737298722    -0.479184526664     1.007825032230
         H           -2.638191276159    -0.509631298722     0.826574473336     1.007825032230
         H            1.771798723841     1.634145701278     0.421430473336     1.007825032230
         H            2.801724723841     0.247390701278    -0.053792526664     1.007825032230
         H            2.047280723841     0.317095701278     1.560877473336     1.007825032230

  Basis Set: AUG-CC-PVTZ
    Blend: AUG-CC-PVTZ
  Basis Set: (AUG-CC-PVTZ AUX)
    Blend: AUG-CC-PVTZ-JKFIT
	 Reference Energy          =    -270.1285509155278532 [Eh]
	 Singles Energy            =      -0.0000000000000000 [Eh]
	 Same-Spin Energy          =      -0.2735201061932691 [Eh]
	 Opposite-Spin Energy      =      -0.9476439722633844 [Eh]
	 Correlation Energy        =      -1.2211640784566535 [Eh]
	 Total Energy              =    -271.3497149939844917 [Eh]

	 ================> DF-SCS-MP2 Energies <==================
	-----------------------------------------------------------
	 SCS Same-Spin Scale       =       0.3333333333333333 [-]
	 SCS Opposite-Spin Scale   =       1.2000000000000000 [-]
	 SCS Same-Spin Energy      =      -0.0911733687310897 [Eh]
	 SCS Opposite-Spin Energy  =      -1.1371727667160612 [Eh]
	 SCS Correlation Energy    =      -1.2283461354471508 [Eh]
	 SCS Total Energy          =    -271.3568970509750216 [Eh]
	-----------------------------------------------------------

  Dipole Moment: [D]
     X:    -0.1588      Y:     2.1239      Z:     1.6958     Total:     2.7225

*** Psi4 exiting successfully. Buy a developer a beer!
