                               Psi4 1.3.2 release

  ==> Input File <==

--------------------------------------------------------------------------
#psi4
#
memory 32 gb

molecule  {
0 1
  O       -0.9233460     1.1259790    -0.7064150
  C        0.6908080    -0.2688650     0.3923890
  C        1.1946870    -1.2650980    -0.6685790
  C        1.6030820     0.9446750     0.4967120
  C       -0.7242981     0.1468615     0.0249067
  C       -1.8529100    -0.7015860     0.5295210
  H        0.6420035    -0.7843842     1.3601703
  H        1.2206430    -0.7821580    -1.6480110
  H        2.2053530    -1.6017900    -0.4206070
  H        0.5514890    -2.1461630    -0.7366640
  H        1.2521310     1.6422800     1.2622420
  H        1.6225110     1.4777260    -0.4537380
  H        2.6197860     0.6362020     0.7540910
  H       -1.6800360    -1.7612670     0.2847220
  H       -2.7934900    -0.3633680     0.0910490
  H       -1.9015030    -0.6283060     1.6249380
units angstrom
no_reorient  #important for SAPT in psi4, default
symmetry c1  #important for SAPT in psi4, default
}

set PROPERTIES_ORIGIN ["COM"]
properties('MP2/aug-cc-pvtz', properties = ['dipole'])
--------------------------------------------------------------------------

    Molecular point group: c1
  Charge       = 0
  Multiplicity = 1
  Basis Set: AUG-CC-PVTZ
    Blend: AUG-CC-PVTZ
  Basis Set: (AUG-CC-PVTZ AUX)
    Blend: AUG-CC-PVTZ-JKFIT

    Orbital Energies [Eh]
    ---------------------

    Doubly Occupied:

       1A    -20.541212     2A    -11.328967     3A    -11.243562
       4A    -11.237619     5A    -11.230120     6A    -11.215226
       7A     -1.367304     8A     -1.090752     9A     -1.008093
      10A     -0.938955    11A     -0.851417    12A     -0.722879
      13A     -0.663454    14A     -0.633171    15A     -0.611850
      16A     -0.593665    17A     -0.572115    18A     -0.554633
      19A     -0.545436    20A     -0.514562    21A     -0.499412
      22A     -0.485870    23A     -0.468678    24A     -0.406895

  @DF-RHF Final Energy:  -270.12717205595158

   => Energetics <=

    Nuclear Repulsion Energy =            244.8671546064794313
    One-Electron Energy =                -851.3369639584838069
    Two-Electron Energy =                 336.3426372960528283
    Total Energy =                       -270.1271720559515757
  Basis Set: (AUG-CC-PVTZ AUX)
    Blend: AUG-CC-PVTZ-RI
    Molecular point group: c1

    Geometry (in Angstrom), charge = 0, multiplicity = 1:

       Center              X                  Y                   Z               Mass
    ------------   -----------------  -----------------  -----------------  -----------------
         O           -0.922599318741     1.126712977091    -0.707984780920    15.994914619570
         C            0.691554681259    -0.268131022909     0.390819219080    12.000000000000
         C            1.195433681259    -1.264364022909    -0.670148780920    12.000000000000
         C            1.603828681259     0.945408977091     0.495142219080    12.000000000000
         C           -0.723551418741     0.147595477091     0.023336919080    12.000000000000
         C           -1.852163318741    -0.700852022909     0.527951219080    12.000000000000
         H            0.642750181259    -0.783650222909     1.358600519080     1.007825032230
         H            1.221389681259    -0.781424022909    -1.649580780920     1.007825032230
         H            2.206099681259    -1.601056022909    -0.422176780920     1.007825032230
         H            0.552235681259    -2.145429022909    -0.738233780920     1.007825032230
         H            1.252877681259     1.643013977091     1.260672219080     1.007825032230
         H            1.623257681259     1.478459977091    -0.455307780920     1.007825032230
         H            2.620532681259     0.636935977091     0.752521219080     1.007825032230
         H           -1.679289318741    -1.760533022909     0.283152219080     1.007825032230
         H           -2.792743318741    -0.362634022909     0.089479219080     1.007825032230
         H           -1.900756318741    -0.627572022909     1.623368219080     1.007825032230

  Basis Set: AUG-CC-PVTZ
    Blend: AUG-CC-PVTZ
  Basis Set: (AUG-CC-PVTZ AUX)
    Blend: AUG-CC-PVTZ-JKFIT
	 Reference Energy          =    -270.1271720559515757 [Eh]
	 Singles Energy            =      -0.0000000000000000 [Eh]
	 Same-Spin Energy          =      -0.2745057731829693 [Eh]
	 Opposite-Spin Energy      =      -0.9496369617788618 [Eh]
	 Correlation Energy        =      -1.2241427349618310 [Eh]
	 Total Energy              =    -271.3513147909134204 [Eh]

	 ================> DF-SCS-MP2 Energies <==================
	-----------------------------------------------------------
	 SCS Same-Spin Scale       =       0.3333333333333333 [-]
	 SCS Opposite-Spin Scale   =       1.2000000000000000 [-]
	 SCS Same-Spin Energy      =      -0.0915019243943231 [Eh]
	 SCS Opposite-Spin Energy  =      -1.1395643541346341 [Eh]
	 SCS Correlation Energy    =      -1.2310662785289572 [Eh]
	 SCS Total Energy          =    -271.3582383344805180 [Eh]
	-----------------------------------------------------------

  Dipole Moment: [D]
     X:     0.5873      Y:    -2.3180      Z:     1.5919     Total:     2.8726

*** Psi4 exiting successfully. Buy a developer a beer!
