                               Psi4 1.3.2 release

  ==> Input File <==

--------------------------------------------------------------------------
#psi4
#
memory 32 gb

molecule  {
0 1
  O       -0.9233460     1.1259790    -0.7064150
  C        0.6808054    -0.2893984     0.4058833
  C        1.1946870    -1.2650980    -0.6685790
  C        1.6030820     0.9446750     0.4967120
  C       -0.7197390     0.1522350     0.0136690
  C       -1.8353815    -0.7172598     0.5414100
  H        0.6514880    -0.7856950     1.3599030
  H        1.2206430    -0.7821580    -1.6480110
  H        2.2053530    -1.6017900    -0.4206070
  H        0.5514890    -2.1461630    -0.7366640
  H        1.2521310     1.6422800     1.2622420
  H        1.6225110     1.4777260    -0.4537380
  H        2.6197860     0.6362020     0.7540910
  H       -1.6800360    -1.7612670     0.2847220
  H       -2.7934900    -0.3633680     0.0910490
  H       -1.9015030    -0.6283060     1.6249380
units angstrom
no_reorient  #important for SAPT in psi4, default
symmetry c1  #important for SAPT in psi4, default
}

set PROPERTIES_ORIGIN ["COM"]
properties('MP2/aug-cc-pvtz', properties = ['dipole'])
--------------------------------------------------------------------------

    Molecular point group: c1
  Charge       = 0
  Multiplicity = 1
  Basis Set: AUG-CC-PVTZ
    Blend: AUG-CC-PVTZ
  Basis Set: (AUG-CC-PVTZ AUX)
    Blend: AUG-CC-PVTZ-JKFIT

    Orbital Energies [Eh]
    ---------------------

    Doubly Occupied:

       1A    -20.543689     2A    -11.329078     3A    -11.241722
       4A    -11.236253     5A    -11.230002     6A    -11.215652
       7A     -1.374453     8A     -1.089968     9A     -1.004736
      10A     -0.936957    11A     -0.851229    12A     -0.726599
      13A     -0.665542    14A     -0.630134    15A     -0.614279
      16A     -0.595905    17A     -0.566882    18A     -0.555877
      19A     -0.545266    20A     -0.513849    21A     -0.500400
      22A     -0.488541    23A     -0.470352    24A     -0.405166

  @DF-RHF Final Energy:  -270.12693858674027

   => Energetics <=

    Nuclear Repulsion Energy =            244.8596414262988503
    One-Electron Energy =                -851.3080964244018105
    Two-Electron Energy =                 336.3215164113627225
    Total Energy =                       -270.1269385867402661
  Basis Set: (AUG-CC-PVTZ AUX)
    Blend: AUG-CC-PVTZ-RI
    Molecular point group: c1

    Geometry (in Angstrom), charge = 0, multiplicity = 1:

       Center              X                  Y                   Z               Mass
    ------------   -----------------  -----------------  -----------------  -----------------
         O           -0.924395217807     1.131027044748    -0.709953777976    15.994914619570
         C            0.679756182193    -0.284350355252     0.402344522024    12.000000000000
         C            1.193637782193    -1.260049955252    -0.672117777976    12.000000000000
         C            1.602032782193     0.949723044748     0.493173222024    12.000000000000
         C           -0.720788217807     0.157283044748     0.010130222024    12.000000000000
         C           -1.836430717807    -0.712211755252     0.537871222024    12.000000000000
         H            0.650438782193    -0.780646955252     1.356364222024     1.007825032230
         H            1.219593782193    -0.777109955252    -1.651549777976     1.007825032230
         H            2.204303782193    -1.596741955252    -0.424145777976     1.007825032230
         H            0.550439782193    -2.141114955252    -0.740202777976     1.007825032230
         H            1.251081782193     1.647328044748     1.258703222024     1.007825032230
         H            1.621461782193     1.482774044748    -0.457276777976     1.007825032230
         H            2.618736782193     0.641250044748     0.750552222024     1.007825032230
         H           -1.681085217807    -1.756218955252     0.281183222024     1.007825032230
         H           -2.794539217807    -0.358319955252     0.087510222024     1.007825032230
         H           -1.902552217807    -0.623257955252     1.621399222024     1.007825032230

  Basis Set: AUG-CC-PVTZ
    Blend: AUG-CC-PVTZ
  Basis Set: (AUG-CC-PVTZ AUX)
    Blend: AUG-CC-PVTZ-JKFIT
	 Reference Energy          =    -270.1269385867402661 [Eh]
	 Singles Energy            =      -0.0000000000000000 [Eh]
	 Same-Spin Energy          =      -0.2742054698347938 [Eh]
	 Opposite-Spin Energy      =      -0.9491453029671566 [Eh]
	 Correlation Energy        =      -1.2233507728019504 [Eh]
	 Total Energy              =    -271.3502893595422165 [Eh]

	 ================> DF-SCS-MP2 Energies <==================
	-----------------------------------------------------------
	 SCS Same-Spin Scale       =       0.3333333333333333 [-]
	 SCS Opposite-Spin Scale   =       1.2000000000000000 [-]
	 SCS Same-Spin Energy      =      -0.0914018232782646 [Eh]
	 SCS Opposite-Spin Energy  =      -1.1389743635605878 [Eh]
	 SCS Correlation Energy    =      -1.2303761868388523 [Eh]
	 SCS Total Energy          =    -271.3573147735791053 [Eh]
	-----------------------------------------------------------

  Dipole Moment: [D]
     X:     0.6172      Y:    -2.2844      Z:     1.5668     Total:     2.8380

*** Psi4 exiting successfully. Buy a developer a beer!
