                               Psi4 1.3.2 release

  ==> Input File <==

--------------------------------------------------------------------------
#psi4
#
memory 32 gb

molecule  {
0 1
  O       -0.9233460     1.1259790    -0.7064150
  C        0.6908080    -0.2688650     0.3923890
  C        1.1946870    -1.2650980    -0.6685790
  C        1.6030820     0.9446750     0.4967120
  C       -0.7197390     0.1522350     0.0136690
  C       -1.7027912    -0.5884746     0.4611826
  H        0.6514880    -0.7856950     1.3599030
  H        1.2206430    -0.7821580    -1.6480110
  H        2.2053530    -1.6017900    -0.4206070
  H        0.5514890    -2.1461630    -0.7366640
  H        1.2521310     1.6422800     1.2622420
  H        1.6225110     1.4777260    -0.4537380
  H        2.6197860     0.6362020     0.7540910
  H       -1.6800360    -1.7612670     0.2847220
  H       -2.7934900    -0.3633680     0.0910490
  H       -1.9015030    -0.6283060     1.6249380
units angstrom
no_reorient  #important for SAPT in psi4, default
symmetry c1  #important for SAPT in psi4, default
}

set PROPERTIES_ORIGIN ["COM"]
properties('MP2/aug-cc-pvtz', properties = ['dipole'])
--------------------------------------------------------------------------

    Molecular point group: c1
  Charge       = 0
  Multiplicity = 1
  Basis Set: AUG-CC-PVTZ
    Blend: AUG-CC-PVTZ
  Basis Set: (AUG-CC-PVTZ AUX)
    Blend: AUG-CC-PVTZ-JKFIT

    Orbital Energies [Eh]
    ---------------------

    Doubly Occupied:

       1A    -20.537045     2A    -11.313620     3A    -11.248573
       4A    -11.240859     5A    -11.228178     6A    -11.213622
       7A     -1.377236     8A     -1.099906     9A     -1.034348
      10A     -0.937576    11A     -0.844779    12A     -0.735887
      13A     -0.679348    14A     -0.638759    15A     -0.617277
      16A     -0.599173    17A     -0.558304    18A     -0.545738
      19A     -0.541011    20A     -0.493606    21A     -0.491499
      22A     -0.478688    23A     -0.458976    24A     -0.416252

  @DF-RHF Final Energy:  -270.07732817424869

   => Energetics <=

    Nuclear Repulsion Energy =            248.3799143040610886
    One-Electron Energy =                -858.2539705690041956
    Two-Electron Energy =                 339.7967280906943870
    Total Energy =                       -270.0773281742486915
  Basis Set: (AUG-CC-PVTZ AUX)
    Blend: AUG-CC-PVTZ-RI
    Molecular point group: c1

    Geometry (in Angstrom), charge = 0, multiplicity = 1:

       Center              X                  Y                   Z               Mass
    ------------   -----------------  -----------------  -----------------  -----------------
         O           -0.944274988711     1.110209601806    -0.696887447712    15.994914619570
         C            0.669879011289    -0.284634398194     0.401916552288    12.000000000000
         C            1.173758011289    -1.280867398194    -0.659051447712    12.000000000000
         C            1.582153011289     0.928905601806     0.506239552288    12.000000000000
         C           -0.740667988711     0.136465601806     0.023196552288    12.000000000000
         C           -1.723720188711    -0.604243998194     0.470710152288    12.000000000000
         H            0.630559011289    -0.801464398194     1.369430552288     1.007825032230
         H            1.199714011289    -0.797927398194    -1.638483447712     1.007825032230
         H            2.184424011289    -1.617559398194    -0.411079447712     1.007825032230
         H            0.530560011289    -2.161932398194    -0.727136447712     1.007825032230
         H            1.231202011289     1.626510601806     1.271769552288     1.007825032230
         H            1.601582011289     1.461956601806    -0.444210447712     1.007825032230
         H            2.598857011289     0.620432601806     0.763618552288     1.007825032230
         H           -1.700964988711    -1.777036398194     0.294249552288     1.007825032230
         H           -2.814418988711    -0.379137398194     0.100576552288     1.007825032230
         H           -1.922431988711    -0.644075398194     1.634465552288     1.007825032230

  Basis Set: AUG-CC-PVTZ
    Blend: AUG-CC-PVTZ
  Basis Set: (AUG-CC-PVTZ AUX)
    Blend: AUG-CC-PVTZ-JKFIT
	 Reference Energy          =    -270.0773281742486915 [Eh]
	 Singles Energy            =      -0.0000000000000000 [Eh]
	 Same-Spin Energy          =      -0.2774153662929578 [Eh]
	 Opposite-Spin Energy      =      -0.9531449713791480 [Eh]
	 Correlation Energy        =      -1.2305603376721059 [Eh]
	 Total Energy              =    -271.3078885119207939 [Eh]

	 ================> DF-SCS-MP2 Energies <==================
	-----------------------------------------------------------
	 SCS Same-Spin Scale       =       0.3333333333333333 [-]
	 SCS Opposite-Spin Scale   =       1.2000000000000000 [-]
	 SCS Same-Spin Energy      =      -0.0924717887643193 [Eh]
	 SCS Opposite-Spin Energy  =      -1.1437739656549775 [Eh]
	 SCS Correlation Energy    =      -1.2362457544192966 [Eh]
	 SCS Total Energy          =    -271.3135739286680064 [Eh]
	-----------------------------------------------------------

  Dipole Moment: [D]
     X:     0.3175      Y:    -2.5182      Z:     1.7415     Total:     3.0781

*** Psi4 exiting successfully. Buy a developer a beer!
