                               Psi4 1.3.2 release

  ==> Input File <==

--------------------------------------------------------------------------
#psi4
#
memory 32 gb

molecule  {
0 1
  O       -0.9863946     1.1144915    -0.7012515
  C        0.6594152    -0.3287099     0.4344095
  C        1.1946870    -1.2650980    -0.6685790
  C        1.6030820     0.9446750     0.4967120
  C       -0.7197390     0.1522350     0.0136690
  C       -1.8529100    -0.7015860     0.5295210
  H        0.6514880    -0.7856950     1.3599030
  H        1.2206430    -0.7821580    -1.6480110
  H        2.2053530    -1.6017900    -0.4206070
  H        0.5514890    -2.1461630    -0.7366640
  H        1.2521310     1.6422800     1.2622420
  H        1.6225110     1.4777260    -0.4537380
  H        2.6197860     0.6362020     0.7540910
  H       -1.6800360    -1.7612670     0.2847220
  H       -2.7934900    -0.3633680     0.0910490
  H       -1.9015030    -0.6283060     1.6249380
units angstrom
no_reorient  #important for SAPT in psi4, default
symmetry c1  #important for SAPT in psi4, default
}

set PROPERTIES_ORIGIN ["COM"]
properties('MP2/aug-cc-pvtz', properties = ['dipole'])
--------------------------------------------------------------------------

    Molecular point group: c1
  Charge       = 0
  Multiplicity = 1
  Basis Set: AUG-CC-PVTZ
    Blend: AUG-CC-PVTZ
  Basis Set: (AUG-CC-PVTZ AUX)
    Blend: AUG-CC-PVTZ-JKFIT

    Orbital Energies [Eh]
    ---------------------

    Doubly Occupied:

       1A    -20.543532     2A    -11.329316     3A    -11.244228
       4A    -11.232096     5A    -11.231525     6A    -11.219408
       7A     -1.374051     8A     -1.090153     9A     -1.000340
      10A     -0.935045    11A     -0.855206    12A     -0.733866
      13A     -0.665966    14A     -0.628317    15A     -0.610517
      16A     -0.592787    17A     -0.569916    18A     -0.554813
      19A     -0.545715    20A     -0.518241    21A     -0.503510
      22A     -0.491992    23A     -0.463813    24A     -0.403543

  @DF-RHF Final Energy:  -270.12054353937896

   => Energetics <=

    Nuclear Repulsion Energy =            244.2285796742324351
    One-Electron Energy =                -850.0224480935869451
    Two-Electron Energy =                 335.6733248799756097
    Total Energy =                       -270.1205435393789571
  Basis Set: (AUG-CC-PVTZ AUX)
    Blend: AUG-CC-PVTZ-RI
    Molecular point group: c1

    Geometry (in Angstrom), charge = 0, multiplicity = 1:

       Center              X                  Y                   Z               Mass
    ------------   -----------------  -----------------  -----------------  -----------------
         O           -0.970301641440     1.124969738723    -0.708069303928    15.994914619570
         C            0.675508158560    -0.318231661277     0.427591696072    12.000000000000
         C            1.210779958560    -1.254619761277    -0.675396803928    12.000000000000
         C            1.619174958560     0.955153238723     0.489894196072    12.000000000000
         C           -0.703646041440     0.162713238723     0.006851196072    12.000000000000
         C           -1.836817041440    -0.691107761277     0.522703196072    12.000000000000
         H            0.667580958560    -0.775216761277     1.353085196072     1.007825032230
         H            1.236735958560    -0.771679761277    -1.654828803928     1.007825032230
         H            2.221445958560    -1.591311761277    -0.427424803928     1.007825032230
         H            0.567581958560    -2.135684761277    -0.743481803928     1.007825032230
         H            1.268223958560     1.652758238723     1.255424196072     1.007825032230
         H            1.638603958560     1.488204238723    -0.460555803928     1.007825032230
         H            2.635878958560     0.646680238723     0.747273196072     1.007825032230
         H           -1.663943041440    -1.750788761277     0.277904196072     1.007825032230
         H           -2.777397041440    -0.352889761277     0.084231196072     1.007825032230
         H           -1.885410041440    -0.617827761277     1.618120196072     1.007825032230

  Basis Set: AUG-CC-PVTZ
    Blend: AUG-CC-PVTZ
  Basis Set: (AUG-CC-PVTZ AUX)
    Blend: AUG-CC-PVTZ-JKFIT
	 Reference Energy          =    -270.1205435393789571 [Eh]
	 Singles Energy            =      -0.0000000000000000 [Eh]
	 Same-Spin Energy          =      -0.2740638872441414 [Eh]
	 Opposite-Spin Energy      =      -0.9492003841105618 [Eh]
	 Correlation Energy        =      -1.2232642713547033 [Eh]
	 Total Energy              =    -271.3438078107336651 [Eh]

	 ================> DF-SCS-MP2 Energies <==================
	-----------------------------------------------------------
	 SCS Same-Spin Scale       =       0.3333333333333333 [-]
	 SCS Opposite-Spin Scale   =       1.2000000000000000 [-]
	 SCS Same-Spin Energy      =      -0.0913546290813805 [Eh]
	 SCS Opposite-Spin Energy  =      -1.1390404609326741 [Eh]
	 SCS Correlation Energy    =      -1.2303950900140546 [Eh]
	 SCS Total Energy          =    -271.3509386293929992 [Eh]
	-----------------------------------------------------------

  Dipole Moment: [D]
     X:     0.8137      Y:    -2.2662      Z:     1.5544     Total:     2.8660

*** Psi4 exiting successfully. Buy a developer a beer!
