                               Psi4 1.4a3.dev225

  ==> Input File <==

--------------------------------------------------------------------------
#psi4
#
memory 32 gb

molecule  {
0 1
  O        0.8586560    -1.1799710    -0.8389030
  C       -0.6220090     0.2405930     0.4084700
  C       -1.1011690     1.3295070    -0.5625920
  C       -1.6147530    -0.9146890     0.4753170
  C        0.7638352    -0.2466228    -0.0607929
  C        1.9534160     0.5043800     0.4706610
  H       -0.5088060     0.6902670     1.4041320
  H       -1.2062520     0.9086330    -1.5670350
  H       -2.0743030     1.7168190    -0.2469230
  H       -0.4032100     2.1709140    -0.6131640
  H       -1.2799510    -1.6832910     1.1776610
  H       -1.7123230    -1.3800890    -0.5076340
  H       -2.5969660    -0.5569830     0.7981250
  H        1.8130240     1.5867940     0.3929810
  H        2.8429500     0.2000390    -0.0822420
  H        2.0885060     0.2697440     1.5324280
units angstrom
no_reorient  #important for SAPT in psi4, default
symmetry c1  #important for SAPT in psi4, default
}

set PROPERTIES_ORIGIN ["COM"]
properties('MP2/aug-cc-pvtz', properties = ['dipole'])
--------------------------------------------------------------------------

    Molecular point group: c1
  Charge       = 0
  Multiplicity = 1
  Basis Set: AUG-CC-PVTZ
    Blend: AUG-CC-PVTZ
  Basis Set: (AUG-CC-PVTZ AUX)
    Blend: AUG-CC-PVTZ-JKFIT

    Orbital Energies [Eh]
    ---------------------

    Doubly Occupied:

       1A    -20.543263     2A    -11.328256     3A    -11.242760
       4A    -11.236133     5A    -11.228566     6A    -11.215031
       7A     -1.380366     8A     -1.087265     9A     -1.007658
      10A     -0.937109    11A     -0.846479    12A     -0.723777
      13A     -0.664646    14A     -0.633055    15A     -0.613262
      16A     -0.596728    17A     -0.572239    18A     -0.554273
      19A     -0.544054    20A     -0.516544    21A     -0.500763
      22A     -0.484607    23A     -0.473752    24A     -0.402773

  @DF-RHF Final Energy:  -270.12926651996116

   => Energetics <=

    Nuclear Repulsion Energy =            244.7014768688088395
    One-Electron Energy =                -850.9947656470673110
    Two-Electron Energy =                 336.1640222582972797
    Total Energy =                       -270.1292665199611633
  Basis Set: (AUG-CC-PVTZ AUX)
    Blend: AUG-CC-PVTZ-RI
    Molecular point group: c1

    Geometry (in Angstrom), charge = 0, multiplicity = 1:

       Center              X                  Y                   Z               Mass
    ------------   -----------------  -----------------  -----------------  -----------------
         O            0.821189344780    -1.133940700115    -0.811726243894    15.994914619570
         C           -0.659475655220     0.286623299885     0.435646756106    12.000000000000
         C           -1.138635655220     1.375537299885    -0.535415243894    12.000000000000
         C           -1.652219655220    -0.868658700115     0.502493756106    12.000000000000
         C            0.726368544780    -0.200592500115    -0.033616143894    12.000000000000
         C            1.915949344780     0.550410299885     0.497837756106    12.000000000000
         H           -0.546272655220     0.736297299885     1.431308756106     1.007825032230
         H           -1.243718655220     0.954663299885    -1.539858243894     1.007825032230
         H           -2.111769655220     1.762849299885    -0.219746243894     1.007825032230
         H           -0.440676655220     2.216944299885    -0.585987243894     1.007825032230
         H           -1.317417655220    -1.637260700115     1.204837756106     1.007825032230
         H           -1.749789655220    -1.334058700115    -0.480457243894     1.007825032230
         H           -2.634432655220    -0.510952700115     0.825301756106     1.007825032230
         H            1.775557344780     1.632824299885     0.420157756106     1.007825032230
         H            2.805483344780     0.246069299885    -0.055065243894     1.007825032230
         H            2.051039344780     0.315774299885     1.559604756106     1.007825032230

  Basis Set: AUG-CC-PVTZ
    Blend: AUG-CC-PVTZ
  Basis Set: (AUG-CC-PVTZ AUX)
    Blend: AUG-CC-PVTZ-JKFIT
	 Reference Energy          =    -270.1292665199611633 [Eh]
	 Singles Energy            =      -0.0000000000000000 [Eh]
	 Same-Spin Energy          =      -0.2738783851727681 [Eh]
	 Opposite-Spin Energy      =      -0.9484205714075349 [Eh]
	 Correlation Energy        =      -1.2222989565803031 [Eh]
	 Total Energy              =    -271.3515654765414524 [Eh]

	 ================> DF-SCS-MP2 Energies <==================
	-----------------------------------------------------------
	 SCS Same-Spin Scale       =       0.3333333333333333 [-]
	 SCS Opposite-Spin Scale   =       1.2000000000000000 [-]
	 SCS Same-Spin Energy      =      -0.0912927950575894 [Eh]
	 SCS Opposite-Spin Energy  =      -1.1381046856890418 [Eh]
	 SCS Correlation Energy    =      -1.2293974807466312 [Eh]
	 SCS Total Energy          =    -271.3586640007077904 [Eh]
	-----------------------------------------------------------

  Dipole Moment: [D]
     X:    -0.3035      Y:     2.1706      Z:     1.7212     Total:     2.7868

*** Psi4 exiting successfully. Buy a developer a beer!
