                               Psi4 1.3.2 release

  ==> Input File <==

--------------------------------------------------------------------------
#psi4
#
memory 32 gb

molecule  {
0 1
  O       -0.9233460     1.1259790    -0.7064150
  C        0.6908080    -0.2688650     0.3923890
  C        1.1946870    -1.2650980    -0.6685790
  C        1.6030820     0.9446750     0.4967120
  C       -0.7440569     0.1946976     0.0332242
  C       -1.8529100    -0.7015860     0.5295210
  H        0.6514880    -0.7856950     1.3599030
  H        1.2206430    -0.7821580    -1.6480110
  H        2.2053530    -1.6017900    -0.4206070
  H        0.5514890    -2.1461630    -0.7366640
  H        1.2521310     1.6422800     1.2622420
  H        1.6225110     1.4777260    -0.4537380
  H        2.6197860     0.6362020     0.7540910
  H       -1.7131992    -1.7699920     0.3020889
  H       -2.7934900    -0.3633680     0.0910490
  H       -1.9015030    -0.6283060     1.6249380
units angstrom
no_reorient  #important for SAPT in psi4, default
symmetry c1  #important for SAPT in psi4, default
}

set PROPERTIES_ORIGIN ["COM"]
properties('MP2/aug-cc-pvtz', properties = ['dipole'])
--------------------------------------------------------------------------

    Molecular point group: c1
  Charge       = 0
  Multiplicity = 1
  Basis Set: AUG-CC-PVTZ
    Blend: AUG-CC-PVTZ
  Basis Set: (AUG-CC-PVTZ AUX)
    Blend: AUG-CC-PVTZ-JKFIT

    Orbital Energies [Eh]
    ---------------------

    Doubly Occupied:

       1A    -20.545514     2A    -11.327107     3A    -11.241655
       4A    -11.235858     5A    -11.228165     6A    -11.213494
       7A     -1.392408     8A     -1.085066     9A     -1.004382
      10A     -0.937158    11A     -0.844411    12A     -0.724386
      13A     -0.666734    14A     -0.632953    15A     -0.612595
      16A     -0.599294    17A     -0.571337    18A     -0.551787
      19A     -0.544529    20A     -0.517415    21A     -0.503019
      22A     -0.484432    23A     -0.476420    24A     -0.400098

  @DF-RHF Final Energy:  -270.12845098696334

   => Energetics <=

    Nuclear Repulsion Energy =            244.8511348977594082
    One-Electron Energy =                -851.2787334188803925
    Two-Electron Energy =                 336.2991475341576688
    Total Energy =                       -270.1284509869633439
  Basis Set: (AUG-CC-PVTZ AUX)
    Blend: AUG-CC-PVTZ-RI
    Molecular point group: c1

    Geometry (in Angstrom), charge = 0, multiplicity = 1:

       Center              X                  Y                   Z               Mass
    ------------   -----------------  -----------------  -----------------  -----------------
         O           -0.919567368112     1.120161354760    -0.709344593877    15.994914619570
         C            0.694586631888    -0.274682645240     0.389459406123    12.000000000000
         C            1.198465631888    -1.270915645240    -0.671508593877    12.000000000000
         C            1.606860631888     0.938857354760     0.493782406123    12.000000000000
         C           -0.740278268112     0.188879954760     0.030294606123    12.000000000000
         C           -1.849131368112    -0.707403645240     0.526591406123    12.000000000000
         H            0.655266631888    -0.791512645240     1.356973406123     1.007825032230
         H            1.224421631888    -0.787975645240    -1.650940593877     1.007825032230
         H            2.209131631888    -1.607607645240    -0.423536593877     1.007825032230
         H            0.555267631888    -2.151980645240    -0.739593593877     1.007825032230
         H            1.255909631888     1.636462354760     1.259312406123     1.007825032230
         H            1.626289631888     1.471908354760    -0.456667593877     1.007825032230
         H            2.623564631888     0.630384354760     0.751161406123     1.007825032230
         H           -1.709420568112    -1.775809645240     0.299159306123     1.007825032230
         H           -2.789711368112    -0.369185645240     0.088119406123     1.007825032230
         H           -1.897724368112    -0.634123645240     1.622008406123     1.007825032230

  Basis Set: AUG-CC-PVTZ
    Blend: AUG-CC-PVTZ
  Basis Set: (AUG-CC-PVTZ AUX)
    Blend: AUG-CC-PVTZ-JKFIT
	 Reference Energy          =    -270.1284509869633439 [Eh]
	 Singles Energy            =      -0.0000000000000000 [Eh]
	 Same-Spin Energy          =      -0.2734860650356437 [Eh]
	 Opposite-Spin Energy      =      -0.9476482455846996 [Eh]
	 Correlation Energy        =      -1.2211343106203434 [Eh]
	 Total Energy              =    -271.3495852975837010 [Eh]

	 ================> DF-SCS-MP2 Energies <==================
	-----------------------------------------------------------
	 SCS Same-Spin Scale       =       0.3333333333333333 [-]
	 SCS Opposite-Spin Scale   =       1.2000000000000000 [-]
	 SCS Same-Spin Energy      =      -0.0911620216785479 [Eh]
	 SCS Opposite-Spin Energy  =      -1.1371778947016395 [Eh]
	 SCS Correlation Energy    =      -1.2283399163801874 [Eh]
	 SCS Total Energy          =    -271.3567909033435512 [Eh]
	-----------------------------------------------------------

  Dipole Moment: [D]
     X:     0.4843      Y:    -2.1944      Z:     1.5204     Total:     2.7133

*** Psi4 exiting successfully. Buy a developer a beer!
