                               Psi4 1.4a3.dev225

  ==> Input File <==

--------------------------------------------------------------------------
#psi4
#
memory 32 gb

molecule  {
0 1
  O        0.8586560    -1.1799710    -0.8389030
  C       -0.6220090     0.2405930     0.4084700
  C       -1.1011690     1.3295070    -0.5625920
  C       -1.6147530    -0.9146890     0.4753170
  C        0.7278888    -0.2339852    -0.0486211
  C        1.9534160     0.5043800     0.4706610
  H       -0.5088060     0.6902670     1.4041320
  H       -1.2062520     0.9086330    -1.5670350
  H       -2.0743030     1.7168190    -0.2469230
  H       -0.4032100     2.1709140    -0.6131640
  H       -1.2799510    -1.6832910     1.1776610
  H       -1.7123230    -1.3800890    -0.5076340
  H       -2.5969660    -0.5569830     0.7981250
  H        1.8130240     1.5867940     0.3929810
  H        2.8429500     0.2000390    -0.0822420
  H        2.0885060     0.2697440     1.5324280
units angstrom
no_reorient  #important for SAPT in psi4, default
symmetry c1  #important for SAPT in psi4, default
}

set PROPERTIES_ORIGIN ["COM"]
properties('MP2/aug-cc-pvtz', properties = ['dipole'])
--------------------------------------------------------------------------

    Molecular point group: c1
  Charge       = 0
  Multiplicity = 1
  Basis Set: AUG-CC-PVTZ
    Blend: AUG-CC-PVTZ
  Basis Set: (AUG-CC-PVTZ AUX)
    Blend: AUG-CC-PVTZ-JKFIT

    Orbital Energies [Eh]
    ---------------------

    Doubly Occupied:

       1A    -20.541182     2A    -11.330003     3A    -11.244086
       4A    -11.236261     5A    -11.231281     6A    -11.216891
       7A     -1.366317     8A     -1.093965     9A     -1.002896
      10A     -0.939543    11A     -0.855433    12A     -0.723200
      13A     -0.663606    14A     -0.633219    15A     -0.611182
      16A     -0.591541    17A     -0.571523    18A     -0.555114
      19A     -0.545350    20A     -0.516531    21A     -0.500441
      22A     -0.486431    23A     -0.468534    24A     -0.407326

  @DF-RHF Final Energy:  -270.12692414532370

   => Energetics <=

    Nuclear Repulsion Energy =            244.7820863228232326
    One-Electron Energy =                -851.1543050799439243
    Two-Electron Energy =                 336.2452946117969645
    Total Energy =                       -270.1269241453236987
  Basis Set: (AUG-CC-PVTZ AUX)
    Blend: AUG-CC-PVTZ-RI
    Molecular point group: c1

    Geometry (in Angstrom), charge = 0, multiplicity = 1:

       Center              X                  Y                   Z               Mass
    ------------   -----------------  -----------------  -----------------  -----------------
         O            0.826200857953    -1.135702587227    -0.813423190905    15.994914619570
         C           -0.654464142047     0.284861412773     0.433949809095    12.000000000000
         C           -1.133624142047     1.373775412773    -0.537112190905    12.000000000000
         C           -1.647208142047    -0.870420587227     0.500796809095    12.000000000000
         C            0.695433657953    -0.189716787227    -0.023141290905    12.000000000000
         C            1.920960857953     0.548648412773     0.496140809095    12.000000000000
         H           -0.541261142047     0.734535412773     1.429611809095     1.007825032230
         H           -1.238707142047     0.952901412773    -1.541555190905     1.007825032230
         H           -2.106758142047     1.761087412773    -0.221443190905     1.007825032230
         H           -0.435665142047     2.215182412773    -0.587684190905     1.007825032230
         H           -1.312406142047    -1.639022587227     1.203140809095     1.007825032230
         H           -1.744778142047    -1.335820587227    -0.482154190905     1.007825032230
         H           -2.629421142047    -0.512714587227     0.823604809095     1.007825032230
         H            1.780568857953     1.631062412773     0.418460809095     1.007825032230
         H            2.810494857953     0.244307412773    -0.056762190905     1.007825032230
         H            2.056050857953     0.314012412773     1.557907809095     1.007825032230

  Basis Set: AUG-CC-PVTZ
    Blend: AUG-CC-PVTZ
  Basis Set: (AUG-CC-PVTZ AUX)
    Blend: AUG-CC-PVTZ-JKFIT
	 Reference Energy          =    -270.1269241453236987 [Eh]
	 Singles Energy            =      -0.0000000000000000 [Eh]
	 Same-Spin Energy          =      -0.2745164999321490 [Eh]
	 Opposite-Spin Energy      =      -0.9497443663690794 [Eh]
	 Correlation Energy        =      -1.2242608663012284 [Eh]
	 Total Energy              =    -271.3511850116249207 [Eh]

	 ================> DF-SCS-MP2 Energies <==================
	-----------------------------------------------------------
	 SCS Same-Spin Scale       =       0.3333333333333333 [-]
	 SCS Opposite-Spin Scale   =       1.2000000000000000 [-]
	 SCS Same-Spin Energy      =      -0.0915054999773830 [Eh]
	 SCS Opposite-Spin Energy  =      -1.1396932396428954 [Eh]
	 SCS Correlation Energy    =      -1.2311987396202784 [Eh]
	 SCS Total Energy          =    -271.3581228849439526 [Eh]
	-----------------------------------------------------------

  Dipole Moment: [D]
     X:    -0.4894      Y:     2.2303      Z:     1.7519     Total:     2.8780

*** Psi4 exiting successfully. Buy a developer a beer!
