                               Psi4 1.3.2 release

  ==> Input File <==

--------------------------------------------------------------------------
#psi4
#
memory 32 gb

molecule  {
0 1
  O       -0.9022341     1.1296013    -0.7071672
  C        0.6908080    -0.2688650     0.3923890
  C        1.1946870    -1.2650980    -0.6685790
  C        1.6030820     0.9446750     0.4967120
  C       -0.7197390     0.1522350     0.0136690
  C       -1.8354293    -0.7168147     0.5420420
  H        0.6514880    -0.7856950     1.3599030
  H        1.2206430    -0.7821580    -1.6480110
  H        2.2053530    -1.6017900    -0.4206070
  H        0.5514890    -2.1461630    -0.7366640
  H        1.2521310     1.6422800     1.2622420
  H        1.6225110     1.4777260    -0.4537380
  H        2.6197860     0.6362020     0.7540910
  H       -1.6800360    -1.7612670     0.2847220
  H       -2.7934900    -0.3633680     0.0910490
  H       -1.9015030    -0.6283060     1.6249380
units angstrom
no_reorient  #important for SAPT in psi4, default
symmetry c1  #important for SAPT in psi4, default
}

set PROPERTIES_ORIGIN ["COM"]
properties('MP2/aug-cc-pvtz', properties = ['dipole'])
--------------------------------------------------------------------------

    Molecular point group: c1
  Charge       = 0
  Multiplicity = 1
  Basis Set: AUG-CC-PVTZ
    Blend: AUG-CC-PVTZ
  Basis Set: (AUG-CC-PVTZ AUX)
    Blend: AUG-CC-PVTZ-JKFIT

    Orbital Energies [Eh]
    ---------------------

    Doubly Occupied:

       1A    -20.543226     2A    -11.328869     3A    -11.241520
       4A    -11.238027     5A    -11.229417     6A    -11.214231
       7A     -1.374639     8A     -1.090147     9A     -1.006327
      10A     -0.938290    11A     -0.849855    12A     -0.723507
      13A     -0.665137    14A     -0.631572    15A     -0.614953
      16A     -0.596249    17A     -0.567709    18A     -0.555741
      19A     -0.545236    20A     -0.513902    21A     -0.501144
      22A     -0.484458    23A     -0.471728    24A     -0.405307

  @DF-RHF Final Energy:  -270.12739079602909

   => Energetics <=

    Nuclear Repulsion Energy =            245.1131503529443876
    One-Electron Energy =                -851.8187017349218877
    Two-Electron Energy =                 336.5781605859484671
    Total Energy =                       -270.1273907960290899
  Basis Set: (AUG-CC-PVTZ AUX)
    Blend: AUG-CC-PVTZ-RI
    Molecular point group: c1

    Geometry (in Angstrom), charge = 0, multiplicity = 1:

       Center              X                  Y                   Z               Mass
    ------------   -----------------  -----------------  -----------------  -----------------
         O           -0.908594388200     1.131051471016    -0.708772983239    15.994914619570
         C            0.684447711800    -0.267414828984     0.390783216761    12.000000000000
         C            1.188326711800    -1.263647828984    -0.670184783239    12.000000000000
         C            1.596721711800     0.946125171016     0.495106216761    12.000000000000
         C           -0.726099288200     0.153685171016     0.012063216761    12.000000000000
         C           -1.841789588200    -0.715364528984     0.540436216761    12.000000000000
         H            0.645127711800    -0.784244828984     1.358297216761     1.007825032230
         H            1.214282711800    -0.780707828984    -1.649616783239     1.007825032230
         H            2.198992711800    -1.600339828984    -0.422212783239     1.007825032230
         H            0.545128711800    -2.144712828984    -0.738269783239     1.007825032230
         H            1.245770711800     1.643730171016     1.260636216761     1.007825032230
         H            1.616150711800     1.479176171016    -0.455343783239     1.007825032230
         H            2.613425711800     0.637652171016     0.752485216761     1.007825032230
         H           -1.686396288200    -1.759816828984     0.283116216761     1.007825032230
         H           -2.799850288200    -0.361917828984     0.089443216761     1.007825032230
         H           -1.907863288200    -0.626855828984     1.623332216761     1.007825032230

  Basis Set: AUG-CC-PVTZ
    Blend: AUG-CC-PVTZ
  Basis Set: (AUG-CC-PVTZ AUX)
    Blend: AUG-CC-PVTZ-JKFIT
	 Reference Energy          =    -270.1273907960290899 [Eh]
	 Singles Energy            =      -0.0000000000000000 [Eh]
	 Same-Spin Energy          =      -0.2743127885528567 [Eh]
	 Opposite-Spin Energy      =      -0.9492318849297300 [Eh]
	 Correlation Energy        =      -1.2235446734825866 [Eh]
	 Total Energy              =    -271.3509354695116826 [Eh]

	 ================> DF-SCS-MP2 Energies <==================
	-----------------------------------------------------------
	 SCS Same-Spin Scale       =       0.3333333333333333 [-]
	 SCS Opposite-Spin Scale   =       1.2000000000000000 [-]
	 SCS Same-Spin Energy      =      -0.0914375961842856 [Eh]
	 SCS Opposite-Spin Energy  =      -1.1390782619156758 [Eh]
	 SCS Correlation Energy    =      -1.2305158580999613 [Eh]
	 SCS Total Energy          =    -271.3579066541290672 [Eh]
	-----------------------------------------------------------

  Dipole Moment: [D]
     X:     0.5497      Y:    -2.2853      Z:     1.5665     Total:     2.8247

*** Psi4 exiting successfully. Buy a developer a beer!
