                               Psi4 1.3.2 release

  ==> Input File <==

--------------------------------------------------------------------------
#psi4
#
memory 32 gb

molecule  {
0 1
  O       -0.9233460     1.1259790    -0.7064150
  C        0.6908080    -0.2688650     0.3923890
  C        1.1946870    -1.2650980    -0.6685790
  C        1.6030820     0.9446750     0.4967120
  C       -0.7197390     0.1522350     0.0136690
  C       -1.9279694    -0.7581417     0.5636902
  H        0.6514880    -0.7856950     1.3599030
  H        1.2206430    -0.7821580    -1.6480110
  H        2.2053530    -1.6017900    -0.4206070
  H        0.5514890    -2.1461630    -0.7366640
  H        1.2521310     1.6422800     1.2622420
  H        1.6225110     1.4777260    -0.4537380
  H        2.6197860     0.6362020     0.7540910
  H       -1.6800360    -1.7612670     0.2847220
  H       -2.7934900    -0.3633680     0.0910490
  H       -1.9015030    -0.6283060     1.6249380
units angstrom
no_reorient  #important for SAPT in psi4, default
symmetry c1  #important for SAPT in psi4, default
}

set PROPERTIES_ORIGIN ["COM"]
properties('MP2/aug-cc-pvtz', properties = ['dipole'])
--------------------------------------------------------------------------

    Molecular point group: c1
  Charge       = 0
  Multiplicity = 1
  Basis Set: AUG-CC-PVTZ
    Blend: AUG-CC-PVTZ
  Basis Set: (AUG-CC-PVTZ AUX)
    Blend: AUG-CC-PVTZ-JKFIT

    Orbital Energies [Eh]
    ---------------------

    Doubly Occupied:

       1A    -20.544296     2A    -11.332655     3A    -11.244207
       4A    -11.234246     5A    -11.230604     6A    -11.215798
       7A     -1.373533     8A     -1.089102     9A     -0.995447
      10A     -0.939519    11A     -0.852647    12A     -0.720252
      13A     -0.658527    14A     -0.631712    15A     -0.612816
      16A     -0.588241    17A     -0.582946    18A     -0.557804
      19A     -0.546784    20A     -0.521138    21A     -0.503989
      22A     -0.486157    23A     -0.473569    24A     -0.395013

  @DF-RHF Final Energy:  -270.12138514720550

   => Energetics <=

    Nuclear Repulsion Energy =            243.4304936625048583
    One-Electron Energy =                -848.4417546163238057
    Two-Electron Energy =                 334.8898758066134178
    Total Energy =                       -270.1213851472055012
  Basis Set: (AUG-CC-PVTZ AUX)
    Blend: AUG-CC-PVTZ-RI
    Molecular point group: c1

    Geometry (in Angstrom), charge = 0, multiplicity = 1:

       Center              X                  Y                   Z               Mass
    ------------   -----------------  -----------------  -----------------  -----------------
         O           -0.912881482944     1.133863956812    -0.711178675423    15.994914619570
         C            0.701272517056    -0.260980043188     0.387625324577    12.000000000000
         C            1.205151517056    -1.257213043188    -0.673342675423    12.000000000000
         C            1.613546517056     0.952559956812     0.491948324577    12.000000000000
         C           -0.709274482944     0.160119956812     0.008905324577    12.000000000000
         C           -1.917504882944    -0.750256743188     0.558926524577    12.000000000000
         H            0.661952517056    -0.777810043188     1.355139324577     1.007825032230
         H            1.231107517056    -0.774273043188    -1.652774675423     1.007825032230
         H            2.215817517056    -1.593905043188    -0.425370675423     1.007825032230
         H            0.561953517056    -2.138278043188    -0.741427675423     1.007825032230
         H            1.262595517056     1.650164956812     1.257478324577     1.007825032230
         H            1.632975517056     1.485610956812    -0.458501675423     1.007825032230
         H            2.630250517056     0.644086956812     0.749327324577     1.007825032230
         H           -1.669571482944    -1.753382043188     0.279958324577     1.007825032230
         H           -2.783025482944    -0.355483043188     0.086285324577     1.007825032230
         H           -1.891038482944    -0.620421043188     1.620174324577     1.007825032230

  Basis Set: AUG-CC-PVTZ
    Blend: AUG-CC-PVTZ
  Basis Set: (AUG-CC-PVTZ AUX)
    Blend: AUG-CC-PVTZ-JKFIT
	 Reference Energy          =    -270.1213851472055012 [Eh]
	 Singles Energy            =      -0.0000000000000000 [Eh]
	 Same-Spin Energy          =      -0.2740178918273362 [Eh]
	 Opposite-Spin Energy      =      -0.9493520366938222 [Eh]
	 Correlation Energy        =      -1.2233699285211583 [Eh]
	 Total Energy              =    -271.3447550757266526 [Eh]

	 ================> DF-SCS-MP2 Energies <==================
	-----------------------------------------------------------
	 SCS Same-Spin Scale       =       0.3333333333333333 [-]
	 SCS Opposite-Spin Scale   =       1.2000000000000000 [-]
	 SCS Same-Spin Energy      =      -0.0913392972757787 [Eh]
	 SCS Opposite-Spin Energy  =      -1.1392224440325867 [Eh]
	 SCS Correlation Energy    =      -1.2305617413083654 [Eh]
	 SCS Total Energy          =    -271.3519468885138508 [Eh]
	-----------------------------------------------------------

  Dipole Moment: [D]
     X:     0.7651      Y:    -2.1604      Z:     1.4839     Total:     2.7303

*** Psi4 exiting successfully. Buy a developer a beer!
