                               Psi4 1.3.2 release

  ==> Input File <==

--------------------------------------------------------------------------
#psi4
#
memory 32 gb

molecule  {
0 1
  O       -0.9233460     1.1259790    -0.7064150
  C        0.6908080    -0.2688650     0.3923890
  C        1.1946870    -1.2650980    -0.6685790
  C        1.6030820     0.9446750     0.4967120
  C       -0.7287493     0.1414563     0.0361724
  C       -1.8529100    -0.7015860     0.5295210
  H        0.6325227    -0.7830341     1.3603640
  H        1.2206430    -0.7821580    -1.6480110
  H        2.2053530    -1.6017900    -0.4206070
  H        0.5514890    -2.1461630    -0.7366640
  H        1.2521310     1.6422800     1.2622420
  H        1.6225110     1.4777260    -0.4537380
  H        2.6197860     0.6362020     0.7540910
  H       -1.6800360    -1.7612670     0.2847220
  H       -2.7934900    -0.3633680     0.0910490
  H       -1.9015030    -0.6283060     1.6249380
units angstrom
no_reorient  #important for SAPT in psi4, default
symmetry c1  #important for SAPT in psi4, default
}

set PROPERTIES_ORIGIN ["COM"]
properties('MP2/aug-cc-pvtz', properties = ['dipole'])
--------------------------------------------------------------------------

    Molecular point group: c1
  Charge       = 0
  Multiplicity = 1
  Basis Set: AUG-CC-PVTZ
    Blend: AUG-CC-PVTZ
  Basis Set: (AUG-CC-PVTZ AUX)
    Blend: AUG-CC-PVTZ-JKFIT

    Orbital Energies [Eh]
    ---------------------

    Doubly Occupied:

       1A    -20.540265     2A    -11.329624     3A    -11.244034
       4A    -11.238313     5A    -11.230314     6A    -11.215294
       7A     -1.360545     8A     -1.090936     9A     -1.011195
      10A     -0.938961    11A     -0.852144    12A     -0.722428
      13A     -0.662437    14A     -0.633389    15A     -0.611882
      16A     -0.593644    17A     -0.572051    18A     -0.554988
      19A     -0.545205    20A     -0.513329    21A     -0.498345
      22A     -0.486142    23A     -0.465769    24A     -0.408170

  @DF-RHF Final Energy:  -270.12532843931774

   => Energetics <=

    Nuclear Repulsion Energy =            244.7844245604942728
    One-Electron Energy =                -851.1806972505362410
    Two-Electron Energy =                 336.2709442507242557
    Total Energy =                       -270.1253284393177410
  Basis Set: (AUG-CC-PVTZ AUX)
    Blend: AUG-CC-PVTZ-RI
    Molecular point group: c1

    Geometry (in Angstrom), charge = 0, multiplicity = 1:

       Center              X                  Y                   Z               Mass
    ------------   -----------------  -----------------  -----------------  -----------------
         O           -0.921867738956     1.127450741706    -0.709557670865    15.994914619570
         C            0.692286261044    -0.267393258294     0.389246329135    12.000000000000
         C            1.196165261044    -1.263626258294    -0.671721670865    12.000000000000
         C            1.604560261044     0.946146741706     0.493569329135    12.000000000000
         C           -0.727271038956     0.142928041706     0.033029729135    12.000000000000
         C           -1.851431738956    -0.700114258294     0.526378329135    12.000000000000
         H            0.634000961044    -0.781562358294     1.357221329135     1.007825032230
         H            1.222121261044    -0.780686258294    -1.651153670865     1.007825032230
         H            2.206831261044    -1.600318258294    -0.423749670865     1.007825032230
         H            0.552967261044    -2.144691258294    -0.739806670865     1.007825032230
         H            1.253609261044     1.643751741706     1.259099329135     1.007825032230
         H            1.623989261044     1.479197741706    -0.456880670865     1.007825032230
         H            2.621264261044     0.637673741706     0.750948329135     1.007825032230
         H           -1.678557738956    -1.759795258294     0.281579329135     1.007825032230
         H           -2.792011738956    -0.361896258294     0.087906329135     1.007825032230
         H           -1.900024738956    -0.626834258294     1.621795329135     1.007825032230

  Basis Set: AUG-CC-PVTZ
    Blend: AUG-CC-PVTZ
  Basis Set: (AUG-CC-PVTZ AUX)
    Blend: AUG-CC-PVTZ-JKFIT
	 Reference Energy          =    -270.1253284393177410 [Eh]
	 Singles Energy            =      -0.0000000000000000 [Eh]
	 Same-Spin Energy          =      -0.2748284688361918 [Eh]
	 Opposite-Spin Energy      =      -0.9502888377931962 [Eh]
	 Correlation Energy        =      -1.2251173066293881 [Eh]
	 Total Energy              =    -271.3504457459471269 [Eh]

	 ================> DF-SCS-MP2 Energies <==================
	-----------------------------------------------------------
	 SCS Same-Spin Scale       =       0.3333333333333333 [-]
	 SCS Opposite-Spin Scale   =       1.2000000000000000 [-]
	 SCS Same-Spin Energy      =      -0.0916094896120639 [Eh]
	 SCS Opposite-Spin Energy  =      -1.1403466053518354 [Eh]
	 SCS Correlation Energy    =      -1.2319560949638992 [Eh]
	 SCS Total Energy          =    -271.3572845342816322 [Eh]
	-----------------------------------------------------------

  Dipole Moment: [D]
     X:     0.5649      Y:    -2.3555      Z:     1.6171     Total:     2.9125

*** Psi4 exiting successfully. Buy a developer a beer!
