                               Psi4 1.3.2 release

  ==> Input File <==

--------------------------------------------------------------------------
#psi4
#
memory 32 gb

molecule  {
0 1
  O       -0.9862839     1.1133373    -0.7028436
  C        0.6908080    -0.2688650     0.3923890
  C        1.1946870    -1.2650980    -0.6685790
  C        1.6030820     0.9446750     0.4967120
  C       -0.7197390     0.1522350     0.0136690
  C       -1.9032604    -0.6543585     0.4910307
  H        0.6514880    -0.7856950     1.3599030
  H        1.2206430    -0.7821580    -1.6480110
  H        2.2053530    -1.6017900    -0.4206070
  H        0.5514890    -2.1461630    -0.7366640
  H        1.2521310     1.6422800     1.2622420
  H        1.6225110     1.4777260    -0.4537380
  H        2.6197860     0.6362020     0.7540910
  H       -1.6800360    -1.7612670     0.2847220
  H       -2.7934900    -0.3633680     0.0910490
  H       -1.9015030    -0.6283060     1.6249380
units angstrom
no_reorient  #important for SAPT in psi4, default
symmetry c1  #important for SAPT in psi4, default
}

set PROPERTIES_ORIGIN ["COM"]
properties('MP2/aug-cc-pvtz', properties = ['dipole'])
--------------------------------------------------------------------------

    Molecular point group: c1
  Charge       = 0
  Multiplicity = 1
  Basis Set: AUG-CC-PVTZ
    Blend: AUG-CC-PVTZ
  Basis Set: (AUG-CC-PVTZ AUX)
    Blend: AUG-CC-PVTZ-JKFIT

    Orbital Energies [Eh]
    ---------------------

    Doubly Occupied:

       1A    -20.539066     2A    -11.327486     3A    -11.248074
       4A    -11.234989     5A    -11.231603     6A    -11.218092
       7A     -1.373367     8A     -1.092404     9A     -1.001390
      10A     -0.941095    11A     -0.854225    12A     -0.724408
      13A     -0.663532    14A     -0.639683    15A     -0.606657
      16A     -0.593225    17A     -0.577314    18A     -0.549935
      19A     -0.544641    20A     -0.520419    21A     -0.498997
      22A     -0.488474    23A     -0.468676    24A     -0.404042

  @DF-RHF Final Energy:  -270.11980841173329

   => Energetics <=

    Nuclear Repulsion Energy =            244.5445616317431643
    One-Electron Energy =                -850.6451501213348365
    Two-Electron Energy =                 335.9807800778584124
    Total Energy =                       -270.1198084117332883
  Basis Set: (AUG-CC-PVTZ AUX)
    Blend: AUG-CC-PVTZ-RI
    Molecular point group: c1

    Geometry (in Angstrom), charge = 0, multiplicity = 1:

       Center              X                  Y                   Z               Mass
    ------------   -----------------  -----------------  -----------------  -----------------
         O           -0.967568514775     1.109102387762    -0.698141029323    15.994914619570
         C            0.709523385225    -0.273099912238     0.397091570677    12.000000000000
         C            1.213402385225    -1.269332912238    -0.663876429323    12.000000000000
         C            1.621797385225     0.940440087762     0.501414570677    12.000000000000
         C           -0.701023614775     0.148000087762     0.018371570677    12.000000000000
         C           -1.884545014775    -0.658593412238     0.495733270677    12.000000000000
         H            0.670203385225    -0.789929912238     1.364605570677     1.007825032230
         H            1.239358385225    -0.786392912238    -1.643308429323     1.007825032230
         H            2.224068385225    -1.606024912238    -0.415904429323     1.007825032230
         H            0.570204385225    -2.150397912238    -0.731961429323     1.007825032230
         H            1.270846385225     1.638045087762     1.266944570677     1.007825032230
         H            1.641226385225     1.473491087762    -0.449035429323     1.007825032230
         H            2.638501385225     0.631967087762     0.758793570677     1.007825032230
         H           -1.661320614775    -1.765501912238     0.289424570677     1.007825032230
         H           -2.774774614775    -0.367602912238     0.095751570677     1.007825032230
         H           -1.882787614775    -0.632540912238     1.629640570677     1.007825032230

  Basis Set: AUG-CC-PVTZ
    Blend: AUG-CC-PVTZ
  Basis Set: (AUG-CC-PVTZ AUX)
    Blend: AUG-CC-PVTZ-JKFIT
	 Reference Energy          =    -270.1198084117332883 [Eh]
	 Singles Energy            =      -0.0000000000000000 [Eh]
	 Same-Spin Energy          =      -0.2741097596199058 [Eh]
	 Opposite-Spin Energy      =      -0.9490313855738615 [Eh]
	 Correlation Energy        =      -1.2231411451937673 [Eh]
	 Total Energy              =    -271.3429495569270671 [Eh]

	 ================> DF-SCS-MP2 Energies <==================
	-----------------------------------------------------------
	 SCS Same-Spin Scale       =       0.3333333333333333 [-]
	 SCS Opposite-Spin Scale   =       1.2000000000000000 [-]
	 SCS Same-Spin Energy      =      -0.0913699198733019 [Eh]
	 SCS Opposite-Spin Energy  =      -1.1388376626886336 [Eh]
	 SCS Correlation Energy    =      -1.2302075825619356 [Eh]
	 SCS Total Energy          =    -271.3500159942952337 [Eh]
	-----------------------------------------------------------

  Dipole Moment: [D]
     X:     0.8094      Y:    -2.2463      Z:     1.5554     Total:     2.8496

*** Psi4 exiting successfully. Buy a developer a beer!
