                               Psi4 1.3.2 release

  ==> Input File <==

--------------------------------------------------------------------------
#psi4
#
memory 32 gb

molecule  {
0 1
  O       -0.9233460     1.1259790    -0.7064150
  C        0.6908080    -0.2688650     0.3923890
  C        1.2179776    -1.2670890    -0.6553077
  C        1.6030820     0.9446750     0.4967120
  C       -0.7205961     0.1678202     0.0351198
  C       -1.8529100    -0.7015860     0.5295210
  H        0.6514880    -0.7856950     1.3599030
  H        1.2206430    -0.7821580    -1.6480110
  H        2.2053530    -1.6017900    -0.4206070
  H        0.5514890    -2.1461630    -0.7366640
  H        1.2521310     1.6422800     1.2622420
  H        1.6225110     1.4777260    -0.4537380
  H        2.6197860     0.6362020     0.7540910
  H       -1.6800360    -1.7612670     0.2847220
  H       -2.7934900    -0.3633680     0.0910490
  H       -1.9015030    -0.6283060     1.6249380
units angstrom
no_reorient  #important for SAPT in psi4, default
symmetry c1  #important for SAPT in psi4, default
}

set PROPERTIES_ORIGIN ["COM"]
properties('MP2/aug-cc-pvtz', properties = ['dipole'])
--------------------------------------------------------------------------

    Molecular point group: c1
  Charge       = 0
  Multiplicity = 1
  Basis Set: AUG-CC-PVTZ
    Blend: AUG-CC-PVTZ
  Basis Set: (AUG-CC-PVTZ AUX)
    Blend: AUG-CC-PVTZ-JKFIT

    Orbital Energies [Eh]
    ---------------------

    Doubly Occupied:

       1A    -20.542966     2A    -11.328977     3A    -11.243101
       4A    -11.236972     5A    -11.230179     6A    -11.214800
       7A     -1.374437     8A     -1.090309     9A     -1.005011
      10A     -0.938544    11A     -0.851504    12A     -0.723024
      13A     -0.664716    14A     -0.631976    15A     -0.612676
      16A     -0.593369    17A     -0.572956    18A     -0.556521
      19A     -0.544681    20A     -0.517018    21A     -0.499275
      22A     -0.483396    23A     -0.470687    24A     -0.406625

  @DF-RHF Final Energy:  -270.12719295150578

   => Energetics <=

    Nuclear Repulsion Energy =            244.8149808428738083
    One-Electron Energy =                -851.2169064589577374
    Two-Electron Energy =                 336.2747326645780959
    Total Energy =                       -270.1271929515057764
  Basis Set: (AUG-CC-PVTZ AUX)
    Blend: AUG-CC-PVTZ-RI
    Molecular point group: c1

    Geometry (in Angstrom), charge = 0, multiplicity = 1:

       Center              X                  Y                   Z               Mass
    ------------   -----------------  -----------------  -----------------  -----------------
         O           -0.926473579863     1.124083919090    -0.711255758681    15.994914619570
         C            0.687680420137    -0.270760080910     0.387548241319    12.000000000000
         C            1.214850020137    -1.268984080910    -0.660148458681    12.000000000000
         C            1.599954420137     0.942779919090     0.491871241319    12.000000000000
         C           -0.723723679863     0.165925119090     0.030279041319    12.000000000000
         C           -1.856037579863    -0.703481080910     0.524680241319    12.000000000000
         H            0.648360420137    -0.787590080910     1.355062241319     1.007825032230
         H            1.217515420137    -0.784053080910    -1.652851758681     1.007825032230
         H            2.202225420137    -1.603685080910    -0.425447758681     1.007825032230
         H            0.548361420137    -2.148058080910    -0.741504758681     1.007825032230
         H            1.249003420137     1.640384919090     1.257401241319     1.007825032230
         H            1.619383420137     1.475830919090    -0.458578758681     1.007825032230
         H            2.616658420137     0.634306919090     0.749250241319     1.007825032230
         H           -1.683163579863    -1.763162080910     0.279881241319     1.007825032230
         H           -2.796617579863    -0.365263080910     0.086208241319     1.007825032230
         H           -1.904630579863    -0.630201080910     1.620097241319     1.007825032230

  Basis Set: AUG-CC-PVTZ
    Blend: AUG-CC-PVTZ
  Basis Set: (AUG-CC-PVTZ AUX)
    Blend: AUG-CC-PVTZ-JKFIT
	 Reference Energy          =    -270.1271929515057764 [Eh]
	 Singles Energy            =      -0.0000000000000000 [Eh]
	 Same-Spin Energy          =      -0.2741933217553258 [Eh]
	 Opposite-Spin Energy      =      -0.9491269223453546 [Eh]
	 Correlation Energy        =      -1.2233202441006803 [Eh]
	 Total Energy              =    -271.3505131956064815 [Eh]

	 ================> DF-SCS-MP2 Energies <==================
	-----------------------------------------------------------
	 SCS Same-Spin Scale       =       0.3333333333333333 [-]
	 SCS Opposite-Spin Scale   =       1.2000000000000000 [-]
	 SCS Same-Spin Energy      =      -0.0913977739184419 [Eh]
	 SCS Opposite-Spin Energy  =      -1.1389523068144254 [Eh]
	 SCS Correlation Energy    =      -1.2303500807328673 [Eh]
	 SCS Total Energy          =    -271.3575430322386524 [Eh]
	-----------------------------------------------------------

  Dipole Moment: [D]
     X:     0.6091      Y:    -2.2712      Z:     1.5677     Total:     2.8261

*** Psi4 exiting successfully. Buy a developer a beer!
