                               Psi4 1.3.2 release

  ==> Input File <==

--------------------------------------------------------------------------
#psi4
#
memory 32 gb

molecule  {
0 1
  O       -0.9233460     1.1259790    -0.7064150
  C        0.6908080    -0.2688650     0.3923890
  C        1.1946870    -1.2650980    -0.6685790
  C        1.6030820     0.9446750     0.4967120
  C       -0.7102990     0.1628855    -0.0087190
  C       -1.8529100    -0.7015860     0.5295210
  H        0.6704653    -0.7881985     1.3591473
  H        1.2206430    -0.7821580    -1.6480110
  H        2.2053530    -1.6017900    -0.4206070
  H        0.5514890    -2.1461630    -0.7366640
  H        1.2521310     1.6422800     1.2622420
  H        1.6225110     1.4777260    -0.4537380
  H        2.6197860     0.6362020     0.7540910
  H       -1.6800360    -1.7612670     0.2847220
  H       -2.7934900    -0.3633680     0.0910490
  H       -1.9015030    -0.6283060     1.6249380
units angstrom
no_reorient  #important for SAPT in psi4, default
symmetry c1  #important for SAPT in psi4, default
}

set PROPERTIES_ORIGIN ["COM"]
properties('MP2/aug-cc-pvtz', properties = ['dipole'])
--------------------------------------------------------------------------

    Molecular point group: c1
  Charge       = 0
  Multiplicity = 1
  Basis Set: AUG-CC-PVTZ
    Blend: AUG-CC-PVTZ
  Basis Set: (AUG-CC-PVTZ AUX)
    Blend: AUG-CC-PVTZ-JKFIT

    Orbital Energies [Eh]
    ---------------------

    Doubly Occupied:

       1A    -20.544069     2A    -11.327170     3A    -11.242329
       4A    -11.235275     5A    -11.229603     6A    -11.215082
       7A     -1.388023     8A     -1.090450     9A     -0.998777
      10A     -0.938991    11A     -0.849376    12A     -0.724605
      13A     -0.667108    14A     -0.632906    15A     -0.612728
      16A     -0.594110    17A     -0.571236    18A     -0.553338
      19A     -0.546151    20A     -0.518147    21A     -0.504005
      22A     -0.485157    23A     -0.475759    24A     -0.401949

  @DF-RHF Final Energy:  -270.12961257168212

   => Energetics <=

    Nuclear Repulsion Energy =            245.1262562733788286
    One-Electron Energy =                -851.8190506542044886
    Two-Electron Energy =                 336.5631818091436003
    Total Energy =                       -270.1296125716821166
  Basis Set: (AUG-CC-PVTZ AUX)
    Blend: AUG-CC-PVTZ-RI
    Molecular point group: c1

    Geometry (in Angstrom), charge = 0, multiplicity = 1:

       Center              X                  Y                   Z               Mass
    ------------   -----------------  -----------------  -----------------  -----------------
         O           -0.924884278457     1.124523632094    -0.703284832855    15.994914619570
         C            0.689269721543    -0.270320367906     0.395519167145    12.000000000000
         C            1.193148721543    -1.266553367906    -0.665448832855    12.000000000000
         C            1.601543721543     0.943219632094     0.499842167145    12.000000000000
         C           -0.711837278457     0.161430132094    -0.005588832855    12.000000000000
         C           -1.854448278457    -0.703041367906     0.532651167145    12.000000000000
         H            0.668927021543    -0.789653867906     1.362277467145     1.007825032230
         H            1.219104721543    -0.783613367906    -1.644880832855     1.007825032230
         H            2.203814721543    -1.603245367906    -0.417476832855     1.007825032230
         H            0.549950721543    -2.147618367906    -0.733533832855     1.007825032230
         H            1.250592721543     1.640824632094     1.265372167145     1.007825032230
         H            1.620972721543     1.476270632094    -0.450607832855     1.007825032230
         H            2.618247721543     0.634746632094     0.757221167145     1.007825032230
         H           -1.681574278457    -1.762722367906     0.287852167145     1.007825032230
         H           -2.795028278457    -0.364823367906     0.094179167145     1.007825032230
         H           -1.903041278457    -0.629761367906     1.628068167145     1.007825032230

  Basis Set: AUG-CC-PVTZ
    Blend: AUG-CC-PVTZ
  Basis Set: (AUG-CC-PVTZ AUX)
    Blend: AUG-CC-PVTZ-JKFIT
	 Reference Energy          =    -270.1296125716821166 [Eh]
	 Singles Energy            =      -0.0000000000000000 [Eh]
	 Same-Spin Energy          =      -0.2736610517708412 [Eh]
	 Opposite-Spin Energy      =      -0.9479074215433737 [Eh]
	 Correlation Energy        =      -1.2215684733142149 [Eh]
	 Total Energy              =    -271.3511810449963377 [Eh]

	 ================> DF-SCS-MP2 Energies <==================
	-----------------------------------------------------------
	 SCS Same-Spin Scale       =       0.3333333333333333 [-]
	 SCS Opposite-Spin Scale   =       1.2000000000000000 [-]
	 SCS Same-Spin Energy      =      -0.0912203505902804 [Eh]
	 SCS Opposite-Spin Energy  =      -1.1374889058520483 [Eh]
	 SCS Correlation Energy    =      -1.2287092564423288 [Eh]
	 SCS Total Energy          =    -271.3583218281244172 [Eh]
	-----------------------------------------------------------

  Dipole Moment: [D]
     X:     0.6609      Y:    -2.1980      Z:     1.5091     Total:     2.7469

*** Psi4 exiting successfully. Buy a developer a beer!
