                               Psi4 1.3.2 release

  ==> Input File <==

--------------------------------------------------------------------------
#psi4
#
memory 32 gb

molecule  {
0 1
  O       -0.9233460     1.1259790    -0.7064150
  C        0.6908080    -0.2688650     0.3923890
  C        1.1712429    -1.2628035    -0.6815271
  C        1.6030820     0.9446750     0.4967120
  C       -0.7184522     0.1365215    -0.0076664
  C       -1.8529100    -0.7015860     0.5295210
  H        0.6514880    -0.7856950     1.3599030
  H        1.2206430    -0.7821580    -1.6480110
  H        2.2053530    -1.6017900    -0.4206070
  H        0.5514890    -2.1461630    -0.7366640
  H        1.2521310     1.6422800     1.2622420
  H        1.6225110     1.4777260    -0.4537380
  H        2.6197860     0.6362020     0.7540910
  H       -1.6800360    -1.7612670     0.2847220
  H       -2.7934900    -0.3633680     0.0910490
  H       -1.9015030    -0.6283060     1.6249380
units angstrom
no_reorient  #important for SAPT in psi4, default
symmetry c1  #important for SAPT in psi4, default
}

set PROPERTIES_ORIGIN ["COM"]
properties('MP2/aug-cc-pvtz', properties = ['dipole'])
--------------------------------------------------------------------------

    Molecular point group: c1
  Charge       = 0
  Multiplicity = 1
  Basis Set: AUG-CC-PVTZ
    Blend: AUG-CC-PVTZ
  Basis Set: (AUG-CC-PVTZ AUX)
    Blend: AUG-CC-PVTZ-JKFIT

    Orbital Energies [Eh]
    ---------------------

    Doubly Occupied:

       1A    -20.541510     2A    -11.327978     3A    -11.243305
       4A    -11.236895     5A    -11.229998     6A    -11.215580
       7A     -1.373450     8A     -1.091062     9A     -1.004863
      10A     -0.939603    11A     -0.850077    12A     -0.723852
      13A     -0.664431    14A     -0.634222    15A     -0.611698
      16A     -0.594113    17A     -0.571358    18A     -0.555462
      19A     -0.543086    20A     -0.514024    21A     -0.502108
      22A     -0.487488    23A     -0.471415    24A     -0.404012

  @DF-RHF Final Energy:  -270.12720572641803

   => Energetics <=

    Nuclear Repulsion Energy =            245.0773988511981827
    One-Electron Energy =                -851.7460251696527394
    Two-Electron Energy =                 336.5414205920365589
    Total Energy =                       -270.1272057264180262
  Basis Set: (AUG-CC-PVTZ AUX)
    Blend: AUG-CC-PVTZ-RI
    Molecular point group: c1

    Geometry (in Angstrom), charge = 0, multiplicity = 1:

       Center              X                  Y                   Z               Mass
    ------------   -----------------  -----------------  -----------------  -----------------
         O           -0.920256896645     1.127849998799    -0.701635255002    15.994914619570
         C            0.693897103355    -0.266994001201     0.397168744998    12.000000000000
         C            1.174332003355    -1.260932501201    -0.676747355002    12.000000000000
         C            1.606171103355     0.946545998799     0.501491744998    12.000000000000
         C           -0.715363096645     0.138392498799    -0.002886655002    12.000000000000
         C           -1.849820896645    -0.699715001201     0.534300744998    12.000000000000
         H            0.654577103355    -0.783824001201     1.364682744998     1.007825032230
         H            1.223732103355    -0.780287001201    -1.643231255002     1.007825032230
         H            2.208442103355    -1.599919001201    -0.415827255002     1.007825032230
         H            0.554578103355    -2.144292001201    -0.731884255002     1.007825032230
         H            1.255220103355     1.644150998799     1.267021744998     1.007825032230
         H            1.625600103355     1.479596998799    -0.448958255002     1.007825032230
         H            2.622875103355     0.638072998799     0.758870744998     1.007825032230
         H           -1.676946896645    -1.759396001201     0.289501744998     1.007825032230
         H           -2.790400896645    -0.361497001201     0.095828744998     1.007825032230
         H           -1.898413896645    -0.626435001201     1.629717744998     1.007825032230

  Basis Set: AUG-CC-PVTZ
    Blend: AUG-CC-PVTZ
  Basis Set: (AUG-CC-PVTZ AUX)
    Blend: AUG-CC-PVTZ-JKFIT
	 Reference Energy          =    -270.1272057264180262 [Eh]
	 Singles Energy            =      -0.0000000000000000 [Eh]
	 Same-Spin Energy          =      -0.2743073207558901 [Eh]
	 Opposite-Spin Energy      =      -0.9491550473677610 [Eh]
	 Correlation Energy        =      -1.2234623681236512 [Eh]
	 Total Energy              =    -271.3506680945416747 [Eh]

	 ================> DF-SCS-MP2 Energies <==================
	-----------------------------------------------------------
	 SCS Same-Spin Scale       =       0.3333333333333333 [-]
	 SCS Opposite-Spin Scale   =       1.2000000000000000 [-]
	 SCS Same-Spin Energy      =      -0.0914357735852967 [Eh]
	 SCS Opposite-Spin Energy  =      -1.1389860568413133 [Eh]
	 SCS Correlation Energy    =      -1.2304218304266099 [Eh]
	 SCS Total Energy          =    -271.3576275568446476 [Eh]
	-----------------------------------------------------------

  Dipole Moment: [D]
     X:     0.6120      Y:    -2.2840      Z:     1.5631     Total:     2.8345

*** Psi4 exiting successfully. Buy a developer a beer!
