                               Psi4 1.4a3.dev225

  ==> Input File <==

--------------------------------------------------------------------------
#psi4
#
memory 32 gb

molecule  {
0 1
  O        0.8586560    -1.1799710    -0.8389030
  C       -0.6220090     0.2405930     0.4084700
  C       -1.1011690     1.3295070    -0.5625920
  C       -1.6147530    -0.9146890     0.4753170
  C        0.7458620    -0.2403040    -0.0547070
  C        1.9693798     0.5142247     0.4776064
  H       -0.5088060     0.6902670     1.4041320
  H       -1.2062520     0.9086330    -1.5670350
  H       -2.0743030     1.7168190    -0.2469230
  H       -0.4032100     2.1709140    -0.6131640
  H       -1.2799510    -1.6832910     1.1776610
  H       -1.7123230    -1.3800890    -0.5076340
  H       -2.5969660    -0.5569830     0.7981250
  H        1.8130240     1.5867940     0.3929810
  H        2.8429500     0.2000390    -0.0822420
  H        2.0885060     0.2697440     1.5324280
units angstrom
no_reorient  #important for SAPT in psi4, default
symmetry c1  #important for SAPT in psi4, default
}

set PROPERTIES_ORIGIN ["COM"]
properties('MP2/aug-cc-pvtz', properties = ['dipole'])
--------------------------------------------------------------------------

    Molecular point group: c1
  Charge       = 0
  Multiplicity = 1
  Basis Set: AUG-CC-PVTZ
    Blend: AUG-CC-PVTZ
  Basis Set: (AUG-CC-PVTZ AUX)
    Blend: AUG-CC-PVTZ-JKFIT

    Orbital Energies [Eh]
    ---------------------

    Doubly Occupied:

       1A    -20.542656     2A    -11.330069     3A    -11.243704
       4A    -11.235395     5A    -11.230045     6A    -11.216088
       7A     -1.373174     8A     -1.090143     9A     -1.003133
      10A     -0.938435    11A     -0.851341    12A     -0.722607
      13A     -0.662698    14A     -0.632743    15A     -0.612005
      16A     -0.593228    17A     -0.574132    18A     -0.555622
      19A     -0.545018    20A     -0.517756    21A     -0.501153
      22A     -0.485661    23A     -0.471952    24A     -0.403525

  @DF-RHF Final Energy:  -270.12832633248172

   => Energetics <=

    Nuclear Repulsion Energy =            244.4299332943816694
    One-Electron Energy =                -850.4519531586448693
    Two-Electron Energy =                 335.8936935317815369
    Total Energy =                       -270.1283263324817199
  Basis Set: (AUG-CC-PVTZ AUX)
    Blend: AUG-CC-PVTZ-RI
    Molecular point group: c1

    Geometry (in Angstrom), charge = 0, multiplicity = 1:

       Center              X                  Y                   Z               Mass
    ------------   -----------------  -----------------  -----------------  -----------------
         O            0.821469487842    -1.136194155069    -0.813543019193    15.994914619570
         C           -0.659195512158     0.284369844931     0.433829980807    12.000000000000
         C           -1.138355512158     1.373283844931    -0.537232019193    12.000000000000
         C           -1.651939512158    -0.870912155069     0.500676980807    12.000000000000
         C            0.708675487842    -0.196527155069    -0.029347019193    12.000000000000
         C            1.932193287842     0.558001544931     0.502966380807    12.000000000000
         H           -0.545992512158     0.734043844931     1.429491980807     1.007825032230
         H           -1.243438512158     0.952409844931    -1.541675019193     1.007825032230
         H           -2.111489512158     1.760595844931    -0.221563019193     1.007825032230
         H           -0.440396512158     2.214690844931    -0.587804019193     1.007825032230
         H           -1.317137512158    -1.639514155069     1.203020980807     1.007825032230
         H           -1.749509512158    -1.336312155069    -0.482274019193     1.007825032230
         H           -2.634152512158    -0.513206155069     0.823484980807     1.007825032230
         H            1.775837487842     1.630570844931     0.418340980807     1.007825032230
         H            2.805763487842     0.243815844931    -0.056882019193     1.007825032230
         H            2.051319487842     0.313520844931     1.557787980807     1.007825032230

  Basis Set: AUG-CC-PVTZ
    Blend: AUG-CC-PVTZ
  Basis Set: (AUG-CC-PVTZ AUX)
    Blend: AUG-CC-PVTZ-JKFIT
	 Reference Energy          =    -270.1283263324817199 [Eh]
	 Singles Energy            =      -0.0000000000000000 [Eh]
	 Same-Spin Energy          =      -0.2740727348381290 [Eh]
	 Opposite-Spin Energy      =      -0.9489984657122805 [Eh]
	 Correlation Energy        =      -1.2230712005504096 [Eh]
	 Total Energy              =    -271.3513975330321273 [Eh]

	 ================> DF-SCS-MP2 Energies <==================
	-----------------------------------------------------------
	 SCS Same-Spin Scale       =       0.3333333333333333 [-]
	 SCS Opposite-Spin Scale   =       1.2000000000000000 [-]
	 SCS Same-Spin Energy      =      -0.0913575782793763 [Eh]
	 SCS Opposite-Spin Energy  =      -1.1387981588547367 [Eh]
	 SCS Correlation Energy    =      -1.2301557371341130 [Eh]
	 SCS Total Energy          =    -271.3584820696158317 [Eh]
	-----------------------------------------------------------

  Dipole Moment: [D]
     X:    -0.4290      Y:     2.1814      Z:     1.7202     Total:     2.8110

*** Psi4 exiting successfully. Buy a developer a beer!
