                               Psi4 1.3.2 release

  ==> Input File <==

--------------------------------------------------------------------------
#psi4
#
memory 32 gb

molecule  {
0 1
  O       -0.9233460     1.1259790    -0.7064150
  C        0.6908080    -0.2688650     0.3923890
  C        1.1946870    -1.2650980    -0.6685790
  C        1.6030820     0.9446750     0.4967120
  C       -0.7197390     0.1522350     0.0136690
  C       -1.8529100    -0.7015860     0.5295210
  H        0.6514880    -0.7856950     1.3599030
  H        1.2206430    -0.7821580    -1.6480110
  H        2.2053530    -1.6017900    -0.4206070
  H        0.5514890    -2.1461630    -0.7366640
  H        1.2521310     1.6422800     1.2622420
  H        1.6225110     1.4777260    -0.4537380
  H        2.6197860     0.6362020     0.7540910
  H       -1.6800360    -1.7612670     0.2847220
  H       -2.7934900    -0.3633680     0.0910490
  H       -1.9015030    -0.6283060     1.6249380
units angstrom
no_reorient  #important for SAPT in psi4, default
symmetry c1  #important for SAPT in psi4, default
}

set PROPERTIES_ORIGIN ["COM"]
properties('MP2/aug-cc-pvtz', properties = ['dipole'])
--------------------------------------------------------------------------

    Molecular point group: c1
  Charge       = 0
  Multiplicity = 1
  Basis Set: AUG-CC-PVTZ
    Blend: AUG-CC-PVTZ
  Basis Set: (AUG-CC-PVTZ AUX)
    Blend: AUG-CC-PVTZ-JKFIT

    Orbital Energies [Eh]
    ---------------------

    Doubly Occupied:

       1A    -20.542160     2A    -11.328337     3A    -11.243119
       4A    -11.236883     5A    -11.229936     6A    -11.215167
       7A     -1.374141     8A     -1.090609     9A     -1.004987
      10A     -0.938957    11A     -0.850713    12A     -0.723393
      13A     -0.664568    14A     -0.633014    15A     -0.611984
      16A     -0.593758    17A     -0.571990    18A     -0.554237
      19A     -0.545669    20A     -0.515782    21A     -0.500700
      22A     -0.485605    23A     -0.471335    24A     -0.405431

  @DF-RHF Final Energy:  -270.12850442797480

   => Energetics <=

    Nuclear Repulsion Energy =            244.9517424542735000
    One-Electron Energy =                -851.4955442112094488
    Two-Electron Energy =                 336.4152973289611737
    Total Energy =                       -270.1285044279748035
  Basis Set: (AUG-CC-PVTZ AUX)
    Blend: AUG-CC-PVTZ-RI
    Molecular point group: c1

    Geometry (in Angstrom), charge = 0, multiplicity = 1:

       Center              X                  Y                   Z               Mass
    ------------   -----------------  -----------------  -----------------  -----------------
         O           -0.923345984866     1.125979171810    -0.706414932853    15.994914619570
         C            0.690808015134    -0.268864828190     0.392389067147    12.000000000000
         C            1.194687015134    -1.265097828190    -0.668578932853    12.000000000000
         C            1.603082015134     0.944675171810     0.496712067147    12.000000000000
         C           -0.719738984866     0.152235171810     0.013669067147    12.000000000000
         C           -1.852909984866    -0.701585828190     0.529521067147    12.000000000000
         H            0.651488015134    -0.785694828190     1.359903067147     1.007825032230
         H            1.220643015134    -0.782157828190    -1.648010932853     1.007825032230
         H            2.205353015134    -1.601789828190    -0.420606932853     1.007825032230
         H            0.551489015134    -2.146162828190    -0.736663932853     1.007825032230
         H            1.252131015134     1.642280171810     1.262242067147     1.007825032230
         H            1.622511015134     1.477726171810    -0.453737932853     1.007825032230
         H            2.619786015134     0.636202171810     0.754091067147     1.007825032230
         H           -1.680035984866    -1.761266828190     0.284722067147     1.007825032230
         H           -2.793489984866    -0.363367828190     0.091049067147     1.007825032230
         H           -1.901502984866    -0.628305828190     1.624938067147     1.007825032230

  Basis Set: AUG-CC-PVTZ
    Blend: AUG-CC-PVTZ
  Basis Set: (AUG-CC-PVTZ AUX)
    Blend: AUG-CC-PVTZ-JKFIT
	 Reference Energy          =    -270.1285044279748035 [Eh]
	 Singles Energy            =      -0.0000000000000000 [Eh]
	 Same-Spin Energy          =      -0.2742036419048601 [Eh]
	 Opposite-Spin Energy      =      -0.9490225741457075 [Eh]
	 Correlation Energy        =      -1.2232262160505676 [Eh]
	 Total Energy              =    -271.3517306440253947 [Eh]

	 ================> DF-SCS-MP2 Energies <==================
	-----------------------------------------------------------
	 SCS Same-Spin Scale       =       0.3333333333333333 [-]
	 SCS Opposite-Spin Scale   =       1.2000000000000000 [-]
	 SCS Same-Spin Energy      =      -0.0914012139682867 [Eh]
	 SCS Opposite-Spin Energy  =      -1.1388270889748489 [Eh]
	 SCS Correlation Energy    =      -1.2302283029431356 [Eh]
	 SCS Total Energy          =    -271.3587327309179500 [Eh]
	-----------------------------------------------------------

  Dipole Moment: [D]
     X:     0.6106      Y:    -2.2792      Z:     1.5655     Total:     2.8317

*** Psi4 exiting successfully. Buy a developer a beer!
