                               Psi4 1.3.2 release

  ==> Input File <==

--------------------------------------------------------------------------
#psi4
#
memory 32 gb

molecule  {
0 1
  O       -0.9127790     1.1276348    -0.7070840
  C        0.6956664    -0.2587742     0.3852815
  C        1.1946870    -1.2650980    -0.6685790
  C        1.6030820     0.9446750     0.4967120
  C       -0.7197390     0.1522350     0.0136690
  C       -1.8529100    -0.7015860     0.5295210
  H        0.6514880    -0.7856950     1.3599030
  H        1.2206430    -0.7821580    -1.6480110
  H        2.2053530    -1.6017900    -0.4206070
  H        0.5514890    -2.1461630    -0.7366640
  H        1.2521310     1.6422800     1.2622420
  H        1.6225110     1.4777260    -0.4537380
  H        2.6197860     0.6362020     0.7540910
  H       -1.6800360    -1.7612670     0.2847220
  H       -2.7934900    -0.3633680     0.0910490
  H       -1.9015030    -0.6283060     1.6249380
units angstrom
no_reorient  #important for SAPT in psi4, default
symmetry c1  #important for SAPT in psi4, default
}

set PROPERTIES_ORIGIN ["COM"]
properties('MP2/aug-cc-pvtz', properties = ['dipole'])
--------------------------------------------------------------------------

    Molecular point group: c1
  Charge       = 0
  Multiplicity = 1
  Basis Set: AUG-CC-PVTZ
    Blend: AUG-CC-PVTZ
  Basis Set: (AUG-CC-PVTZ AUX)
    Blend: AUG-CC-PVTZ-JKFIT

    Orbital Energies [Eh]
    ---------------------

    Doubly Occupied:

       1A    -20.541943     2A    -11.328263     3A    -11.243098
       4A    -11.237769     5A    -11.229674     6A    -11.214471
       7A     -1.374249     8A     -1.090802     9A     -1.005798
      10A     -0.939647    11A     -0.850050    12A     -0.721933
      13A     -0.664386    14A     -0.633769    15A     -0.612298
      16A     -0.593983    17A     -0.572385    18A     -0.554269
      19A     -0.545669    20A     -0.516170    21A     -0.501434
      22A     -0.483630    23A     -0.471019    24A     -0.405454

  @DF-RHF Final Energy:  -270.12813840357671

   => Energetics <=

    Nuclear Repulsion Energy =            245.0800863826248133
    One-Electron Energy =                -851.7521185823981114
    Two-Electron Energy =                 336.5438937961965848
    Total Energy =                       -270.1281384035767132
  Basis Set: (AUG-CC-PVTZ AUX)
    Blend: AUG-CC-PVTZ-RI
    Molecular point group: c1

    Geometry (in Angstrom), charge = 0, multiplicity = 1:

       Center              X                  Y                   Z               Mass
    ------------   -----------------  -----------------  -----------------  -----------------
         O           -0.915419982940     1.125920453938    -0.705968711890    15.994914619570
         C            0.693025417060    -0.260488546062     0.386396788110    12.000000000000
         C            1.192046017060    -1.266812346062    -0.667463711890    12.000000000000
         C            1.600441017060     0.942960653938     0.497827288110    12.000000000000
         C           -0.722379982940     0.150520653938     0.014784288110    12.000000000000
         C           -1.855550982940    -0.703300346062     0.530636288110    12.000000000000
         H            0.648847017060    -0.787409346062     1.361018288110     1.007825032230
         H            1.218002017060    -0.783872346062    -1.646895711890     1.007825032230
         H            2.202712017060    -1.603504346062    -0.419491711890     1.007825032230
         H            0.548848017060    -2.147877346062    -0.735548711890     1.007825032230
         H            1.249490017060     1.640565653938     1.263357288110     1.007825032230
         H            1.619870017060     1.476011653938    -0.452622711890     1.007825032230
         H            2.617145017060     0.634487653938     0.755206288110     1.007825032230
         H           -1.682676982940    -1.762981346062     0.285837288110     1.007825032230
         H           -2.796130982940    -0.365082346062     0.092164288110     1.007825032230
         H           -1.904143982940    -0.630020346062     1.626053288110     1.007825032230

  Basis Set: AUG-CC-PVTZ
    Blend: AUG-CC-PVTZ
  Basis Set: (AUG-CC-PVTZ AUX)
    Blend: AUG-CC-PVTZ-JKFIT
	 Reference Energy          =    -270.1281384035767132 [Eh]
	 Singles Energy            =      -0.0000000000000000 [Eh]
	 Same-Spin Energy          =      -0.2742747136897644 [Eh]
	 Opposite-Spin Energy      =      -0.9491050353187465 [Eh]
	 Correlation Energy        =      -1.2233797490085108 [Eh]
	 Total Energy              =    -271.3515181525852427 [Eh]

	 ================> DF-SCS-MP2 Energies <==================
	-----------------------------------------------------------
	 SCS Same-Spin Scale       =       0.3333333333333333 [-]
	 SCS Opposite-Spin Scale   =       1.2000000000000000 [-]
	 SCS Same-Spin Energy      =      -0.0914249045632548 [Eh]
	 SCS Opposite-Spin Energy  =      -1.1389260423824956 [Eh]
	 SCS Correlation Energy    =      -1.2303509469457503 [Eh]
	 SCS Total Energy          =    -271.3584893505224613 [Eh]
	-----------------------------------------------------------

  Dipole Moment: [D]
     X:     0.5770      Y:    -2.2793      Z:     1.5648     Total:     2.8243

*** Psi4 exiting successfully. Buy a developer a beer!
