                               Psi4 1.3.2 release

  ==> Input File <==

--------------------------------------------------------------------------
#psi4
#
memory 32 gb

molecule  {
0 1
  O       -0.9233460     1.1259790    -0.7064150
  C        0.7095212    -0.2274197     0.3650584
  C        1.1946870    -1.2650980    -0.6685790
  C        1.6030820     0.9446750     0.4967120
  C       -0.7197390     0.1522350     0.0136690
  C       -1.8869261    -0.6694629     0.5052753
  H        0.6514880    -0.7856950     1.3599030
  H        1.2206430    -0.7821580    -1.6480110
  H        2.2053530    -1.6017900    -0.4206070
  H        0.5514890    -2.1461630    -0.7366640
  H        1.2521310     1.6422800     1.2622420
  H        1.6225110     1.4777260    -0.4537380
  H        2.6197860     0.6362020     0.7540910
  H       -1.6800360    -1.7612670     0.2847220
  H       -2.7934900    -0.3633680     0.0910490
  H       -1.9015030    -0.6283060     1.6249380
units angstrom
no_reorient  #important for SAPT in psi4, default
symmetry c1  #important for SAPT in psi4, default
}

set PROPERTIES_ORIGIN ["COM"]
properties('MP2/aug-cc-pvtz', properties = ['dipole'])
--------------------------------------------------------------------------

    Molecular point group: c1
  Charge       = 0
  Multiplicity = 1
  Basis Set: AUG-CC-PVTZ
    Blend: AUG-CC-PVTZ
  Basis Set: (AUG-CC-PVTZ AUX)
    Blend: AUG-CC-PVTZ-JKFIT

    Orbital Energies [Eh]
    ---------------------

    Doubly Occupied:

       1A    -20.539236     2A    -11.327419     3A    -11.246599
       4A    -11.238882     5A    -11.230238     6A    -11.214307
       7A     -1.373817     8A     -1.092918     9A     -1.005798
      10A     -0.943088    11A     -0.850384    12A     -0.718364
      13A     -0.663080    14A     -0.639999    15A     -0.609430
      16A     -0.593174    17A     -0.578076    18A     -0.551072
      19A     -0.546161    20A     -0.521977    21A     -0.503345
      22A     -0.480063    23A     -0.465165    24A     -0.405130

  @DF-RHF Final Energy:  -270.12160081168270

   => Energetics <=

    Nuclear Repulsion Energy =            245.1578282403217202
    One-Electron Energy =                -851.8834124957110134
    Two-Electron Energy =                 336.6039834437066247
    Total Energy =                       -270.1216008116826970
  Basis Set: (AUG-CC-PVTZ AUX)
    Blend: AUG-CC-PVTZ-RI
    Molecular point group: c1

    Geometry (in Angstrom), charge = 0, multiplicity = 1:

       Center              X                  Y                   Z               Mass
    ------------   -----------------  -----------------  -----------------  -----------------
         O           -0.921212511558     1.115722539553    -0.699224357248    15.994914619570
         C            0.711654688442    -0.237676160447     0.372249042752    12.000000000000
         C            1.196820488442    -1.275354460447    -0.661388357248    12.000000000000
         C            1.605215488442     0.934418539553     0.503902642752    12.000000000000
         C           -0.717605511558     0.141978539553     0.020859642752    12.000000000000
         C           -1.884792611558    -0.679719360447     0.512465942752    12.000000000000
         H            0.653621488442    -0.795951460447     1.367093642752     1.007825032230
         H            1.222776488442    -0.792414460447    -1.640820357248     1.007825032230
         H            2.207486488442    -1.612046460447    -0.413416357248     1.007825032230
         H            0.553622488442    -2.156419460447    -0.729473357248     1.007825032230
         H            1.254264488442     1.632023539553     1.269432642752     1.007825032230
         H            1.624644488442     1.467469539553    -0.446547357248     1.007825032230
         H            2.621919488442     0.625945539553     0.761281642752     1.007825032230
         H           -1.677902511558    -1.771523460447     0.291912642752     1.007825032230
         H           -2.791356511558    -0.373624460447     0.098239642752     1.007825032230
         H           -1.899369511558    -0.638562460447     1.632128642752     1.007825032230

  Basis Set: AUG-CC-PVTZ
    Blend: AUG-CC-PVTZ
  Basis Set: (AUG-CC-PVTZ AUX)
    Blend: AUG-CC-PVTZ-JKFIT
	 Reference Energy          =    -270.1216008116826970 [Eh]
	 Singles Energy            =      -0.0000000000000000 [Eh]
	 Same-Spin Energy          =      -0.2744351858834198 [Eh]
	 Opposite-Spin Energy      =      -0.9493567296079923 [Eh]
	 Correlation Energy        =      -1.2237919154914121 [Eh]
	 Total Energy              =    -271.3453927271741009 [Eh]

	 ================> DF-SCS-MP2 Energies <==================
	-----------------------------------------------------------
	 SCS Same-Spin Scale       =       0.3333333333333333 [-]
	 SCS Opposite-Spin Scale   =       1.2000000000000000 [-]
	 SCS Same-Spin Energy      =      -0.0914783952944732 [Eh]
	 SCS Opposite-Spin Energy  =      -1.1392280755295907 [Eh]
	 SCS Correlation Energy    =      -1.2307064708240640 [Eh]
	 SCS Total Energy          =    -271.3523072825067857 [Eh]
	-----------------------------------------------------------

  Dipole Moment: [D]
     X:     0.6086      Y:    -2.2627      Z:     1.5573     Total:     2.8134

*** Psi4 exiting successfully. Buy a developer a beer!
