                               Psi4 1.4a3.dev225

  ==> Input File <==

--------------------------------------------------------------------------
#psi4
#
memory 32 gb

molecule  {
0 1
  O        0.8586560    -1.1799710    -0.8389030
  C       -0.6220090     0.2405930     0.4084700
  C       -1.1011690     1.3295070    -0.5625920
  C       -1.6147530    -0.9146890     0.4753170
  C        0.7504505    -0.2785302    -0.0866085
  C        1.9534160     0.5043800     0.4706610
  H       -0.5088060     0.6902670     1.4041320
  H       -1.2062520     0.9086330    -1.5670350
  H       -2.0743030     1.7168190    -0.2469230
  H       -0.4032100     2.1709140    -0.6131640
  H       -1.2799510    -1.6832910     1.1776610
  H       -1.7123230    -1.3800890    -0.5076340
  H       -2.5969660    -0.5569830     0.7981250
  H        1.8130240     1.5867940     0.3929810
  H        2.8429500     0.2000390    -0.0822420
  H        2.0885060     0.2697440     1.5324280
units angstrom
no_reorient  #important for SAPT in psi4, default
symmetry c1  #important for SAPT in psi4, default
}

set PROPERTIES_ORIGIN ["COM"]
properties('MP2/aug-cc-pvtz', properties = ['dipole'])
--------------------------------------------------------------------------

    Molecular point group: c1
  Charge       = 0
  Multiplicity = 1
  Basis Set: AUG-CC-PVTZ
    Blend: AUG-CC-PVTZ
  Basis Set: (AUG-CC-PVTZ AUX)
    Blend: AUG-CC-PVTZ-JKFIT

    Orbital Energies [Eh]
    ---------------------

    Doubly Occupied:

       1A    -20.546707     2A    -11.325141     3A    -11.241006
       4A    -11.233126     5A    -11.227896     6A    -11.214703
       7A     -1.408867     8A     -1.085592     9A     -0.996933
      10A     -0.936851    11A     -0.843698    12A     -0.724839
      13A     -0.668990    14A     -0.633620    15A     -0.615432
      16A     -0.598803    17A     -0.570186    18A     -0.552367
      19A     -0.544556    20A     -0.521452    21A     -0.509198
      22A     -0.484679    23A     -0.479970    24A     -0.394648

  @DF-RHF Final Energy:  -270.12970070583265

   => Energetics <=

    Nuclear Repulsion Energy =            245.0224549315462070
    One-Electron Energy =                -851.5857933423475288
    Two-Electron Energy =                 336.4336377049686462
    Total Energy =                       -270.1297007058326471
  Basis Set: (AUG-CC-PVTZ AUX)
    Blend: AUG-CC-PVTZ-RI
    Molecular point group: c1

    Geometry (in Angstrom), charge = 0, multiplicity = 1:

       Center              X                  Y                   Z               Mass
    ------------   -----------------  -----------------  -----------------  -----------------
         O            0.823055389790    -1.129492289274    -0.808127129115    15.994914619570
         C           -0.657609610210     0.291071710726     0.439245870885    12.000000000000
         C           -1.136769610210     1.379985710726    -0.531816129115    12.000000000000
         C           -1.650353610210    -0.864210289274     0.506092870885    12.000000000000
         C            0.714849889790    -0.228051489274    -0.055832629115    12.000000000000
         C            1.917815389790     0.554858710726     0.501436870885    12.000000000000
         H           -0.544406610210     0.740745710726     1.434907870885     1.007825032230
         H           -1.241852610210     0.959111710726    -1.536259129115     1.007825032230
         H           -2.109903610210     1.767297710726    -0.216147129115     1.007825032230
         H           -0.438810610210     2.221392710726    -0.582388129115     1.007825032230
         H           -1.315551610210    -1.632812289274     1.208436870885     1.007825032230
         H           -1.747923610210    -1.329610289274    -0.476858129115     1.007825032230
         H           -2.632566610210    -0.506504289274     0.828900870885     1.007825032230
         H            1.777423389790     1.637272710726     0.423756870885     1.007825032230
         H            2.807349389790     0.250517710726    -0.051466129115     1.007825032230
         H            2.052905389790     0.320222710726     1.563203870885     1.007825032230

  Basis Set: AUG-CC-PVTZ
    Blend: AUG-CC-PVTZ
  Basis Set: (AUG-CC-PVTZ AUX)
    Blend: AUG-CC-PVTZ-JKFIT
	 Reference Energy          =    -270.1297007058326471 [Eh]
	 Singles Energy            =      -0.0000000000000000 [Eh]
	 Same-Spin Energy          =      -0.2728133918489820 [Eh]
	 Opposite-Spin Energy      =      -0.9462153536864337 [Eh]
	 Correlation Energy        =      -1.2190287455354156 [Eh]
	 Total Energy              =    -271.3487294513680581 [Eh]

	 ================> DF-SCS-MP2 Energies <==================
	-----------------------------------------------------------
	 SCS Same-Spin Scale       =       0.3333333333333333 [-]
	 SCS Opposite-Spin Scale   =       1.2000000000000000 [-]
	 SCS Same-Spin Energy      =      -0.0909377972829940 [Eh]
	 SCS Opposite-Spin Energy  =      -1.1354584244237205 [Eh]
	 SCS Correlation Energy    =      -1.2263962217067144 [Eh]
	 SCS Total Energy          =    -271.3560969275393404 [Eh]
	-----------------------------------------------------------

  Dipole Moment: [D]
     X:    -0.3731      Y:     2.0120      Z:     1.5970     Total:     2.5957

*** Psi4 exiting successfully. Buy a developer a beer!
