                               Psi4 1.4a3.dev225

  ==> Input File <==

--------------------------------------------------------------------------
#psi4
#
memory 32 gb

molecule  {
0 1
  O        0.8586560    -1.1799710    -0.8389030
  C       -0.6220090     0.2405930     0.4084700
  C       -1.1011690     1.3295070    -0.5625920
  C       -1.6147530    -0.9146890     0.4753170
  C        0.7009291    -0.2245071    -0.0394922
  C        1.9534160     0.5043800     0.4706610
  H       -0.5088060     0.6902670     1.4041320
  H       -1.2062520     0.9086330    -1.5670350
  H       -2.0743030     1.7168190    -0.2469230
  H       -0.4032100     2.1709140    -0.6131640
  H       -1.2799510    -1.6832910     1.1776610
  H       -1.7123230    -1.3800890    -0.5076340
  H       -2.5969660    -0.5569830     0.7981250
  H        1.8130240     1.5867940     0.3929810
  H        2.8429500     0.2000390    -0.0822420
  H        2.0885060     0.2697440     1.5324280
units angstrom
no_reorient  #important for SAPT in psi4, default
symmetry c1  #important for SAPT in psi4, default
}

set PROPERTIES_ORIGIN ["COM"]
properties('MP2/aug-cc-pvtz', properties = ['dipole'])
--------------------------------------------------------------------------

    Molecular point group: c1
  Charge       = 0
  Multiplicity = 1
  Basis Set: AUG-CC-PVTZ
    Blend: AUG-CC-PVTZ
  Basis Set: (AUG-CC-PVTZ AUX)
    Blend: AUG-CC-PVTZ-JKFIT

    Orbital Energies [Eh]
    ---------------------

    Doubly Occupied:

       1A    -20.539593     2A    -11.331434     3A    -11.244721
       4A    -11.236548     5A    -11.233407     6A    -11.218301
       7A     -1.355810     8A     -1.099477     9A     -0.999440
      10A     -0.941402    11A     -0.862316    12A     -0.723050
      13A     -0.662939    14A     -0.633510    15A     -0.610199
      16A     -0.587918    17A     -0.570432    18A     -0.555542
      19A     -0.546224    20A     -0.517271    21A     -0.501104
      22A     -0.487580    23A     -0.463530    24A     -0.409329

  @DF-RHF Final Energy:  -270.12256625566505

   => Energetics <=

    Nuclear Repulsion Energy =            244.8530663975645325
    One-Electron Energy =                -851.2891041719435634
    Two-Electron Energy =                 336.3134715187139250
    Total Energy =                       -270.1225662556650491
  Basis Set: (AUG-CC-PVTZ AUX)
    Blend: AUG-CC-PVTZ-RI
    Molecular point group: c1

    Geometry (in Angstrom), charge = 0, multiplicity = 1:

       Center              X                  Y                   Z               Mass
    ------------   -----------------  -----------------  -----------------  -----------------
         O            0.829959478892    -1.137023988619    -0.814695908134    15.994914619570
         C           -0.650705521108     0.283540011381     0.432677091866    12.000000000000
         C           -1.129865521108     1.372454011381    -0.538384908134    12.000000000000
         C           -1.643449521108    -0.871741988619     0.499524091866    12.000000000000
         C            0.672232578892    -0.181560088619    -0.015285108134    12.000000000000
         C            1.924719478892     0.547327011381     0.494868091866    12.000000000000
         H           -0.537502521108     0.733214011381     1.428339091866     1.007825032230
         H           -1.234948521108     0.951580011381    -1.542827908134     1.007825032230
         H           -2.102999521108     1.759766011381    -0.222715908134     1.007825032230
         H           -0.431906521108     2.213861011381    -0.588956908134     1.007825032230
         H           -1.308647521108    -1.640343988619     1.201868091866     1.007825032230
         H           -1.741019521108    -1.337141988619    -0.483426908134     1.007825032230
         H           -2.625662521108    -0.514035988619     0.822332091866     1.007825032230
         H            1.784327478892     1.629741011381     0.417188091866     1.007825032230
         H            2.814253478892     0.242986011381    -0.058034908134     1.007825032230
         H            2.059809478892     0.312691011381     1.556635091866     1.007825032230

  Basis Set: AUG-CC-PVTZ
    Blend: AUG-CC-PVTZ
  Basis Set: (AUG-CC-PVTZ AUX)
    Blend: AUG-CC-PVTZ-JKFIT
	 Reference Energy          =    -270.1225662556650491 [Eh]
	 Singles Energy            =      -0.0000000000000000 [Eh]
	 Same-Spin Energy          =      -0.2751159206354372 [Eh]
	 Opposite-Spin Energy      =      -0.9509508677402863 [Eh]
	 Correlation Energy        =      -1.2260667883757235 [Eh]
	 Total Energy              =    -271.3486330440407528 [Eh]

	 ================> DF-SCS-MP2 Energies <==================
	-----------------------------------------------------------
	 SCS Same-Spin Scale       =       0.3333333333333333 [-]
	 SCS Opposite-Spin Scale   =       1.2000000000000000 [-]
	 SCS Same-Spin Energy      =      -0.0917053068784791 [Eh]
	 SCS Opposite-Spin Energy  =      -1.1411410412883434 [Eh]
	 SCS Correlation Energy    =      -1.2328463481668224 [Eh]
	 SCS Total Energy          =    -271.3554126038318941 [Eh]
	-----------------------------------------------------------

  Dipole Moment: [D]
     X:    -0.6251      Y:     2.2738      Z:     1.7730     Total:     2.9503

*** Psi4 exiting successfully. Buy a developer a beer!
