                               Psi4 1.3.2 release

  ==> Input File <==

--------------------------------------------------------------------------
#psi4
#
memory 32 gb

molecule  {
0 1
  O       -0.9233460     1.1259790    -0.7064150
  C        0.6908080    -0.2688650     0.3923890
  C        1.1946870    -1.2650980    -0.6685790
  C        1.6030820     0.9446750     0.4967120
  C       -0.6269398     0.1245310     0.0385848
  C       -1.8529100    -0.7015860     0.5295210
  H        0.6514880    -0.7856950     1.3599030
  H        1.2206430    -0.7821580    -1.6480110
  H        2.2053530    -1.6017900    -0.4206070
  H        0.5514890    -2.1461630    -0.7366640
  H        1.2521310     1.6422800     1.2622420
  H        1.6225110     1.4777260    -0.4537380
  H        2.6197860     0.6362020     0.7540910
  H       -1.6800360    -1.7612670     0.2847220
  H       -2.7934900    -0.3633680     0.0910490
  H       -1.9015030    -0.6283060     1.6249380
units angstrom
no_reorient  #important for SAPT in psi4, default
symmetry c1  #important for SAPT in psi4, default
}

set PROPERTIES_ORIGIN ["COM"]
properties('MP2/aug-cc-pvtz', properties = ['dipole'])
--------------------------------------------------------------------------

    Molecular point group: c1
  Charge       = 0
  Multiplicity = 1
  Basis Set: AUG-CC-PVTZ
    Blend: AUG-CC-PVTZ
  Basis Set: (AUG-CC-PVTZ AUX)
    Blend: AUG-CC-PVTZ-JKFIT

    Orbital Energies [Eh]
    ---------------------

    Doubly Occupied:

       1A    -20.536579     2A    -11.333118     3A    -11.244789
       4A    -11.238065     5A    -11.237255     6A    -11.219941
       7A     -1.339085     8A     -1.109811     9A     -0.993664
      10A     -0.945295    11A     -0.873607    12A     -0.723503
      13A     -0.662232    14A     -0.633824    15A     -0.609663
      16A     -0.583334    17A     -0.567303    18A     -0.555502
      19A     -0.547779    20A     -0.519352    21A     -0.503355
      22A     -0.489020    23A     -0.453919    24A     -0.410021

  @DF-RHF Final Energy:  -270.10988544162024

   => Energetics <=

    Nuclear Repulsion Energy =            245.2078384374758286
    One-Electron Energy =                -851.9754174729678198
    Two-Electron Energy =                 336.6576935938717270
    Total Energy =                       -270.1098854416202357
  Basis Set: (AUG-CC-PVTZ AUX)
    Blend: AUG-CC-PVTZ-RI
    Molecular point group: c1

    Geometry (in Angstrom), charge = 0, multiplicity = 1:

       Center              X                  Y                   Z               Mass
    ------------   -----------------  -----------------  -----------------  -----------------
         O           -0.936283703617     1.129841560282    -0.709888600867    15.994914619570
         C            0.677870296383    -0.265002439718     0.388915399133    12.000000000000
         C            1.181749296383    -1.261235439718    -0.672052600867    12.000000000000
         C            1.590144296383     0.948537560282     0.493238399133    12.000000000000
         C           -0.639877503617     0.128393560282     0.035111199133    12.000000000000
         C           -1.865847703617    -0.697723439718     0.526047399133    12.000000000000
         H            0.638550296383    -0.781832439718     1.356429399133     1.007825032230
         H            1.207705296383    -0.778295439718    -1.651484600867     1.007825032230
         H            2.192415296383    -1.597927439718    -0.424080600867     1.007825032230
         H            0.538551296383    -2.142300439718    -0.740137600867     1.007825032230
         H            1.239193296383     1.646142560282     1.258768399133     1.007825032230
         H            1.609573296383     1.481588560282    -0.457211600867     1.007825032230
         H            2.606848296383     0.640064560282     0.750617399133     1.007825032230
         H           -1.692973703617    -1.757404439718     0.281248399133     1.007825032230
         H           -2.806427703617    -0.359505439718     0.087575399133     1.007825032230
         H           -1.914440703617    -0.624443439718     1.621464399133     1.007825032230

  Basis Set: AUG-CC-PVTZ
    Blend: AUG-CC-PVTZ
  Basis Set: (AUG-CC-PVTZ AUX)
    Blend: AUG-CC-PVTZ-JKFIT
	 Reference Energy          =    -270.1098854416202357 [Eh]
	 Singles Energy            =      -0.0000000000000000 [Eh]
	 Same-Spin Energy          =      -0.2763825248857237 [Eh]
	 Opposite-Spin Energy      =      -0.9533416859116119 [Eh]
	 Correlation Energy        =      -1.2297242107973356 [Eh]
	 Total Energy              =    -271.3396096524175505 [Eh]

	 ================> DF-SCS-MP2 Energies <==================
	-----------------------------------------------------------
	 SCS Same-Spin Scale       =       0.3333333333333333 [-]
	 SCS Opposite-Spin Scale   =       1.2000000000000000 [-]
	 SCS Same-Spin Energy      =      -0.0921275082952412 [Eh]
	 SCS Opposite-Spin Energy  =      -1.1440100230939343 [Eh]
	 SCS Correlation Energy    =      -1.2361375313891756 [Eh]
	 SCS Total Energy          =    -271.3460229730094397 [Eh]
	-----------------------------------------------------------

  Dipole Moment: [D]
     X:     1.0705      Y:    -2.3979      Z:     1.6073     Total:     3.0789

*** Psi4 exiting successfully. Buy a developer a beer!
