                               Psi4 1.3.2 release

  ==> Input File <==

--------------------------------------------------------------------------
#psi4
#
memory 32 gb

molecule  {
0 1
  O       -0.9233460     1.1259790    -0.7064150
  C        0.6908080    -0.2688650     0.3923890
  C        1.1946870    -1.2650980    -0.6685790
  C        1.6030820     0.9446750     0.4967120
  C       -0.7256902     0.1629502     0.0184998
  C       -1.8529100    -0.7015860     0.5295210
  H        0.6514880    -0.7856950     1.3599030
  H        1.2206430    -0.7821580    -1.6480110
  H        2.2053530    -1.6017900    -0.4206070
  H        0.5514890    -2.1461630    -0.7366640
  H        1.2521310     1.6422800     1.2622420
  H        1.6225110     1.4777260    -0.4537380
  H        2.6197860     0.6362020     0.7540910
  H       -1.6883086    -1.7635697     0.2890366
  H       -2.7934900    -0.3633680     0.0910490
  H       -1.9015030    -0.6283060     1.6249380
units angstrom
no_reorient  #important for SAPT in psi4, default
symmetry c1  #important for SAPT in psi4, default
}

set PROPERTIES_ORIGIN ["COM"]
properties('MP2/aug-cc-pvtz', properties = ['dipole'])
--------------------------------------------------------------------------

    Molecular point group: c1
  Charge       = 0
  Multiplicity = 1
  Basis Set: AUG-CC-PVTZ
    Blend: AUG-CC-PVTZ
  Basis Set: (AUG-CC-PVTZ AUX)
    Blend: AUG-CC-PVTZ-JKFIT

    Orbital Energies [Eh]
    ---------------------

    Doubly Occupied:

       1A    -20.542980     2A    -11.327963     3A    -11.242765
       4A    -11.236589     5A    -11.229482     6A    -11.214753
       7A     -1.378771     8A     -1.089214     9A     -1.004802
      10A     -0.938506    11A     -0.849148    12A     -0.723578
      13A     -0.665124    14A     -0.632897    15A     -0.611988
      16A     -0.595322    17A     -0.571903    18A     -0.553608
      19A     -0.545385    20A     -0.516112    21A     -0.501100
      22A     -0.485301    23A     -0.472979    24A     -0.404273

  @DF-RHF Final Energy:  -270.12903789249566

   => Energetics <=

    Nuclear Repulsion Energy =            244.9299914980431936
    One-Electron Energy =                -851.4489697756686155
    Two-Electron Energy =                 336.3899403851297052
    Total Energy =                       -270.1290378924956599
  Basis Set: (AUG-CC-PVTZ AUX)
    Blend: AUG-CC-PVTZ-RI
    Molecular point group: c1

    Geometry (in Angstrom), charge = 0, multiplicity = 1:

       Center              X                  Y                   Z               Mass
    ------------   -----------------  -----------------  -----------------  -----------------
         O           -0.922419427403     1.124512260707    -0.707138944360    15.994914619570
         C            0.691734572597    -0.270331739293     0.391665055640    12.000000000000
         C            1.195613572597    -1.266564739293    -0.669302944360    12.000000000000
         C            1.604008572597     0.943208260707     0.495988055640    12.000000000000
         C           -0.724763627403     0.161483460707     0.017775855640    12.000000000000
         C           -1.851983427403    -0.703052739293     0.528797055640    12.000000000000
         H            0.652414572597    -0.787161739293     1.359179055640     1.007825032230
         H            1.221569572597    -0.783624739293    -1.648734944360     1.007825032230
         H            2.206279572597    -1.603256739293    -0.421330944360     1.007825032230
         H            0.552415572597    -2.147629739293    -0.737387944360     1.007825032230
         H            1.253057572597     1.640813260707     1.261518055640     1.007825032230
         H            1.623437572597     1.476259260707    -0.454461944360     1.007825032230
         H            2.620712572597     0.634735260707     0.753367055640     1.007825032230
         H           -1.687382027403    -1.765036439293     0.288312655640     1.007825032230
         H           -2.792563427403    -0.364834739293     0.090325055640     1.007825032230
         H           -1.900576427403    -0.629772739293     1.624214055640     1.007825032230

  Basis Set: AUG-CC-PVTZ
    Blend: AUG-CC-PVTZ
  Basis Set: (AUG-CC-PVTZ AUX)
    Blend: AUG-CC-PVTZ-JKFIT
	 Reference Energy          =    -270.1290378924956599 [Eh]
	 Singles Energy            =      -0.0000000000000000 [Eh]
	 Same-Spin Energy          =      -0.2739976547662882 [Eh]
	 Opposite-Spin Energy      =      -0.9486232359861995 [Eh]
	 Correlation Energy        =      -1.2226208907524878 [Eh]
	 Total Energy              =    -271.3516587832481264 [Eh]

	 ================> DF-SCS-MP2 Energies <==================
	-----------------------------------------------------------
	 SCS Same-Spin Scale       =       0.3333333333333333 [-]
	 SCS Opposite-Spin Scale   =       1.2000000000000000 [-]
	 SCS Same-Spin Energy      =      -0.0913325515887627 [Eh]
	 SCS Opposite-Spin Energy  =      -1.1383478831834393 [Eh]
	 SCS Correlation Energy    =      -1.2296804347722019 [Eh]
	 SCS Total Energy          =    -271.3587183272678658 [Eh]
	-----------------------------------------------------------

  Dipole Moment: [D]
     X:     0.5800      Y:    -2.2587      Z:     1.5543     Total:     2.8025

*** Psi4 exiting successfully. Buy a developer a beer!
