                               Psi4 1.3.2 release

  ==> Input File <==

--------------------------------------------------------------------------
#psi4
#
memory 32 gb

molecule  {
0 1
  O       -0.9233460     1.1259790    -0.7064150
  C        0.6703763    -0.3097973     0.4192582
  C        1.1946870    -1.2650980    -0.6685790
  C        1.6030820     0.9446750     0.4967120
  C       -0.7197390     0.1522350     0.0136690
  C       -1.8175133    -0.7326688     0.5531382
  H        0.6514880    -0.7856950     1.3599030
  H        1.2206430    -0.7821580    -1.6480110
  H        2.2053530    -1.6017900    -0.4206070
  H        0.5514890    -2.1461630    -0.7366640
  H        1.2521310     1.6422800     1.2622420
  H        1.6225110     1.4777260    -0.4537380
  H        2.6197860     0.6362020     0.7540910
  H       -1.6800360    -1.7612670     0.2847220
  H       -2.7934900    -0.3633680     0.0910490
  H       -1.9015030    -0.6283060     1.6249380
units angstrom
no_reorient  #important for SAPT in psi4, default
symmetry c1  #important for SAPT in psi4, default
}

set PROPERTIES_ORIGIN ["COM"]
properties('MP2/aug-cc-pvtz', properties = ['dipole'])
--------------------------------------------------------------------------

    Molecular point group: c1
  Charge       = 0
  Multiplicity = 1
  Basis Set: AUG-CC-PVTZ
    Blend: AUG-CC-PVTZ
  Basis Set: (AUG-CC-PVTZ AUX)
    Blend: AUG-CC-PVTZ-JKFIT

    Orbital Energies [Eh]
    ---------------------

    Doubly Occupied:

       1A    -20.545257     2A    -11.329999     3A    -11.240561
       4A    -11.235883     5A    -11.230217     6A    -11.216165
       7A     -1.374858     8A     -1.089660     9A     -1.004571
      10A     -0.935019    11A     -0.851971    12A     -0.730202
      13A     -0.666609    14A     -0.627916    15A     -0.617062
      16A     -0.598107    17A     -0.561802    18A     -0.557506
      19A     -0.544674    20A     -0.513008    21A     -0.500892
      22A     -0.490778    23A     -0.467071    24A     -0.404552

  @DF-RHF Final Energy:  -270.12214296966295

   => Energetics <=

    Nuclear Repulsion Energy =            244.7747384109499933
    One-Electron Energy =                -851.1250821246893565
    Two-Electron Energy =                 336.2282007440763891
    Total Energy =                       -270.1221429696629457
  Basis Set: (AUG-CC-PVTZ AUX)
    Blend: AUG-CC-PVTZ-RI
    Molecular point group: c1

    Geometry (in Angstrom), charge = 0, multiplicity = 1:

       Center              X                  Y                   Z               Mass
    ------------   -----------------  -----------------  -----------------  -----------------
         O           -0.925432349416     1.136019248768    -0.713453558659    15.994914619570
         C            0.668289950584    -0.299757051232     0.412219641341    12.000000000000
         C            1.192600650584    -1.255057751232    -0.675617558659    12.000000000000
         C            1.600995650584     0.954715248768     0.489673441341    12.000000000000
         C           -0.721825349416     0.162275248768     0.006630441341    12.000000000000
         C           -1.819599649416    -0.722628551232     0.546099641341    12.000000000000
         H            0.649401650584    -0.775654751232     1.352864441341     1.007825032230
         H            1.218556650584    -0.772117751232    -1.655049558659     1.007825032230
         H            2.203266650584    -1.591749751232    -0.427645558659     1.007825032230
         H            0.549402650584    -2.136122751232    -0.743702558659     1.007825032230
         H            1.250044650584     1.652320248768     1.255203441341     1.007825032230
         H            1.620424650584     1.487766248768    -0.460776558659     1.007825032230
         H            2.617699650584     0.646242248768     0.747052441341     1.007825032230
         H           -1.682122349416    -1.751226751232     0.277683441341     1.007825032230
         H           -2.795576349416    -0.353327751232     0.084010441341     1.007825032230
         H           -1.903589349416    -0.618265751232     1.617899441341     1.007825032230

  Basis Set: AUG-CC-PVTZ
    Blend: AUG-CC-PVTZ
  Basis Set: (AUG-CC-PVTZ AUX)
    Blend: AUG-CC-PVTZ-JKFIT
	 Reference Energy          =    -270.1221429696629457 [Eh]
	 Singles Energy            =      -0.0000000000000000 [Eh]
	 Same-Spin Energy          =      -0.2742867407382922 [Eh]
	 Opposite-Spin Energy      =      -0.9494612124073617 [Eh]
	 Correlation Energy        =      -1.2237479531456539 [Eh]
	 Total Energy              =    -271.3458909228086213 [Eh]

	 ================> DF-SCS-MP2 Energies <==================
	-----------------------------------------------------------
	 SCS Same-Spin Scale       =       0.3333333333333333 [-]
	 SCS Opposite-Spin Scale   =       1.2000000000000000 [-]
	 SCS Same-Spin Energy      =      -0.0914289135794307 [Eh]
	 SCS Opposite-Spin Energy  =      -1.1393534548888340 [Eh]
	 SCS Correlation Energy    =      -1.2307823684682648 [Eh]
	 SCS Total Energy          =    -271.3529253381312287 [Eh]
	-----------------------------------------------------------

  Dipole Moment: [D]
     X:     0.6274      Y:    -2.2879      Z:     1.5664     Total:     2.8429

*** Psi4 exiting successfully. Buy a developer a beer!
