                               Psi4 1.3.2 release

  ==> Input File <==

--------------------------------------------------------------------------
#psi4
#
memory 32 gb

molecule  {
0 1
  O       -0.9233460     1.1259790    -0.7064150
  C        0.6908080    -0.2688650     0.3923890
  C        1.2411075    -1.2687760    -0.6417172
  C        1.6030820     0.9446750     0.4967120
  C       -0.7210233     0.1832725     0.0566793
  C       -1.8529100    -0.7015860     0.5295210
  H        0.6514880    -0.7856950     1.3599030
  H        1.2206430    -0.7821580    -1.6480110
  H        2.2053530    -1.6017900    -0.4206070
  H        0.5514890    -2.1461630    -0.7366640
  H        1.2521310     1.6422800     1.2622420
  H        1.6225110     1.4777260    -0.4537380
  H        2.6197860     0.6362020     0.7540910
  H       -1.6800360    -1.7612670     0.2847220
  H       -2.7934900    -0.3633680     0.0910490
  H       -1.9015030    -0.6283060     1.6249380
units angstrom
no_reorient  #important for SAPT in psi4, default
symmetry c1  #important for SAPT in psi4, default
}

set PROPERTIES_ORIGIN ["COM"]
properties('MP2/aug-cc-pvtz', properties = ['dipole'])
--------------------------------------------------------------------------

    Molecular point group: c1
  Charge       = 0
  Multiplicity = 1
  Basis Set: AUG-CC-PVTZ
    Blend: AUG-CC-PVTZ
  Basis Set: (AUG-CC-PVTZ AUX)
    Blend: AUG-CC-PVTZ-JKFIT

    Orbital Energies [Eh]
    ---------------------

    Doubly Occupied:

       1A    -20.543937     2A    -11.329893     3A    -11.243257
       4A    -11.237160     5A    -11.230717     6A    -11.214479
       7A     -1.374343     8A     -1.090156     9A     -1.004936
      10A     -0.938388    11A     -0.852447    12A     -0.722767
      13A     -0.664857    14A     -0.631122    15A     -0.613912
      16A     -0.592998    17A     -0.574385    18A     -0.559991
      19A     -0.541867    20A     -0.517877    21A     -0.497861
      22A     -0.480808    23A     -0.469577    24A     -0.407608

  @DF-RHF Final Energy:  -270.12315420301508

   => Energetics <=

    Nuclear Repulsion Energy =            244.6673333003031132
    One-Electron Energy =                -850.9102916943385253
    Two-Electron Energy =                 336.1198041910203642
    Total Energy =                       -270.1231542030150763
  Basis Set: (AUG-CC-PVTZ AUX)
    Blend: AUG-CC-PVTZ-RI
    Molecular point group: c1

    Geometry (in Angstrom), charge = 0, multiplicity = 1:

       Center              X                  Y                   Z               Mass
    ------------   -----------------  -----------------  -----------------  -----------------
         O           -0.929638705720     1.122164812245    -0.716156240734    15.994914619570
         C            0.684515294280    -0.272679187755     0.382647759266    12.000000000000
         C            1.234814794280    -1.272590187755    -0.651458440734    12.000000000000
         C            1.596789294280     0.940860812245     0.486970759266    12.000000000000
         C           -0.727316005720     0.179458312245     0.046938059266    12.000000000000
         C           -1.859202705720    -0.705400187755     0.519779759266    12.000000000000
         H            0.645195294280    -0.789509187755     1.350161759266     1.007825032230
         H            1.214350294280    -0.785972187755    -1.657752240734     1.007825032230
         H            2.199060294280    -1.605604187755    -0.430348240734     1.007825032230
         H            0.545196294280    -2.149977187755    -0.746405240734     1.007825032230
         H            1.245838294280     1.638465812245     1.252500759266     1.007825032230
         H            1.616218294280     1.473911812245    -0.463479240734     1.007825032230
         H            2.613493294280     0.632387812245     0.744349759266     1.007825032230
         H           -1.686328705720    -1.765081187755     0.274980759266     1.007825032230
         H           -2.799782705720    -0.367182187755     0.081307759266     1.007825032230
         H           -1.907795705720    -0.632120187755     1.615196759266     1.007825032230

  Basis Set: AUG-CC-PVTZ
    Blend: AUG-CC-PVTZ
  Basis Set: (AUG-CC-PVTZ AUX)
    Blend: AUG-CC-PVTZ-JKFIT
	 Reference Energy          =    -270.1231542030150763 [Eh]
	 Singles Energy            =      -0.0000000000000000 [Eh]
	 Same-Spin Energy          =      -0.2742749841654721 [Eh]
	 Opposite-Spin Energy      =      -0.9494711707562740 [Eh]
	 Correlation Energy        =      -1.2237461549217461 [Eh]
	 Total Energy              =    -271.3469003579368177 [Eh]

	 ================> DF-SCS-MP2 Energies <==================
	-----------------------------------------------------------
	 SCS Same-Spin Scale       =       0.3333333333333333 [-]
	 SCS Opposite-Spin Scale   =       1.2000000000000000 [-]
	 SCS Same-Spin Energy      =      -0.0914249947218240 [Eh]
	 SCS Opposite-Spin Energy  =      -1.1393654049075288 [Eh]
	 SCS Correlation Energy    =      -1.2307903996293528 [Eh]
	 SCS Total Energy          =    -271.3539446026444466 [Eh]
	-----------------------------------------------------------

  Dipole Moment: [D]
     X:     0.6071      Y:    -2.2596      Z:     1.5698     Total:     2.8175

*** Psi4 exiting successfully. Buy a developer a beer!
