                               Psi4 1.3.2 release

  ==> Input File <==

--------------------------------------------------------------------------
#psi4
#
memory 32 gb

molecule  {
0 1
  O       -0.9233460     1.1259790    -0.7064150
  C        0.6908080    -0.2688650     0.3923890
  C        1.2063519    -1.2661315    -0.6619835
  C        1.6030820     0.9446750     0.4967120
  C       -0.7202213     0.1600440     0.0243804
  C       -1.8529100    -0.7015860     0.5295210
  H        0.6514880    -0.7856950     1.3599030
  H        1.2206430    -0.7821580    -1.6480110
  H        2.2053530    -1.6017900    -0.4206070
  H        0.5514890    -2.1461630    -0.7366640
  H        1.2521310     1.6422800     1.2622420
  H        1.6225110     1.4777260    -0.4537380
  H        2.6197860     0.6362020     0.7540910
  H       -1.6800360    -1.7612670     0.2847220
  H       -2.7934900    -0.3633680     0.0910490
  H       -1.9015030    -0.6283060     1.6249380
units angstrom
no_reorient  #important for SAPT in psi4, default
symmetry c1  #important for SAPT in psi4, default
}

set PROPERTIES_ORIGIN ["COM"]
properties('MP2/aug-cc-pvtz', properties = ['dipole'])
--------------------------------------------------------------------------

    Molecular point group: c1
  Charge       = 0
  Multiplicity = 1
  Basis Set: AUG-CC-PVTZ
    Blend: AUG-CC-PVTZ
  Basis Set: (AUG-CC-PVTZ AUX)
    Blend: AUG-CC-PVTZ-JKFIT

    Orbital Energies [Eh]
    ---------------------

    Doubly Occupied:

       1A    -20.542543     2A    -11.328622     3A    -11.243088
       4A    -11.236915     5A    -11.230020     6A    -11.214978
       7A     -1.374338     8A     -1.090441     9A     -1.005012
      10A     -0.938720    11A     -0.851089    12A     -0.723196
      13A     -0.664642    14A     -0.632474    15A     -0.612270
      16A     -0.593565    17A     -0.572422    18A     -0.555010
      19A     -0.545589    20A     -0.516455    21A     -0.499988
      22A     -0.484545    23A     -0.471075    24A     -0.406055

  @DF-RHF Final Energy:  -270.12818231513421

   => Energetics <=

    Nuclear Repulsion Energy =            244.8847387279603822
    One-Electron Energy =                -851.3597392889779485
    Two-Electron Energy =                 336.3468182458834121
    Total Energy =                       -270.1281823151342110
  Basis Set: (AUG-CC-PVTZ AUX)
    Blend: AUG-CC-PVTZ-RI
    Molecular point group: c1

    Geometry (in Angstrom), charge = 0, multiplicity = 1:

       Center              X                  Y                   Z               Mass
    ------------   -----------------  -----------------  -----------------  -----------------
         O           -0.924905021299     1.125034556841    -0.708827796376    15.994914619570
         C            0.689248978701    -0.269809443159     0.389976203624    12.000000000000
         C            1.204792878701    -1.267075943159    -0.664396296376    12.000000000000
         C            1.601522978701     0.943730556841     0.494299203624    12.000000000000
         C           -0.721780321299     0.159099556841     0.021967603624    12.000000000000
         C           -1.854469021299    -0.702530443159     0.527108203624    12.000000000000
         H            0.649928978701    -0.786639443159     1.357490203624     1.007825032230
         H            1.219083978701    -0.783102443159    -1.650423796376     1.007825032230
         H            2.203793978701    -1.602734443159    -0.423019796376     1.007825032230
         H            0.549929978701    -2.147107443159    -0.739076796376     1.007825032230
         H            1.250571978701     1.641335556841     1.259829203624     1.007825032230
         H            1.620951978701     1.476781556841    -0.456150796376     1.007825032230
         H            2.618226978701     0.635257556841     0.751678203624     1.007825032230
         H           -1.681595021299    -1.762211443159     0.282309203624     1.007825032230
         H           -2.795049021299    -0.364312443159     0.088636203624     1.007825032230
         H           -1.903062021299    -0.629250443159     1.622525203624     1.007825032230

  Basis Set: AUG-CC-PVTZ
    Blend: AUG-CC-PVTZ
  Basis Set: (AUG-CC-PVTZ AUX)
    Blend: AUG-CC-PVTZ-JKFIT
	 Reference Energy          =    -270.1281823151342110 [Eh]
	 Singles Energy            =      -0.0000000000000000 [Eh]
	 Same-Spin Energy          =      -0.2741869057337434 [Eh]
	 Opposite-Spin Energy      =      -0.9490449783140795 [Eh]
	 Correlation Energy        =      -1.2232318840478229 [Eh]
	 Total Energy              =    -271.3514141991820452 [Eh]

	 ================> DF-SCS-MP2 Energies <==================
	-----------------------------------------------------------
	 SCS Same-Spin Scale       =       0.3333333333333333 [-]
	 SCS Opposite-Spin Scale   =       1.2000000000000000 [-]
	 SCS Same-Spin Energy      =      -0.0913956352445811 [Eh]
	 SCS Opposite-Spin Energy  =      -1.1388539739768955 [Eh]
	 SCS Correlation Energy    =      -1.2302496092214765 [Eh]
	 SCS Total Energy          =    -271.3584319243556706 [Eh]
	-----------------------------------------------------------

  Dipole Moment: [D]
     X:     0.6099      Y:    -2.2756      Z:     1.5666     Total:     2.8293

*** Psi4 exiting successfully. Buy a developer a beer!
