                               Psi4 1.3.2 release

  ==> Input File <==

--------------------------------------------------------------------------
#psi4
#
memory 32 gb

molecule  {
0 1
  O       -0.9233460     1.1259790    -0.7064150
  C        0.6908080    -0.2688650     0.3923890
  C        1.1946870    -1.2650980    -0.6685790
  C        1.6030820     0.9446750     0.4967120
  C       -0.7080960     0.1306103     0.0041256
  C       -1.8529100    -0.7015860     0.5295210
  H        0.6514880    -0.7856950     1.3599030
  H        1.2206430    -0.7821580    -1.6480110
  H        2.2053530    -1.6017900    -0.4206070
  H        0.5514890    -2.1461630    -0.7366640
  H        1.2521310     1.6422800     1.2622420
  H        1.6225110     1.4777260    -0.4537380
  H        2.6197860     0.6362020     0.7540910
  H       -1.6635309    -1.7564196     0.2761491
  H       -2.7934900    -0.3633680     0.0910490
  H       -1.9015030    -0.6283060     1.6249380
units angstrom
no_reorient  #important for SAPT in psi4, default
symmetry c1  #important for SAPT in psi4, default
}

set PROPERTIES_ORIGIN ["COM"]
properties('MP2/aug-cc-pvtz', properties = ['dipole'])
--------------------------------------------------------------------------

    Molecular point group: c1
  Charge       = 0
  Multiplicity = 1
  Basis Set: AUG-CC-PVTZ
    Blend: AUG-CC-PVTZ
  Basis Set: (AUG-CC-PVTZ AUX)
    Blend: AUG-CC-PVTZ-JKFIT

    Orbital Energies [Eh]
    ---------------------

    Doubly Occupied:

       1A    -20.540551     2A    -11.329209     3A    -11.243802
       4A    -11.237541     5A    -11.230868     6A    -11.215987
       7A     -1.364792     8A     -1.093411     9A     -1.005424
      10A     -0.939863    11A     -0.853808    12A     -0.723150
      13A     -0.663438    14A     -0.633397    15A     -0.612198
      16A     -0.590525    17A     -0.571895    18A     -0.555519
      19A     -0.546227    20A     -0.515280    21A     -0.500213
      22A     -0.486201    23A     -0.467405    24A     -0.407389

  @DF-RHF Final Energy:  -270.12632652928676

   => Energetics <=

    Nuclear Repulsion Energy =            244.9889186593187844
    One-Electron Energy =                -851.5742998510235111
    Two-Electron Energy =                 336.4590546624179979
    Total Energy =                       -270.1263265292867572
  Basis Set: (AUG-CC-PVTZ AUX)
    Blend: AUG-CC-PVTZ-RI
    Molecular point group: c1

    Geometry (in Angstrom), charge = 0, multiplicity = 1:

       Center              X                  Y                   Z               Mass
    ------------   -----------------  -----------------  -----------------  -----------------
         O           -0.925162465683     1.128937249036    -0.704984048055    15.994914619570
         C            0.688991534317    -0.265906750964     0.393819951945    12.000000000000
         C            1.192870534317    -1.262139750964    -0.667148048055    12.000000000000
         C            1.601265534317     0.947633249036     0.498142951945    12.000000000000
         C           -0.709912465683     0.133568549036     0.005556551945    12.000000000000
         C           -1.854726465683    -0.698627750964     0.530951951945    12.000000000000
         H            0.649671534317    -0.782736750964     1.361333951945     1.007825032230
         H            1.218826534317    -0.779199750964    -1.646580048055     1.007825032230
         H            2.203536534317    -1.598831750964    -0.419176048055     1.007825032230
         H            0.549672534317    -2.143204750964    -0.735233048055     1.007825032230
         H            1.250314534317     1.645238249036     1.263672951945     1.007825032230
         H            1.620694534317     1.480684249036    -0.452307048055     1.007825032230
         H            2.617969534317     0.639160249036     0.755521951945     1.007825032230
         H           -1.665347365683    -1.753461350964     0.277580051945     1.007825032230
         H           -2.795306465683    -0.360409750964     0.092479951945     1.007825032230
         H           -1.903319465683    -0.625347750964     1.626368951945     1.007825032230

  Basis Set: AUG-CC-PVTZ
    Blend: AUG-CC-PVTZ
  Basis Set: (AUG-CC-PVTZ AUX)
    Blend: AUG-CC-PVTZ-JKFIT
	 Reference Energy          =    -270.1263265292867572 [Eh]
	 Singles Energy            =      -0.0000000000000000 [Eh]
	 Same-Spin Energy          =      -0.2746689264078955 [Eh]
	 Opposite-Spin Energy      =      -0.9499316143149156 [Eh]
	 Correlation Energy        =      -1.2246005407228111 [Eh]
	 Total Energy              =    -271.3509270700095612 [Eh]

	 ================> DF-SCS-MP2 Energies <==================
	-----------------------------------------------------------
	 SCS Same-Spin Scale       =       0.3333333333333333 [-]
	 SCS Opposite-Spin Scale   =       1.2000000000000000 [-]
	 SCS Same-Spin Energy      =      -0.0915563088026318 [Eh]
	 SCS Opposite-Spin Energy  =      -1.1399179371778987 [Eh]
	 SCS Correlation Energy    =      -1.2314742459805306 [Eh]
	 SCS Total Energy          =    -271.3578007752672647 [Eh]
	-----------------------------------------------------------

  Dipole Moment: [D]
     X:     0.6701      Y:    -2.3187      Z:     1.5877     Total:     2.8889

*** Psi4 exiting successfully. Buy a developer a beer!
