                               Psi4 1.3.2 release

  ==> Input File <==

--------------------------------------------------------------------------
#psi4
#
memory 32 gb

molecule  {
0 1
  O       -0.9233460     1.1259790    -0.7064150
  C        0.7182261    -0.2065204     0.3512304
  C        1.1946870    -1.2650980    -0.6685790
  C        1.6030820     0.9446750     0.4967120
  C       -0.7197390     0.1522350     0.0136690
  C       -1.9034035    -0.6530235     0.4929260
  H        0.6514880    -0.7856950     1.3599030
  H        1.2206430    -0.7821580    -1.6480110
  H        2.2053530    -1.6017900    -0.4206070
  H        0.5514890    -2.1461630    -0.7366640
  H        1.2521310     1.6422800     1.2622420
  H        1.6225110     1.4777260    -0.4537380
  H        2.6197860     0.6362020     0.7540910
  H       -1.6800360    -1.7612670     0.2847220
  H       -2.7934900    -0.3633680     0.0910490
  H       -1.9015030    -0.6283060     1.6249380
units angstrom
no_reorient  #important for SAPT in psi4, default
symmetry c1  #important for SAPT in psi4, default
}

set PROPERTIES_ORIGIN ["COM"]
properties('MP2/aug-cc-pvtz', properties = ['dipole'])
--------------------------------------------------------------------------

    Molecular point group: c1
  Charge       = 0
  Multiplicity = 1
  Basis Set: AUG-CC-PVTZ
    Blend: AUG-CC-PVTZ
  Basis Set: (AUG-CC-PVTZ AUX)
    Blend: AUG-CC-PVTZ-JKFIT

    Orbital Energies [Eh]
    ---------------------

    Doubly Occupied:

       1A    -20.537848     2A    -11.327253     3A    -11.248674
       4A    -11.240234     5A    -11.230602     6A    -11.213949
       7A     -1.373817     8A     -1.094602     9A     -1.006379
      10A     -0.945192    11A     -0.850581    12A     -0.716683
      13A     -0.662754    14A     -0.643729    15A     -0.609724
      16A     -0.595373    17A     -0.577846    18A     -0.549758
      19A     -0.546173    20A     -0.526007    21A     -0.504319
      22A     -0.477597    23A     -0.459347    24A     -0.404623

  @DF-RHF Final Energy:  -270.11296793232754

   => Energetics <=

    Nuclear Repulsion Energy =            245.2718611461769171
    One-Electron Energy =                -852.0835265262549001
    Two-Electron Energy =                 336.6986974477504759
    Total Energy =                       -270.1129679323275354
  Basis Set: (AUG-CC-PVTZ AUX)
    Blend: AUG-CC-PVTZ-RI
    Molecular point group: c1

    Geometry (in Angstrom), charge = 0, multiplicity = 1:

       Center              X                  Y                   Z               Mass
    ------------   -----------------  -----------------  -----------------  -----------------
         O           -0.920128898563     1.110516917100    -0.695574815603    15.994914619570
         C            0.721443201437    -0.221982482900     0.362070584397    12.000000000000
         C            1.197904101437    -1.280560082900    -0.657738815603    12.000000000000
         C            1.606299101437     0.929212917100     0.507552184397    12.000000000000
         C           -0.716521898563     0.136772917100     0.024509184397    12.000000000000
         C           -1.900186398563    -0.668485582900     0.503766184397    12.000000000000
         H            0.654705101437    -0.801157082900     1.370743184397     1.007825032230
         H            1.223860101437    -0.797620082900    -1.637170815603     1.007825032230
         H            2.208570101437    -1.617252082900    -0.409766815603     1.007825032230
         H            0.554706101437    -2.161625082900    -0.725823815603     1.007825032230
         H            1.255348101437     1.626817917100     1.273082184397     1.007825032230
         H            1.625728101437     1.462263917100    -0.442897815603     1.007825032230
         H            2.623003101437     0.620739917100     0.764931184397     1.007825032230
         H           -1.676818898563    -1.776729082900     0.295562184397     1.007825032230
         H           -2.790272898563    -0.378830082900     0.101889184397     1.007825032230
         H           -1.898285898563    -0.643768082900     1.635778184397     1.007825032230

  Basis Set: AUG-CC-PVTZ
    Blend: AUG-CC-PVTZ
  Basis Set: (AUG-CC-PVTZ AUX)
    Blend: AUG-CC-PVTZ-JKFIT
	 Reference Energy          =    -270.1129679323275354 [Eh]
	 Singles Energy            =      -0.0000000000000000 [Eh]
	 Same-Spin Energy          =      -0.2746676993762639 [Eh]
	 Opposite-Spin Energy      =      -0.9498127379230332 [Eh]
	 Correlation Energy        =      -1.2244804372992970 [Eh]
	 Total Energy              =    -271.3374483696268271 [Eh]

	 ================> DF-SCS-MP2 Energies <==================
	-----------------------------------------------------------
	 SCS Same-Spin Scale       =       0.3333333333333333 [-]
	 SCS Opposite-Spin Scale   =       1.2000000000000000 [-]
	 SCS Same-Spin Energy      =      -0.0915558997920880 [Eh]
	 SCS Opposite-Spin Energy  =      -1.1397752855076397 [Eh]
	 SCS Correlation Energy    =      -1.2313311852997277 [Eh]
	 SCS Total Energy          =    -271.3442991176272585 [Eh]
	-----------------------------------------------------------

  Dipole Moment: [D]
     X:     0.6133      Y:    -2.2507      Z:     1.5500     Total:     2.8008

*** Psi4 exiting successfully. Buy a developer a beer!
