                               Psi4 1.3.2 release

  ==> Input File <==

--------------------------------------------------------------------------
#psi4
#
memory 32 gb

molecule  {
0 1
  O       -0.9233460     1.1259790    -0.7064150
  C        0.6908080    -0.2688650     0.3923890
  C        1.1946870    -1.2650980    -0.6685790
  C        1.6030820     0.9446750     0.4967120
  C       -0.6901416     0.1837886    -0.0531217
  C       -1.8529100    -0.7015860     0.5295210
  H        0.7084327    -0.7927301     1.3567527
  H        1.2206430    -0.7821580    -1.6480110
  H        2.2053530    -1.6017900    -0.4206070
  H        0.5514890    -2.1461630    -0.7366640
  H        1.2521310     1.6422800     1.2622420
  H        1.6225110     1.4777260    -0.4537380
  H        2.6197860     0.6362020     0.7540910
  H       -1.6800360    -1.7612670     0.2847220
  H       -2.7934900    -0.3633680     0.0910490
  H       -1.9015030    -0.6283060     1.6249380
units angstrom
no_reorient  #important for SAPT in psi4, default
symmetry c1  #important for SAPT in psi4, default
}

set PROPERTIES_ORIGIN ["COM"]
properties('MP2/aug-cc-pvtz', properties = ['dipole'])
--------------------------------------------------------------------------

    Molecular point group: c1
  Charge       = 0
  Multiplicity = 1
  Basis Set: AUG-CC-PVTZ
    Blend: AUG-CC-PVTZ
  Basis Set: (AUG-CC-PVTZ AUX)
    Blend: AUG-CC-PVTZ-JKFIT

    Orbital Energies [Eh]
    ---------------------

    Doubly Occupied:

       1A    -20.548047     2A    -11.325302     3A    -11.241199
       4A    -11.231423     5A    -11.229094     6A    -11.215068
       7A     -1.416435     8A     -1.090617     9A     -0.986457
      10A     -0.939185    11A     -0.847000    12A     -0.727746
      13A     -0.673558    14A     -0.633653    15A     -0.615709
      16A     -0.595470    17A     -0.568301    18A     -0.551213
      19A     -0.547146    20A     -0.522459    21A     -0.512975
      22A     -0.485002    23A     -0.480820    24A     -0.392922

  @DF-RHF Final Energy:  -270.12548400079919

   => Energetics <=

    Nuclear Repulsion Energy =            245.4944895234989417
    One-Electron Energy =                -852.4863434361440113
    Two-Electron Energy =                 336.8663699118458794
    Total Energy =                       -270.1254840007991902
  Basis Set: (AUG-CC-PVTZ AUX)
    Blend: AUG-CC-PVTZ-RI
    Molecular point group: c1

    Geometry (in Angstrom), charge = 0, multiplicity = 1:

       Center              X                  Y                   Z               Mass
    ------------   -----------------  -----------------  -----------------  -----------------
         O           -0.928139105863     1.121662459971    -0.697066335624    15.994914619570
         C            0.686014894137    -0.273181540029     0.401737664376    12.000000000000
         C            1.189893894137    -1.269414540029    -0.659230335624    12.000000000000
         C            1.598288894137     0.940358459971     0.506060664376    12.000000000000
         C           -0.694934705863     0.179472059971    -0.043773035624    12.000000000000
         C           -1.857703105863    -0.705902540029     0.538869664376    12.000000000000
         H            0.703639594137    -0.797046640029     1.366101364376     1.007825032230
         H            1.215849894137    -0.786474540029    -1.638662335624     1.007825032230
         H            2.200559894137    -1.606106540029    -0.411258335624     1.007825032230
         H            0.546695894137    -2.150479540029    -0.727315335624     1.007825032230
         H            1.247337894137     1.637963459971     1.271590664376     1.007825032230
         H            1.617717894137     1.473409459971    -0.444389335624     1.007825032230
         H            2.614992894137     0.631885459971     0.763439664376     1.007825032230
         H           -1.684829105863    -1.765583540029     0.294070664376     1.007825032230
         H           -2.798283105863    -0.367684540029     0.100397664376     1.007825032230
         H           -1.906296105863    -0.632622540029     1.634286664376     1.007825032230

  Basis Set: AUG-CC-PVTZ
    Blend: AUG-CC-PVTZ
  Basis Set: (AUG-CC-PVTZ AUX)
    Blend: AUG-CC-PVTZ-JKFIT
	 Reference Energy          =    -270.1254840007991902 [Eh]
	 Singles Energy            =      -0.0000000000000000 [Eh]
	 Same-Spin Energy          =      -0.2728201314177975 [Eh]
	 Opposite-Spin Energy      =      -0.9461364016469955 [Eh]
	 Correlation Energy        =      -1.2189565330647931 [Eh]
	 Total Energy              =    -271.3444405338639740 [Eh]

	 ================> DF-SCS-MP2 Energies <==================
	-----------------------------------------------------------
	 SCS Same-Spin Scale       =       0.3333333333333333 [-]
	 SCS Opposite-Spin Scale   =       1.2000000000000000 [-]
	 SCS Same-Spin Energy      =      -0.0909400438059325 [Eh]
	 SCS Opposite-Spin Energy  =      -1.1353636819763946 [Eh]
	 SCS Correlation Energy    =      -1.2263037257823270 [Eh]
	 SCS Total Energy          =    -271.3517877265815059 [Eh]
	-----------------------------------------------------------

  Dipole Moment: [D]
     X:     0.7782      Y:    -2.0206      Z:     1.3819     Total:     2.5687

*** Psi4 exiting successfully. Buy a developer a beer!
