                               Psi4 1.3.2 release

  ==> Input File <==

--------------------------------------------------------------------------
#psi4
#
memory 32 gb

molecule  {
0 1
  O       -0.9233460     1.1259790    -0.7064150
  C        0.6908080    -0.2688650     0.3923890
  C        1.1239230    -1.2573070    -0.7064382
  C        1.6030820     0.9446750     0.4967120
  C       -0.7145914     0.1047288    -0.0499651
  C       -1.8529100    -0.7015860     0.5295210
  H        0.6514880    -0.7856950     1.3599030
  H        1.2206430    -0.7821580    -1.6480110
  H        2.2053530    -1.6017900    -0.4206070
  H        0.5514890    -2.1461630    -0.7366640
  H        1.2521310     1.6422800     1.2622420
  H        1.6225110     1.4777260    -0.4537380
  H        2.6197860     0.6362020     0.7540910
  H       -1.6800360    -1.7612670     0.2847220
  H       -2.7934900    -0.3633680     0.0910490
  H       -1.9015030    -0.6283060     1.6249380
units angstrom
no_reorient  #important for SAPT in psi4, default
symmetry c1  #important for SAPT in psi4, default
}

set PROPERTIES_ORIGIN ["COM"]
properties('MP2/aug-cc-pvtz', properties = ['dipole'])
--------------------------------------------------------------------------

    Molecular point group: c1
  Charge       = 0
  Multiplicity = 1
  Basis Set: AUG-CC-PVTZ
    Blend: AUG-CC-PVTZ
  Basis Set: (AUG-CC-PVTZ AUX)
    Blend: AUG-CC-PVTZ-JKFIT

    Orbital Energies [Eh]
    ---------------------

    Doubly Occupied:

       1A    -20.540645     2A    -11.328118     3A    -11.244153
       4A    -11.237230     5A    -11.231095     6A    -11.216528
       7A     -1.370879     8A     -1.092446     9A     -1.004307
      10A     -0.941498    11A     -0.849271    12A     -0.724977
      13A     -0.664355    14A     -0.637103    15A     -0.611886
      16A     -0.594647    17A     -0.570696    18A     -0.560980
      19A     -0.536456    20A     -0.508750    21A     -0.504469
      22A     -0.490530    23A     -0.469379    24A     -0.400422

  @DF-RHF Final Energy:  -270.11725211252212

   => Energetics <=

    Nuclear Repulsion Energy =            245.2950769769114174
    One-Electron Energy =                -852.1630166117024601
    Two-Electron Energy =                 336.7506875222688905
    Total Energy =                       -270.1172521125221238
  Basis Set: (AUG-CC-PVTZ AUX)
    Blend: AUG-CC-PVTZ-RI
    Molecular point group: c1

    Geometry (in Angstrom), charge = 0, multiplicity = 1:

       Center              X                  Y                   Z               Mass
    ------------   -----------------  -----------------  -----------------  -----------------
         O           -0.914197990825     1.131516117039    -0.692265115069    15.994914619570
         C            0.699956009175    -0.263327882961     0.406538884931    12.000000000000
         C            1.133071009175    -1.251769882961    -0.692288315069    12.000000000000
         C            1.612230009175     0.950212117039     0.510861884931    12.000000000000
         C           -0.705443390825     0.110265917039    -0.035815215069    12.000000000000
         C           -1.843761990825    -0.696048882961     0.543670884931    12.000000000000
         H            0.660636009175    -0.780157882961     1.374052884931     1.007825032230
         H            1.229791009175    -0.776620882961    -1.633861115069     1.007825032230
         H            2.214501009175    -1.596252882961    -0.406457115069     1.007825032230
         H            0.560637009175    -2.140625882961    -0.722514115069     1.007825032230
         H            1.261279009175     1.647817117039     1.276391884931     1.007825032230
         H            1.631659009175     1.483263117039    -0.439588115069     1.007825032230
         H            2.628934009175     0.641739117039     0.768240884931     1.007825032230
         H           -1.670887990825    -1.755729882961     0.298871884931     1.007825032230
         H           -2.784341990825    -0.357830882961     0.105198884931     1.007825032230
         H           -1.892354990825    -0.622768882961     1.639087884931     1.007825032230

  Basis Set: AUG-CC-PVTZ
    Blend: AUG-CC-PVTZ
  Basis Set: (AUG-CC-PVTZ AUX)
    Blend: AUG-CC-PVTZ-JKFIT
	 Reference Energy          =    -270.1172521125221238 [Eh]
	 Singles Energy            =      -0.0000000000000000 [Eh]
	 Same-Spin Energy          =      -0.2748025964325204 [Eh]
	 Opposite-Spin Energy      =      -0.9501255969567166 [Eh]
	 Correlation Energy        =      -1.2249281933892371 [Eh]
	 Total Energy              =    -271.3421803059113699 [Eh]

	 ================> DF-SCS-MP2 Energies <==================
	-----------------------------------------------------------
	 SCS Same-Spin Scale       =       0.3333333333333333 [-]
	 SCS Opposite-Spin Scale   =       1.2000000000000000 [-]
	 SCS Same-Spin Energy      =      -0.0916008654775068 [Eh]
	 SCS Opposite-Spin Energy  =      -1.1401507163480600 [Eh]
	 SCS Correlation Energy    =      -1.2317515818255669 [Eh]
	 SCS Total Energy          =    -271.3490036943476866 [Eh]
	-----------------------------------------------------------

  Dipole Moment: [D]
     X:     0.6154      Y:    -2.2848      Z:     1.5580     Total:     2.8331

*** Psi4 exiting successfully. Buy a developer a beer!
