                               Psi4 1.3.2 release

  ==> Input File <==

--------------------------------------------------------------------------
#psi4
#
memory 32 gb

molecule  {
0 1
  O       -0.9233460     1.1259790    -0.7064150
  C        0.6908080    -0.2688650     0.3923890
  C        1.1946870    -1.2650980    -0.6685790
  C        1.6030820     0.9446750     0.4967120
  C       -0.7197390     0.1522350     0.0136690
  C       -2.0030288    -0.8146974     0.5978594
  H        0.6514880    -0.7856950     1.3599030
  H        1.2206430    -0.7821580    -1.6480110
  H        2.2053530    -1.6017900    -0.4206070
  H        0.5514890    -2.1461630    -0.7366640
  H        1.2521310     1.6422800     1.2622420
  H        1.6225110     1.4777260    -0.4537380
  H        2.6197860     0.6362020     0.7540910
  H       -1.6800360    -1.7612670     0.2847220
  H       -2.7934900    -0.3633680     0.0910490
  H       -1.9015030    -0.6283060     1.6249380
units angstrom
no_reorient  #important for SAPT in psi4, default
symmetry c1  #important for SAPT in psi4, default
}

set PROPERTIES_ORIGIN ["COM"]
properties('MP2/aug-cc-pvtz', properties = ['dipole'])
--------------------------------------------------------------------------

    Molecular point group: c1
  Charge       = 0
  Multiplicity = 1
  Basis Set: AUG-CC-PVTZ
    Blend: AUG-CC-PVTZ
  Basis Set: (AUG-CC-PVTZ AUX)
    Blend: AUG-CC-PVTZ-JKFIT

    Orbital Energies [Eh]
    ---------------------

    Doubly Occupied:

       1A    -20.546600     2A    -11.335843     3A    -11.245408
       4A    -11.234367     5A    -11.231246     6A    -11.216472
       7A     -1.373594     8A     -1.088447     9A     -0.988679
      10A     -0.940110    11A     -0.854183    12A     -0.718787
      13A     -0.655019    14A     -0.631624    15A     -0.616421
      16A     -0.593541    17A     -0.583054    18A     -0.557681
      19A     -0.546758    20A     -0.523960    21A     -0.506371
      22A     -0.486284    23A     -0.475116    24A     -0.381350

  @DF-RHF Final Energy:  -270.10206809442781

   => Energetics <=

    Nuclear Repulsion Energy =            241.9850968976926140
    One-Electron Energy =                -845.5124983714471227
    Two-Electron Energy =                 333.4253333793266734
    Total Energy =                       -270.1020680944278070
  Basis Set: (AUG-CC-PVTZ AUX)
    Blend: AUG-CC-PVTZ-RI
    Molecular point group: c1

    Geometry (in Angstrom), charge = 0, multiplicity = 1:

       Center              X                  Y                   Z               Mass
    ------------   -----------------  -----------------  -----------------  -----------------
         O           -0.902416981021     1.141748741814    -0.715942417993    15.994914619570
         C            0.711737018979    -0.253095258186     0.382861582007    12.000000000000
         C            1.215616018979    -1.249328258186    -0.678106417993    12.000000000000
         C            1.624011018979     0.960444741814     0.487184582007    12.000000000000
         C           -0.698809981021     0.168004741814     0.004141582007    12.000000000000
         C           -1.982099781021    -0.798927658186     0.588331982007    12.000000000000
         H            0.672417018979    -0.769925258186     1.350375582007     1.007825032230
         H            1.241572018979    -0.766388258186    -1.657538417993     1.007825032230
         H            2.226282018979    -1.586020258186    -0.430134417993     1.007825032230
         H            0.572418018979    -2.130393258186    -0.746191417993     1.007825032230
         H            1.273060018979     1.658049741814     1.252714582007     1.007825032230
         H            1.643440018979     1.493495741814    -0.463265417993     1.007825032230
         H            2.640715018979     0.651971741814     0.744563582007     1.007825032230
         H           -1.659106981021    -1.745497258186     0.275194582007     1.007825032230
         H           -2.772560981021    -0.347598258186     0.081521582007     1.007825032230
         H           -1.880573981021    -0.612536258186     1.615410582007     1.007825032230

  Basis Set: AUG-CC-PVTZ
    Blend: AUG-CC-PVTZ
  Basis Set: (AUG-CC-PVTZ AUX)
    Blend: AUG-CC-PVTZ-JKFIT
	 Reference Energy          =    -270.1020680944278070 [Eh]
	 Singles Energy            =      -0.0000000000000000 [Eh]
	 Same-Spin Energy          =      -0.2745770095486304 [Eh]
	 Opposite-Spin Energy      =      -0.9510027688598874 [Eh]
	 Correlation Energy        =      -1.2255797784085178 [Eh]
	 Total Energy              =    -271.3276478728363372 [Eh]

	 ================> DF-SCS-MP2 Energies <==================
	-----------------------------------------------------------
	 SCS Same-Spin Scale       =       0.3333333333333333 [-]
	 SCS Opposite-Spin Scale   =       1.2000000000000000 [-]
	 SCS Same-Spin Energy      =      -0.0915256698495435 [Eh]
	 SCS Opposite-Spin Energy  =      -1.1412033226318650 [Eh]
	 SCS Correlation Energy    =      -1.2327289924814084 [Eh]
	 SCS Total Energy          =    -271.3347970869091910 [Eh]
	-----------------------------------------------------------

  Dipole Moment: [D]
     X:     0.9490      Y:    -2.0225      Z:     1.3920     Total:     2.6323

*** Psi4 exiting successfully. Buy a developer a beer!
