                               Psi4 1.3.2 release

  ==> Input File <==

--------------------------------------------------------------------------
#psi4
#
memory 32 gb

molecule  {
0 1
  O       -0.9233460     1.1259790    -0.7064150
  C        0.6858602    -0.2791481     0.3991509
  C        1.1946870    -1.2650980    -0.6685790
  C        1.6030820     0.9446750     0.4967120
  C       -0.7197390     0.1522350     0.0136690
  C       -1.8441886    -0.7094557     0.5354853
  H        0.6514880    -0.7856950     1.3599030
  H        1.2206430    -0.7821580    -1.6480110
  H        2.2053530    -1.6017900    -0.4206070
  H        0.5514890    -2.1461630    -0.7366640
  H        1.2521310     1.6422800     1.2622420
  H        1.6225110     1.4777260    -0.4537380
  H        2.6197860     0.6362020     0.7540910
  H       -1.6800360    -1.7612670     0.2847220
  H       -2.7934900    -0.3633680     0.0910490
  H       -1.9015030    -0.6283060     1.6249380
units angstrom
no_reorient  #important for SAPT in psi4, default
symmetry c1  #important for SAPT in psi4, default
}

set PROPERTIES_ORIGIN ["COM"]
properties('MP2/aug-cc-pvtz', properties = ['dipole'])
--------------------------------------------------------------------------

    Molecular point group: c1
  Charge       = 0
  Multiplicity = 1
  Basis Set: AUG-CC-PVTZ
    Blend: AUG-CC-PVTZ
  Basis Set: (AUG-CC-PVTZ AUX)
    Blend: AUG-CC-PVTZ-JKFIT

    Orbital Energies [Eh]
    ---------------------

    Doubly Occupied:

       1A    -20.542919     2A    -11.328684     3A    -11.242391
       4A    -11.236536     5A    -11.229951     6A    -11.215406
       7A     -1.374285     8A     -1.090247     9A     -1.004850
      10A     -0.937950    11A     -0.850942    12A     -0.724944
      13A     -0.665041    14A     -0.631506    15A     -0.613062
      16A     -0.594782    17A     -0.569484    18A     -0.555057
      19A     -0.545484    20A     -0.514710    21A     -0.500406
      22A     -0.487126    23A     -0.471181    24A     -0.405338

  @DF-RHF Final Energy:  -270.12813078546992

   => Energetics <=

    Nuclear Repulsion Energy =            244.9047859100051596
    One-Electron Energy =                -851.4012686032029933
    Two-Electron Energy =                 336.3683519077278561
    Total Energy =                       -270.1281307854699207
  Basis Set: (AUG-CC-PVTZ AUX)
    Blend: AUG-CC-PVTZ-RI
    Molecular point group: c1

    Geometry (in Angstrom), charge = 0, multiplicity = 1:

       Center              X                  Y                   Z               Mass
    ------------   -----------------  -----------------  -----------------  -----------------
         O           -0.923872086120     1.128509967560    -0.708189172246    15.994914619570
         C            0.685334113880    -0.276617132440     0.397376727754    12.000000000000
         C            1.194160913880    -1.262567032440    -0.670353172246    12.000000000000
         C            1.602555913880     0.947205967560     0.494937827754    12.000000000000
         C           -0.720265086120     0.154765967560     0.011894827754    12.000000000000
         C           -1.844714686120    -0.706924732440     0.533711127754    12.000000000000
         H            0.650961913880    -0.783164032440     1.358128827754     1.007825032230
         H            1.220116913880    -0.779627032440    -1.649785172246     1.007825032230
         H            2.204826913880    -1.599259032440    -0.422381172246     1.007825032230
         H            0.550962913880    -2.143632032440    -0.738438172246     1.007825032230
         H            1.251604913880     1.644810967560     1.260467827754     1.007825032230
         H            1.621984913880     1.480256967560    -0.455512172246     1.007825032230
         H            2.619259913880     0.638732967560     0.752316827754     1.007825032230
         H           -1.680562086120    -1.758736032440     0.282947827754     1.007825032230
         H           -2.794016086120    -0.360837032440     0.089274827754     1.007825032230
         H           -1.902029086120    -0.625775032440     1.623163827754     1.007825032230

  Basis Set: AUG-CC-PVTZ
    Blend: AUG-CC-PVTZ
  Basis Set: (AUG-CC-PVTZ AUX)
    Blend: AUG-CC-PVTZ-JKFIT
	 Reference Energy          =    -270.1281307854699207 [Eh]
	 Singles Energy            =      -0.0000000000000000 [Eh]
	 Same-Spin Energy          =      -0.2741946865105045 [Eh]
	 Opposite-Spin Energy      =      -0.9490597818412538 [Eh]
	 Correlation Energy        =      -1.2232544683517583 [Eh]
	 Total Energy              =    -271.3513852538216611 [Eh]

	 ================> DF-SCS-MP2 Energies <==================
	-----------------------------------------------------------
	 SCS Same-Spin Scale       =       0.3333333333333333 [-]
	 SCS Opposite-Spin Scale   =       1.2000000000000000 [-]
	 SCS Same-Spin Energy      =      -0.0913982288368348 [Eh]
	 SCS Opposite-Spin Energy  =      -1.1388717382095046 [Eh]
	 SCS Correlation Energy    =      -1.2302699670463395 [Eh]
	 SCS Total Energy          =    -271.3584007525162747 [Eh]
	-----------------------------------------------------------

  Dipole Moment: [D]
     X:     0.6135      Y:    -2.2820      Z:     1.5664     Total:     2.8351

*** Psi4 exiting successfully. Buy a developer a beer!
