                               Psi4 1.3.2 release

  ==> Input File <==

--------------------------------------------------------------------------
#psi4
#
memory 32 gb

molecule  {
0 1
  O       -0.9233460     1.1259790    -0.7064150
  C        0.6595236    -0.3300554     0.4325095
  C        1.1946870    -1.2650980    -0.6685790
  C        1.6030820     0.9446750     0.4967120
  C       -0.7197390     0.1522350     0.0136690
  C       -1.7993106    -0.7478083     0.5647020
  H        0.6514880    -0.7856950     1.3599030
  H        1.2206430    -0.7821580    -1.6480110
  H        2.2053530    -1.6017900    -0.4206070
  H        0.5514890    -2.1461630    -0.7366640
  H        1.2521310     1.6422800     1.2622420
  H        1.6225110     1.4777260    -0.4537380
  H        2.6197860     0.6362020     0.7540910
  H       -1.6800360    -1.7612670     0.2847220
  H       -2.7934900    -0.3633680     0.0910490
  H       -1.9015030    -0.6283060     1.6249380
units angstrom
no_reorient  #important for SAPT in psi4, default
symmetry c1  #important for SAPT in psi4, default
}

set PROPERTIES_ORIGIN ["COM"]
properties('MP2/aug-cc-pvtz', properties = ['dipole'])
--------------------------------------------------------------------------

    Molecular point group: c1
  Charge       = 0
  Multiplicity = 1
  Basis Set: AUG-CC-PVTZ
    Blend: AUG-CC-PVTZ
  Basis Set: (AUG-CC-PVTZ AUX)
    Blend: AUG-CC-PVTZ-JKFIT

    Orbital Energies [Eh]
    ---------------------

    Doubly Occupied:

       1A    -20.546861     2A    -11.331093     3A    -11.239644
       4A    -11.235780     5A    -11.230582     6A    -11.216700
       7A     -1.375348     8A     -1.089680     9A     -1.004482
      10A     -0.933156    11A     -0.852930    12A     -0.734169
      13A     -0.667753    14A     -0.626743    15A     -0.620053
      16A     -0.599850    17A     -0.559256    18A     -0.557330
      19A     -0.543701    20A     -0.513914    21A     -0.500796
      22A     -0.492178    23A     -0.462364    24A     -0.403505

  @DF-RHF Final Energy:  -270.11420919503587

   => Energetics <=

    Nuclear Repulsion Energy =            244.6969350553284528
    One-Electron Energy =                -850.9465586900229255
    Two-Electron Energy =                 336.1354144396585752
    Total Energy =                       -270.1142091950358690
  Basis Set: (AUG-CC-PVTZ AUX)
    Blend: AUG-CC-PVTZ-RI
    Molecular point group: c1

    Geometry (in Angstrom), charge = 0, multiplicity = 1:

       Center              X                  Y                   Z               Mass
    ------------   -----------------  -----------------  -----------------  -----------------
         O           -0.926457059034     1.140954250290    -0.716913187455    15.994914619570
         C            0.656412540966    -0.315080149710     0.422011312545    12.000000000000
         C            1.191575940966    -1.250122749710    -0.679077187455    12.000000000000
         C            1.599970940966     0.959650250290     0.486213812545    12.000000000000
         C           -0.722850059034     0.167210250290     0.003170812545    12.000000000000
         C           -1.802421659034    -0.732833049710     0.554203812545    12.000000000000
         H            0.648376940966    -0.770719749710     1.349404812545     1.007825032230
         H            1.217531940966    -0.767182749710    -1.658509187455     1.007825032230
         H            2.202241940966    -1.586814749710    -0.431105187455     1.007825032230
         H            0.548377940966    -2.131187749710    -0.747162187455     1.007825032230
         H            1.249019940966     1.657255250290     1.251743812545     1.007825032230
         H            1.619399940966     1.492701250290    -0.464236187455     1.007825032230
         H            2.616674940966     0.651177250290     0.743592812545     1.007825032230
         H           -1.683147059034    -1.746291749710     0.274223812545     1.007825032230
         H           -2.796601059034    -0.348392749710     0.080550812545     1.007825032230
         H           -1.904614059034    -0.613330749710     1.614439812545     1.007825032230

  Basis Set: AUG-CC-PVTZ
    Blend: AUG-CC-PVTZ
  Basis Set: (AUG-CC-PVTZ AUX)
    Blend: AUG-CC-PVTZ-JKFIT
	 Reference Energy          =    -270.1142091950358690 [Eh]
	 Singles Energy            =      -0.0000000000000000 [Eh]
	 Same-Spin Energy          =      -0.2744486717930387 [Eh]
	 Opposite-Spin Energy      =      -0.9499702843493030 [Eh]
	 Correlation Energy        =      -1.2244189561423418 [Eh]
	 Total Energy              =    -271.3386281511782272 [Eh]

	 ================> DF-SCS-MP2 Energies <==================
	-----------------------------------------------------------
	 SCS Same-Spin Scale       =       0.3333333333333333 [-]
	 SCS Opposite-Spin Scale   =       1.2000000000000000 [-]
	 SCS Same-Spin Energy      =      -0.0914828905976796 [Eh]
	 SCS Opposite-Spin Energy  =      -1.1399643412191636 [Eh]
	 SCS Correlation Energy    =      -1.2314472318168432 [Eh]
	 SCS Total Energy          =    -271.3456564268527131 [Eh]
	-----------------------------------------------------------

  Dipole Moment: [D]
     X:     0.6412      Y:    -2.2900      Z:     1.5646     Total:     2.8466

*** Psi4 exiting successfully. Buy a developer a beer!
