                               Psi4 1.3.2 release

  ==> Input File <==

--------------------------------------------------------------------------
#psi4
#
memory 32 gb

molecule  {
0 1
  O       -0.9233460     1.1259790    -0.7064150
  C        0.6908080    -0.2688650     0.3923890
  C        1.1946870    -1.2650980    -0.6685790
  C        1.6030820     0.9446750     0.4967120
  C       -0.7138741     0.1414548     0.0088775
  C       -1.8529100    -0.7015860     0.5295210
  H        0.6514880    -0.7856950     1.3599030
  H        1.2206430    -0.7821580    -1.6480110
  H        2.2053530    -1.6017900    -0.4206070
  H        0.5514890    -2.1461630    -0.7366640
  H        1.2521310     1.6422800     1.2622420
  H        1.6225110     1.4777260    -0.4537380
  H        2.6197860     0.6362020     0.7540910
  H       -1.6717765    -1.7588836     0.2804261
  H       -2.7934900    -0.3633680     0.0910490
  H       -1.9015030    -0.6283060     1.6249380
units angstrom
no_reorient  #important for SAPT in psi4, default
symmetry c1  #important for SAPT in psi4, default
}

set PROPERTIES_ORIGIN ["COM"]
properties('MP2/aug-cc-pvtz', properties = ['dipole'])
--------------------------------------------------------------------------

    Molecular point group: c1
  Charge       = 0
  Multiplicity = 1
  Basis Set: AUG-CC-PVTZ
    Blend: AUG-CC-PVTZ
  Basis Set: (AUG-CC-PVTZ AUX)
    Blend: AUG-CC-PVTZ-JKFIT

    Orbital Energies [Eh]
    ---------------------

    Doubly Occupied:

       1A    -20.541350     2A    -11.328753     3A    -11.243464
       4A    -11.237201     5A    -11.230398     6A    -11.215579
       7A     -1.369479     8A     -1.092009     9A     -1.005195
      10A     -0.939410    11A     -0.852266    12A     -0.723251
      13A     -0.664005    14A     -0.633184    15A     -0.612058
      16A     -0.592142    17A     -0.571996    18A     -0.554875
      19A     -0.545951    20A     -0.515504    21A     -0.500410
      22A     -0.485906    23A     -0.469469    24A     -0.406469

  @DF-RHF Final Energy:  -270.12760125277077

   => Energetics <=

    Nuclear Repulsion Energy =            244.9713597693261136
    One-Electron Energy =                -851.5372749900398048
    Two-Electron Energy =                 336.4383139679429178
    Total Energy =                       -270.1276012527707735
  Basis Set: (AUG-CC-PVTZ AUX)
    Blend: AUG-CC-PVTZ-RI
    Molecular point group: c1

    Geometry (in Angstrom), charge = 0, multiplicity = 1:

       Center              X                  Y                   Z               Mass
    ------------   -----------------  -----------------  -----------------  -----------------
         O           -0.924260357318     1.127454200060    -0.705696619362    15.994914619570
         C            0.689893642682    -0.267389799940     0.393107380638    12.000000000000
         C            1.193772642682    -1.263622799940    -0.667860619362    12.000000000000
         C            1.602167642682     0.946150200060     0.497430380638    12.000000000000
         C           -0.714788457318     0.142930000060     0.009595880638    12.000000000000
         C           -1.853824357318    -0.700110799940     0.530239380638    12.000000000000
         H            0.650573642682    -0.784219799940     1.360621380638     1.007825032230
         H            1.219728642682    -0.780682799940    -1.647292619362     1.007825032230
         H            2.204438642682    -1.600314799940    -0.419888619362     1.007825032230
         H            0.550574642682    -2.144687799940    -0.735945619362     1.007825032230
         H            1.251216642682     1.643755200060     1.262960380638     1.007825032230
         H            1.621596642682     1.479201200060    -0.453019619362     1.007825032230
         H            2.618871642682     0.637677200060     0.754809380638     1.007825032230
         H           -1.672690857318    -1.757408399940     0.281144480638     1.007825032230
         H           -2.794404357318    -0.361892799940     0.091767380638     1.007825032230
         H           -1.902417357318    -0.626830799940     1.625656380638     1.007825032230

  Basis Set: AUG-CC-PVTZ
    Blend: AUG-CC-PVTZ
  Basis Set: (AUG-CC-PVTZ AUX)
    Blend: AUG-CC-PVTZ-JKFIT
	 Reference Energy          =    -270.1276012527707735 [Eh]
	 Singles Energy            =      -0.0000000000000000 [Eh]
	 Same-Spin Energy          =      -0.2744273979269962 [Eh]
	 Opposite-Spin Energy      =      -0.9494587705103821 [Eh]
	 Correlation Energy        =      -1.2238861684373783 [Eh]
	 Total Energy              =    -271.3514874212081622 [Eh]

	 ================> DF-SCS-MP2 Energies <==================
	-----------------------------------------------------------
	 SCS Same-Spin Scale       =       0.3333333333333333 [-]
	 SCS Opposite-Spin Scale   =       1.2000000000000000 [-]
	 SCS Same-Spin Energy      =      -0.0914757993089987 [Eh]
	 SCS Opposite-Spin Energy  =      -1.1393505246124584 [Eh]
	 SCS Correlation Energy    =      -1.2308263239214572 [Eh]
	 SCS Total Energy          =    -271.3584275766922360 [Eh]
	-----------------------------------------------------------

  Dipole Moment: [D]
     X:     0.6407      Y:    -2.2992      Z:     1.5766     Total:     2.8605

*** Psi4 exiting successfully. Buy a developer a beer!
