                               Psi4 1.3.2 release

  ==> Input File <==

--------------------------------------------------------------------------
#psi4
#
memory 32 gb

molecule  {
0 1
  O       -0.9233460     1.1259790    -0.7064150
  C        0.6908080    -0.2688650     0.3923890
  C        1.1829837    -1.2639886    -0.6750937
  C        1.6030820     0.9446750     0.4967120
  C       -0.7191493     0.1443940     0.0029865
  C       -1.8529100    -0.7015860     0.5295210
  H        0.6514880    -0.7856950     1.3599030
  H        1.2206430    -0.7821580    -1.6480110
  H        2.2053530    -1.6017900    -0.4206070
  H        0.5514890    -2.1461630    -0.7366640
  H        1.2521310     1.6422800     1.2622420
  H        1.6225110     1.4777260    -0.4537380
  H        2.6197860     0.6362020     0.7540910
  H       -1.6800360    -1.7612670     0.2847220
  H       -2.7934900    -0.3633680     0.0910490
  H       -1.9015030    -0.6283060     1.6249380
units angstrom
no_reorient  #important for SAPT in psi4, default
symmetry c1  #important for SAPT in psi4, default
}

set PROPERTIES_ORIGIN ["COM"]
properties('MP2/aug-cc-pvtz', properties = ['dipole'])
--------------------------------------------------------------------------

    Molecular point group: c1
  Charge       = 0
  Multiplicity = 1
  Basis Set: AUG-CC-PVTZ
    Blend: AUG-CC-PVTZ
  Basis Set: (AUG-CC-PVTZ AUX)
    Blend: AUG-CC-PVTZ-JKFIT

    Orbital Energies [Eh]
    ---------------------

    Doubly Occupied:

       1A    -20.541816     2A    -11.328122     3A    -11.243191
       4A    -11.236876     5A    -11.229928     6A    -11.215368
       7A     -1.373845     8A     -1.090816     9A     -1.004938
      10A     -0.939253    11A     -0.850375    12A     -0.723613
      13A     -0.664496    14A     -0.633597    15A     -0.611798
      16A     -0.593942    17A     -0.571640    18A     -0.554488
      19A     -0.544712    20A     -0.514977    21A     -0.501409
      22A     -0.486583    23A     -0.471453    24A     -0.404751

  @DF-RHF Final Energy:  -270.12817397845157

   => Energetics <=

    Nuclear Repulsion Energy =            245.0159685362863513
    One-Electron Energy =                -851.6243069100343064
    Two-Electron Energy =                 336.4801643952964127
    Total Energy =                       -270.1281739784515707
  Basis Set: (AUG-CC-PVTZ AUX)
    Blend: AUG-CC-PVTZ-RI
    Molecular point group: c1

    Geometry (in Angstrom), charge = 0, multiplicity = 1:

       Center              X                  Y                   Z               Mass
    ------------   -----------------  -----------------  -----------------  -----------------
         O           -0.921796568157     1.126917666404    -0.704017363295    15.994914619570
         C            0.692357431843    -0.267926333596     0.394786636705    12.000000000000
         C            1.184533131843    -1.263049933596    -0.672696063295    12.000000000000
         C            1.604631431843     0.945613666404     0.499109636705    12.000000000000
         C           -0.717599868157     0.145332666404     0.005384136705    12.000000000000
         C           -1.851360568157    -0.700647333596     0.531918636705    12.000000000000
         H            0.653037431843    -0.784756333596     1.362300636705     1.007825032230
         H            1.222192431843    -0.781219333596    -1.645613363295     1.007825032230
         H            2.206902431843    -1.600851333596    -0.418209363295     1.007825032230
         H            0.553038431843    -2.145224333596    -0.734266363295     1.007825032230
         H            1.253680431843     1.643218666404     1.264639636705     1.007825032230
         H            1.624060431843     1.478664666404    -0.451340363295     1.007825032230
         H            2.621335431843     0.637140666404     0.756488636705     1.007825032230
         H           -1.678486568157    -1.760328333596     0.287119636705     1.007825032230
         H           -2.791940568157    -0.362429333596     0.093446636705     1.007825032230
         H           -1.899953568157    -0.627367333596     1.627335636705     1.007825032230

  Basis Set: AUG-CC-PVTZ
    Blend: AUG-CC-PVTZ
  Basis Set: (AUG-CC-PVTZ AUX)
    Blend: AUG-CC-PVTZ-JKFIT
	 Reference Energy          =    -270.1281739784515707 [Eh]
	 Singles Energy            =      -0.0000000000000000 [Eh]
	 Same-Spin Energy          =      -0.2742437096156465 [Eh]
	 Opposite-Spin Energy      =      -0.9490593495612684 [Eh]
	 Correlation Energy        =      -1.2233030591769150 [Eh]
	 Total Energy              =    -271.3514770376285128 [Eh]

	 ================> DF-SCS-MP2 Energies <==================
	-----------------------------------------------------------
	 SCS Same-Spin Scale       =       0.3333333333333333 [-]
	 SCS Opposite-Spin Scale   =       1.2000000000000000 [-]
	 SCS Same-Spin Energy      =      -0.0914145698718822 [Eh]
	 SCS Opposite-Spin Energy  =      -1.1388712194735220 [Eh]
	 SCS Correlation Energy    =      -1.2302857893454042 [Eh]
	 SCS Total Energy          =    -271.3584597677970009 [Eh]
	-----------------------------------------------------------

  Dipole Moment: [D]
     X:     0.6113      Y:    -2.2820      Z:     1.5643     Total:     2.8334

*** Psi4 exiting successfully. Buy a developer a beer!
