                               Psi4 1.3.2 release

  ==> Input File <==

--------------------------------------------------------------------------
#psi4
#
memory 32 gb

molecule  {
0 1
  O       -0.9233460     1.1259790    -0.7064150
  C        0.6908080    -0.2688650     0.3923890
  C        1.1946870    -1.2650980    -0.6685790
  C        1.6030820     0.9446750     0.4967120
  C       -0.7373273     0.1305526     0.0587843
  C       -1.8529100    -0.7015860     0.5295210
  H        0.6135751    -0.7802166     1.3605301
  H        1.2206430    -0.7821580    -1.6480110
  H        2.2053530    -1.6017900    -0.4206070
  H        0.5514890    -2.1461630    -0.7366640
  H        1.2521310     1.6422800     1.2622420
  H        1.6225110     1.4777260    -0.4537380
  H        2.6197860     0.6362020     0.7540910
  H       -1.6800360    -1.7612670     0.2847220
  H       -2.7934900    -0.3633680     0.0910490
  H       -1.9015030    -0.6283060     1.6249380
units angstrom
no_reorient  #important for SAPT in psi4, default
symmetry c1  #important for SAPT in psi4, default
}

set PROPERTIES_ORIGIN ["COM"]
properties('MP2/aug-cc-pvtz', properties = ['dipole'])
--------------------------------------------------------------------------

    Molecular point group: c1
  Charge       = 0
  Multiplicity = 1
  Basis Set: AUG-CC-PVTZ
    Blend: AUG-CC-PVTZ
  Basis Set: (AUG-CC-PVTZ AUX)
    Blend: AUG-CC-PVTZ-JKFIT

    Orbital Energies [Eh]
    ---------------------

    Doubly Occupied:

       1A    -20.538356     2A    -11.331006     3A    -11.245061
       4A    -11.239591     5A    -11.230732     6A    -11.215455
       7A     -1.347285     8A     -1.091439     9A     -1.017366
      10A     -0.938997    11A     -0.853671    12A     -0.721713
      13A     -0.660659    14A     -0.634002    15A     -0.612422
      16A     -0.593875    17A     -0.571348    18A     -0.555556
      19A     -0.544749    20A     -0.510891    21A     -0.496759
      22A     -0.486612    23A     -0.459360    24A     -0.410150

  @DF-RHF Final Energy:  -270.12013400081395

   => Energetics <=

    Nuclear Repulsion Energy =            244.6247211118348162
    One-Electron Energy =                -850.8755984908556229
    Two-Electron Energy =                 336.1307433782068870
    Total Energy =                       -270.1201340008139482
  Basis Set: (AUG-CC-PVTZ AUX)
    Blend: AUG-CC-PVTZ-RI
    Molecular point group: c1

    Geometry (in Angstrom), charge = 0, multiplicity = 1:

       Center              X                  Y                   Z               Mass
    ------------   -----------------  -----------------  -----------------  -----------------
         O           -0.920449969949     1.128937905017    -0.712712082579    15.994914619570
         C            0.693704030051    -0.265906094983     0.386091917421    12.000000000000
         C            1.197583030051    -1.262139094983    -0.674876082579    12.000000000000
         C            1.605978030051     0.947633905017     0.490414917421    12.000000000000
         C           -0.734431269949     0.133511505017     0.052487217421    12.000000000000
         C           -1.850013969949    -0.698627094983     0.523223917421    12.000000000000
         H            0.616471130051    -0.777257694983     1.354233017421     1.007825032230
         H            1.223539030051    -0.779199094983    -1.654308082579     1.007825032230
         H            2.208249030051    -1.598831094983    -0.426904082579     1.007825032230
         H            0.554385030051    -2.143204094983    -0.742961082579     1.007825032230
         H            1.255027030051     1.645238905017     1.255944917421     1.007825032230
         H            1.625407030051     1.480684905017    -0.460035082579     1.007825032230
         H            2.622682030051     0.639160905017     0.747793917421     1.007825032230
         H           -1.677139969949    -1.758308094983     0.278424917421     1.007825032230
         H           -2.790593969949    -0.360409094983     0.084751917421     1.007825032230
         H           -1.898606969949    -0.625347094983     1.618640917421     1.007825032230

  Basis Set: AUG-CC-PVTZ
    Blend: AUG-CC-PVTZ
  Basis Set: (AUG-CC-PVTZ AUX)
    Blend: AUG-CC-PVTZ-JKFIT
	 Reference Energy          =    -270.1201340008139482 [Eh]
	 Singles Energy            =      -0.0000000000000000 [Eh]
	 Same-Spin Energy          =      -0.2755352732349802 [Eh]
	 Opposite-Spin Energy      =      -0.9517034873304616 [Eh]
	 Correlation Energy        =      -1.2272387605654418 [Eh]
	 Total Energy              =    -271.3473727613794040 [Eh]

	 ================> DF-SCS-MP2 Energies <==================
	-----------------------------------------------------------
	 SCS Same-Spin Scale       =       0.3333333333333333 [-]
	 SCS Opposite-Spin Scale   =       1.2000000000000000 [-]
	 SCS Same-Spin Energy      =      -0.0918450910783267 [Eh]
	 SCS Opposite-Spin Energy  =      -1.1420441847965539 [Eh]
	 SCS Correlation Energy    =      -1.2338892758748807 [Eh]
	 SCS Total Energy          =    -271.3540232766888494 [Eh]
	-----------------------------------------------------------

  Dipole Moment: [D]
     X:     0.5231      Y:    -2.4269      Z:     1.6638     Total:     2.9886

*** Psi4 exiting successfully. Buy a developer a beer!
