                               Psi4 1.3.2 release

  ==> Input File <==

--------------------------------------------------------------------------
#psi4
#
memory 32 gb

molecule  {
0 1
  O       -0.9233460     1.1259790    -0.7064150
  C        0.6908080    -0.2688650     0.3923890
  C        1.1946870    -1.2650980    -0.6685790
  C        1.6030820     0.9446750     0.4967120
  C       -0.7031596     0.0729444     0.0723045
  C       -1.8529100    -0.7015860     0.5295210
  H        0.6514880    -0.7856950     1.3599030
  H        1.2206430    -0.7821580    -1.6480110
  H        2.2053530    -1.6017900    -0.4206070
  H        0.5514890    -2.1461630    -0.7366640
  H        1.2521310     1.6422800     1.2622420
  H        1.6225110     1.4777260    -0.4537380
  H        2.6197860     0.6362020     0.7540910
  H       -1.6800360    -1.7612670     0.2847220
  H       -2.7934900    -0.3633680     0.0910490
  H       -1.9015030    -0.6283060     1.6249380
units angstrom
no_reorient  #important for SAPT in psi4, default
symmetry c1  #important for SAPT in psi4, default
}

set PROPERTIES_ORIGIN ["COM"]
properties('MP2/aug-cc-pvtz', properties = ['dipole'])
--------------------------------------------------------------------------

    Molecular point group: c1
  Charge       = 0
  Multiplicity = 1
  Basis Set: AUG-CC-PVTZ
    Blend: AUG-CC-PVTZ
  Basis Set: (AUG-CC-PVTZ AUX)
    Blend: AUG-CC-PVTZ-JKFIT

    Orbital Energies [Eh]
    ---------------------

    Doubly Occupied:

       1A    -20.532690     2A    -11.336329     3A    -11.247307
       4A    -11.242127     5A    -11.234126     6A    -11.217705
       7A     -1.313566     8A     -1.100246     9A     -1.021366
      10A     -0.941839    11A     -0.865415    12A     -0.722703
      13A     -0.661163    14A     -0.634372    15A     -0.613543
      16A     -0.591620    17A     -0.565442    18A     -0.556390
      19A     -0.545097    20A     -0.511254    21A     -0.497604
      22A     -0.485292    23A     -0.439826    24A     -0.415927

  @DF-RHF Final Energy:  -270.10341406408975

   => Energetics <=

    Nuclear Repulsion Energy =            244.5521940374905228
    One-Electron Energy =                -850.7253128910027726
    Two-Electron Energy =                 336.0697047894225307
    Total Energy =                       -270.1034140640897476
  Basis Set: (AUG-CC-PVTZ AUX)
    Blend: AUG-CC-PVTZ-RI
    Molecular point group: c1

    Geometry (in Angstrom), charge = 0, multiplicity = 1:

       Center              X                  Y                   Z               Mass
    ------------   -----------------  -----------------  -----------------  -----------------
         O           -0.925657423049     1.137033571874    -0.714589675822    15.994914619570
         C            0.688496576951    -0.257810428126     0.384214324178    12.000000000000
         C            1.192375576951    -1.254043428126    -0.676753675822    12.000000000000
         C            1.600770576951     0.955729571874     0.488537324178    12.000000000000
         C           -0.705471023049     0.083998971874     0.064129824178    12.000000000000
         C           -1.855221423049    -0.690531428126     0.521346324178    12.000000000000
         H            0.649176576951    -0.774640428126     1.351728324178     1.007825032230
         H            1.218331576951    -0.771103428126    -1.656185675822     1.007825032230
         H            2.203041576951    -1.590735428126    -0.428781675822     1.007825032230
         H            0.549177576951    -2.135108428126    -0.744838675822     1.007825032230
         H            1.249819576951     1.653334571874     1.254067324178     1.007825032230
         H            1.620199576951     1.488780571874    -0.461912675822     1.007825032230
         H            2.617474576951     0.647256571874     0.745916324178     1.007825032230
         H           -1.682347423049    -1.750212428126     0.276547324178     1.007825032230
         H           -2.795801423049    -0.352313428126     0.082874324178     1.007825032230
         H           -1.903814423049    -0.617251428126     1.616763324178     1.007825032230

  Basis Set: AUG-CC-PVTZ
    Blend: AUG-CC-PVTZ
  Basis Set: (AUG-CC-PVTZ AUX)
    Blend: AUG-CC-PVTZ-JKFIT
	 Reference Energy          =    -270.1034140640897476 [Eh]
	 Singles Energy            =      -0.0000000000000000 [Eh]
	 Same-Spin Energy          =      -0.2776329526658542 [Eh]
	 Opposite-Spin Energy      =      -0.9557824863229880 [Eh]
	 Correlation Energy        =      -1.2334154389888421 [Eh]
	 Total Energy              =    -271.3368295030786044 [Eh]

	 ================> DF-SCS-MP2 Energies <==================
	-----------------------------------------------------------
	 SCS Same-Spin Scale       =       0.3333333333333333 [-]
	 SCS Opposite-Spin Scale   =       1.2000000000000000 [-]
	 SCS Same-Spin Energy      =      -0.0925443175552847 [Eh]
	 SCS Opposite-Spin Energy  =      -1.1469389835875856 [Eh]
	 SCS Correlation Energy    =      -1.2394833011428703 [Eh]
	 SCS Total Energy          =    -271.3428973652326022 [Eh]
	-----------------------------------------------------------

  Dipole Moment: [D]
     X:     0.6821      Y:    -2.5839      Z:     1.7559     Total:     3.1976

*** Psi4 exiting successfully. Buy a developer a beer!
