                               Psi4 1.3.2 release

  ==> Input File <==

--------------------------------------------------------------------------
#psi4
#
memory 32 gb

molecule  {
0 1
  O       -0.9338975     1.1242490    -0.7056912
  C        0.6858422    -0.2789238     0.3994676
  C        1.1946870    -1.2650980    -0.6685790
  C        1.6030820     0.9446750     0.4967120
  C       -0.7197390     0.1522350     0.0136690
  C       -1.8529100    -0.7015860     0.5295210
  H        0.6514880    -0.7856950     1.3599030
  H        1.2206430    -0.7821580    -1.6480110
  H        2.2053530    -1.6017900    -0.4206070
  H        0.5514890    -2.1461630    -0.7366640
  H        1.2521310     1.6422800     1.2622420
  H        1.6225110     1.4777260    -0.4537380
  H        2.6197860     0.6362020     0.7540910
  H       -1.6800360    -1.7612670     0.2847220
  H       -2.7934900    -0.3633680     0.0910490
  H       -1.9015030    -0.6283060     1.6249380
units angstrom
no_reorient  #important for SAPT in psi4, default
symmetry c1  #important for SAPT in psi4, default
}

set PROPERTIES_ORIGIN ["COM"]
properties('MP2/aug-cc-pvtz', properties = ['dipole'])
--------------------------------------------------------------------------

    Molecular point group: c1
  Charge       = 0
  Multiplicity = 1
  Basis Set: AUG-CC-PVTZ
    Blend: AUG-CC-PVTZ
  Basis Set: (AUG-CC-PVTZ AUX)
    Blend: AUG-CC-PVTZ-JKFIT

    Orbital Energies [Eh]
    ---------------------

    Doubly Occupied:

       1A    -20.542381     2A    -11.328437     3A    -11.243187
       4A    -11.235994     5A    -11.230226     6A    -11.215868
       7A     -1.374062     8A     -1.090453     9A     -1.004186
      10A     -0.938276    11A     -0.851399    12A     -0.724938
      13A     -0.664764    14A     -0.632251    15A     -0.611690
      16A     -0.593551    17A     -0.571608    18A     -0.554247
      19A     -0.545670    20A     -0.515602    21A     -0.500091
      22A     -0.487826    23A     -0.470939    24A     -0.405322

  @DF-RHF Final Energy:  -270.12838929049008

   => Energetics <=

    Nuclear Repulsion Energy =            244.8256300085581643
    One-Electron Energy =                -851.2421037211270232
    Two-Electron Energy =                 336.2880844220787822
    Total Energy =                       -270.1283892904900767
  Basis Set: (AUG-CC-PVTZ AUX)
    Blend: AUG-CC-PVTZ-RI
    Molecular point group: c1

    Geometry (in Angstrom), charge = 0, multiplicity = 1:

       Center              X                  Y                   Z               Mass
    ------------   -----------------  -----------------  -----------------  -----------------
         O           -0.931244393839     1.125973016895    -0.706812508130    15.994914619570
         C            0.688495306161    -0.277199783105     0.398346291870    12.000000000000
         C            1.197340106161    -1.263373983105    -0.669700308130    12.000000000000
         C            1.605735106161     0.946399016895     0.495590691870    12.000000000000
         C           -0.717085893839     0.153959016895     0.012547691870    12.000000000000
         C           -1.850256893839    -0.699861983105     0.528399691870    12.000000000000
         H            0.654141106161    -0.783970983105     1.358781691870     1.007825032230
         H            1.223296106161    -0.780433983105    -1.649132308130     1.007825032230
         H            2.208006106161    -1.600065983105    -0.421728308130     1.007825032230
         H            0.554142106161    -2.144438983105    -0.737785308130     1.007825032230
         H            1.254784106161     1.644004016895     1.261120691870     1.007825032230
         H            1.625164106161     1.479450016895    -0.454859308130     1.007825032230
         H            2.622439106161     0.637926016895     0.752969691870     1.007825032230
         H           -1.677382893839    -1.759542983105     0.283600691870     1.007825032230
         H           -2.790836893839    -0.361643983105     0.089927691870     1.007825032230
         H           -1.898849893839    -0.626581983105     1.623816691870     1.007825032230

  Basis Set: AUG-CC-PVTZ
    Blend: AUG-CC-PVTZ
  Basis Set: (AUG-CC-PVTZ AUX)
    Blend: AUG-CC-PVTZ-JKFIT
	 Reference Energy          =    -270.1283892904900767 [Eh]
	 Singles Energy            =      -0.0000000000000000 [Eh]
	 Same-Spin Energy          =      -0.2741462097953682 [Eh]
	 Opposite-Spin Energy      =      -0.9489716956962120 [Eh]
	 Correlation Energy        =      -1.2231179054915802 [Eh]
	 Total Energy              =    -271.3515071959816396 [Eh]

	 ================> DF-SCS-MP2 Energies <==================
	-----------------------------------------------------------
	 SCS Same-Spin Scale       =       0.3333333333333333 [-]
	 SCS Opposite-Spin Scale   =       1.2000000000000000 [-]
	 SCS Same-Spin Energy      =      -0.0913820699317894 [Eh]
	 SCS Opposite-Spin Energy  =      -1.1387660348354542 [Eh]
	 SCS Correlation Energy    =      -1.2301481047672436 [Eh]
	 SCS Total Energy          =    -271.3585373952573150 [Eh]
	-----------------------------------------------------------

  Dipole Moment: [D]
     X:     0.6444      Y:    -2.2785      Z:     1.5654     Total:     2.8386

*** Psi4 exiting successfully. Buy a developer a beer!
