                               Psi4 1.3.2 release

  ==> Input File <==

--------------------------------------------------------------------------
#psi4
#
memory 32 gb

molecule  {
0 1
  O       -0.9443959     1.1220601    -0.7054435
  C        0.6908080    -0.2688650     0.3923890
  C        1.1946870    -1.2650980    -0.6685790
  C        1.6030820     0.9446750     0.4967120
  C       -0.7197390     0.1522350     0.0136690
  C       -1.8700456    -0.6860973     0.5168429
  H        0.6514880    -0.7856950     1.3599030
  H        1.2206430    -0.7821580    -1.6480110
  H        2.2053530    -1.6017900    -0.4206070
  H        0.5514890    -2.1461630    -0.7366640
  H        1.2521310     1.6422800     1.2622420
  H        1.6225110     1.4777260    -0.4537380
  H        2.6197860     0.6362020     0.7540910
  H       -1.6800360    -1.7612670     0.2847220
  H       -2.7934900    -0.3633680     0.0910490
  H       -1.9015030    -0.6283060     1.6249380
units angstrom
no_reorient  #important for SAPT in psi4, default
symmetry c1  #important for SAPT in psi4, default
}

set PROPERTIES_ORIGIN ["COM"]
properties('MP2/aug-cc-pvtz', properties = ['dipole'])
--------------------------------------------------------------------------

    Molecular point group: c1
  Charge       = 0
  Multiplicity = 1
  Basis Set: AUG-CC-PVTZ
    Blend: AUG-CC-PVTZ
  Basis Set: (AUG-CC-PVTZ AUX)
    Blend: AUG-CC-PVTZ-JKFIT

    Orbital Energies [Eh]
    ---------------------

    Doubly Occupied:

       1A    -20.541108     2A    -11.327925     3A    -11.244745
       4A    -11.235993     5A    -11.230473     6A    -11.216123
       7A     -1.373756     8A     -1.091142     9A     -1.003706
      10A     -0.939647    11A     -0.851723    12A     -0.723475
      13A     -0.664072    14A     -0.634879    15A     -0.609608
      16A     -0.591995    17A     -0.575534    18A     -0.552556
      19A     -0.545853    20A     -0.517492    21A     -0.500170
      22A     -0.486648    23A     -0.470738    24A     -0.405270

  @DF-RHF Final Energy:  -270.12769565330251

   => Energetics <=

    Nuclear Repulsion Energy =            244.8028542583240039
    One-Electron Energy =                -851.1918354465528864
    Two-Electron Energy =                 336.2612855349263441
    Total Energy =                       -270.1276956533025100
  Basis Set: (AUG-CC-PVTZ AUX)
    Blend: AUG-CC-PVTZ-RI
    Molecular point group: c1

    Geometry (in Angstrom), charge = 0, multiplicity = 1:

       Center              X                  Y                   Z               Mass
    ------------   -----------------  -----------------  -----------------  -----------------
         O           -0.938095215504     1.120629141339    -0.703856432531    15.994914619570
         C            0.697108684496    -0.270295958661     0.393976067469    12.000000000000
         C            1.200987684496    -1.266528958661    -0.666991932531    12.000000000000
         C            1.609382684496     0.943244041339     0.498299067469    12.000000000000
         C           -0.713438315504     0.150804041339     0.015256067469    12.000000000000
         C           -1.863744915504    -0.687528258661     0.518429967469    12.000000000000
         H            0.657788684496    -0.787125958661     1.361490067469     1.007825032230
         H            1.226943684496    -0.783588958661    -1.646423932531     1.007825032230
         H            2.211653684496    -1.603220958661    -0.419019932531     1.007825032230
         H            0.557789684496    -2.147593958661    -0.735076932531     1.007825032230
         H            1.258431684496     1.640849041339     1.263829067469     1.007825032230
         H            1.628811684496     1.476295041339    -0.452150932531     1.007825032230
         H            2.626086684496     0.634771041339     0.755678067469     1.007825032230
         H           -1.673735315504    -1.762697958661     0.286309067469     1.007825032230
         H           -2.787189315504    -0.364798958661     0.092636067469     1.007825032230
         H           -1.895202315504    -0.629736958661     1.626525067469     1.007825032230

  Basis Set: AUG-CC-PVTZ
    Blend: AUG-CC-PVTZ
  Basis Set: (AUG-CC-PVTZ AUX)
    Blend: AUG-CC-PVTZ-JKFIT
	 Reference Energy          =    -270.1276956533025100 [Eh]
	 Singles Energy            =      -0.0000000000000000 [Eh]
	 Same-Spin Energy          =      -0.2741328630242612 [Eh]
	 Opposite-Spin Energy      =      -0.9489173522563303 [Eh]
	 Correlation Energy        =      -1.2230502152805915 [Eh]
	 Total Energy              =    -271.3507458685830898 [Eh]

	 ================> DF-SCS-MP2 Energies <==================
	-----------------------------------------------------------
	 SCS Same-Spin Scale       =       0.3333333333333333 [-]
	 SCS Opposite-Spin Scale   =       1.2000000000000000 [-]
	 SCS Same-Spin Energy      =      -0.0913776210080871 [Eh]
	 SCS Opposite-Spin Energy  =      -1.1387008227075963 [Eh]
	 SCS Correlation Energy    =      -1.2300784437156833 [Eh]
	 SCS Total Energy          =    -271.3577740970181935 [Eh]
	-----------------------------------------------------------

  Dipole Moment: [D]
     X:     0.6742      Y:    -2.2709      Z:     1.5634     Total:     2.8383

*** Psi4 exiting successfully. Buy a developer a beer!
