                               Psi4 1.3.2 release

  ==> Input File <==

--------------------------------------------------------------------------
#psi4
#
memory 32 gb

molecule  {
0 1
  O       -0.9338791     1.1240566    -0.7059566
  C        0.6908080    -0.2688650     0.3923890
  C        1.1946870    -1.2650980    -0.6685790
  C        1.6030820     0.9446750     0.4967120
  C       -0.7197390     0.1522350     0.0136690
  C       -1.8615213    -0.6938738     0.5232013
  H        0.6514880    -0.7856950     1.3599030
  H        1.2206430    -0.7821580    -1.6480110
  H        2.2053530    -1.6017900    -0.4206070
  H        0.5514890    -2.1461630    -0.7366640
  H        1.2521310     1.6422800     1.2622420
  H        1.6225110     1.4777260    -0.4537380
  H        2.6197860     0.6362020     0.7540910
  H       -1.6800360    -1.7612670     0.2847220
  H       -2.7934900    -0.3633680     0.0910490
  H       -1.9015030    -0.6283060     1.6249380
units angstrom
no_reorient  #important for SAPT in psi4, default
symmetry c1  #important for SAPT in psi4, default
}

set PROPERTIES_ORIGIN ["COM"]
properties('MP2/aug-cc-pvtz', properties = ['dipole'])
--------------------------------------------------------------------------

    Molecular point group: c1
  Charge       = 0
  Multiplicity = 1
  Basis Set: AUG-CC-PVTZ
    Blend: AUG-CC-PVTZ
  Basis Set: (AUG-CC-PVTZ AUX)
    Blend: AUG-CC-PVTZ-JKFIT

    Orbital Energies [Eh]
    ---------------------

    Doubly Occupied:

       1A    -20.541632     2A    -11.328115     3A    -11.243929
       4A    -11.236406     5A    -11.230202     6A    -11.215643
       7A     -1.373934     8A     -1.090867     9A     -1.004338
      10A     -0.939299    11A     -0.851198    12A     -0.723407
      13A     -0.664308    14A     -0.633896    15A     -0.610724
      16A     -0.592733    17A     -0.573913    18A     -0.553406
      19A     -0.545799    20A     -0.516658    21A     -0.500444
      22A     -0.486138    23A     -0.471065    24A     -0.405387

  @DF-RHF Final Energy:  -270.12834822171857

   => Energetics <=

    Nuclear Repulsion Energy =            244.8757032235180304
    One-Electron Energy =                -851.3412213159948578
    Two-Electron Energy =                 336.3371698707582595
    Total Energy =                       -270.1283482217185679
  Basis Set: (AUG-CC-PVTZ AUX)
    Blend: AUG-CC-PVTZ-RI
    Molecular point group: c1

    Geometry (in Angstrom), charge = 0, multiplicity = 1:

       Center              X                  Y                   Z               Mass
    ------------   -----------------  -----------------  -----------------  -----------------
         O           -0.930721171069     1.123338803833    -0.705160647966    15.994914619570
         C            0.693965928931    -0.269582796167     0.393184952034    12.000000000000
         C            1.197844928931    -1.265815796167    -0.667783047966    12.000000000000
         C            1.606239928931     0.943957203833     0.497507952034    12.000000000000
         C           -0.716581071069     0.151517203833     0.014464952034    12.000000000000
         C           -1.858363371069    -0.694591596167     0.523997252034    12.000000000000
         H            0.654645928931    -0.786412796167     1.360698952034     1.007825032230
         H            1.223800928931    -0.782875796167    -1.647215047966     1.007825032230
         H            2.208510928931    -1.602507796167    -0.419811047966     1.007825032230
         H            0.554646928931    -2.146880796167    -0.735868047966     1.007825032230
         H            1.255288928931     1.641562203833     1.263037952034     1.007825032230
         H            1.625668928931     1.477008203833    -0.452942047966     1.007825032230
         H            2.622943928931     0.635484203833     0.754886952034     1.007825032230
         H           -1.676878071069    -1.761984796167     0.285517952034     1.007825032230
         H           -2.790332071069    -0.364085796167     0.091844952034     1.007825032230
         H           -1.898345071069    -0.629023796167     1.625733952034     1.007825032230

  Basis Set: AUG-CC-PVTZ
    Blend: AUG-CC-PVTZ
  Basis Set: (AUG-CC-PVTZ AUX)
    Blend: AUG-CC-PVTZ-JKFIT
	 Reference Energy          =    -270.1283482217185679 [Eh]
	 Singles Energy            =      -0.0000000000000000 [Eh]
	 Same-Spin Energy          =      -0.2741634121281296 [Eh]
	 Opposite-Spin Energy      =      -0.9489567519275002 [Eh]
	 Correlation Energy        =      -1.2231201640556297 [Eh]
	 Total Energy              =    -271.3514683857741829 [Eh]

	 ================> DF-SCS-MP2 Energies <==================
	-----------------------------------------------------------
	 SCS Same-Spin Scale       =       0.3333333333333333 [-]
	 SCS Opposite-Spin Scale   =       1.2000000000000000 [-]
	 SCS Same-Spin Energy      =      -0.0913878040427099 [Eh]
	 SCS Opposite-Spin Energy  =      -1.1387481023130002 [Eh]
	 SCS Correlation Energy    =      -1.2301359063557100 [Eh]
	 SCS Total Energy          =    -271.3584841280742808 [Eh]
	-----------------------------------------------------------

  Dipole Moment: [D]
     X:     0.6421      Y:    -2.2753      Z:     1.5646     Total:     2.8350

*** Psi4 exiting successfully. Buy a developer a beer!
