                               Psi4 1.3.2 release

  ==> Input File <==

--------------------------------------------------------------------------
#psi4
#
memory 32 gb

molecule  {
0 1
  O       -0.9233460     1.1259790    -0.7064150
  C        0.6908080    -0.2688650     0.3923890
  C        1.1946870    -1.2650980    -0.6685790
  C        1.6030820     0.9446750     0.4967120
  C       -0.6865801    -0.0063463     0.1309399
  C       -1.8529100    -0.7015860     0.5295210
  H        0.6514880    -0.7856950     1.3599030
  H        1.2206430    -0.7821580    -1.6480110
  H        2.2053530    -1.6017900    -0.4206070
  H        0.5514890    -2.1461630    -0.7366640
  H        1.2521310     1.6422800     1.2622420
  H        1.6225110     1.4777260    -0.4537380
  H        2.6197860     0.6362020     0.7540910
  H       -1.6800360    -1.7612670     0.2847220
  H       -2.7934900    -0.3633680     0.0910490
  H       -1.9015030    -0.6283060     1.6249380
units angstrom
no_reorient  #important for SAPT in psi4, default
symmetry c1  #important for SAPT in psi4, default
}

set PROPERTIES_ORIGIN ["COM"]
properties('MP2/aug-cc-pvtz', properties = ['dipole'])
--------------------------------------------------------------------------

    Molecular point group: c1
  Charge       = 0
  Multiplicity = 1
  Basis Set: AUG-CC-PVTZ
    Blend: AUG-CC-PVTZ
  Basis Set: (AUG-CC-PVTZ AUX)
    Blend: AUG-CC-PVTZ-JKFIT

    Orbital Energies [Eh]
    ---------------------

    Doubly Occupied:

       1A    -20.521152     2A    -11.343899     3A    -11.251153
       4A    -11.247082     5A    -11.238695     6A    -11.220303
       7A     -1.266774     8A     -1.108216     9A     -1.037170
      10A     -0.944728    11A     -0.880236    12A     -0.723480
      13A     -0.664105    14A     -0.636361    15A     -0.620128
      16A     -0.598206    17A     -0.566111    18A     -0.552437
      19A     -0.538780    20A     -0.515232    21A     -0.499304
      22A     -0.471656    23A     -0.412587    24A     -0.408340

  @DF-RHF Final Energy:  -270.05694070862864

   => Energetics <=

    Nuclear Repulsion Energy =            244.3075838737975403
    One-Electron Energy =                -850.1967773016735919
    Two-Electron Energy =                 335.8322527192474354
    Total Energy =                       -270.0569407086286446
  Basis Set: (AUG-CC-PVTZ AUX)
    Blend: AUG-CC-PVTZ-RI
    Molecular point group: c1

    Geometry (in Angstrom), charge = 0, multiplicity = 1:

       Center              X                  Y                   Z               Mass
    ------------   -----------------  -----------------  -----------------  -----------------
         O           -0.927968875174     1.148087985879    -0.722764404851    15.994914619570
         C            0.686185124826    -0.246756014121     0.376039595149    12.000000000000
         C            1.190064124826    -1.242989014121    -0.684928404851    12.000000000000
         C            1.598459124826     0.966783985879     0.480362595149    12.000000000000
         C           -0.691202975174     0.015762685879     0.114590495149    12.000000000000
         C           -1.857532875174    -0.679477014121     0.513171595149    12.000000000000
         H            0.646865124826    -0.763586014121     1.343553595149     1.007825032230
         H            1.216020124826    -0.760049014121    -1.664360404851     1.007825032230
         H            2.200730124826    -1.579681014121    -0.436956404851     1.007825032230
         H            0.546866124826    -2.124054014121    -0.753013404851     1.007825032230
         H            1.247508124826     1.664388985879     1.245892595149     1.007825032230
         H            1.617888124826     1.499834985879    -0.470087404851     1.007825032230
         H            2.615163124826     0.658310985879     0.737741595149     1.007825032230
         H           -1.684658875174    -1.739158014121     0.268372595149     1.007825032230
         H           -2.798112875174    -0.341259014121     0.074699595149     1.007825032230
         H           -1.906125875174    -0.606197014121     1.608588595149     1.007825032230

  Basis Set: AUG-CC-PVTZ
    Blend: AUG-CC-PVTZ
  Basis Set: (AUG-CC-PVTZ AUX)
    Blend: AUG-CC-PVTZ-JKFIT
	 Reference Energy          =    -270.0569407086286446 [Eh]
	 Singles Energy            =      -0.0000000000000000 [Eh]
	 Same-Spin Energy          =      -0.2817838956684983 [Eh]
	 Opposite-Spin Energy      =      -0.9635048181842332 [Eh]
	 Correlation Energy        =      -1.2452887138527315 [Eh]
	 Total Energy              =    -271.3022294224813891 [Eh]

	 ================> DF-SCS-MP2 Energies <==================
	-----------------------------------------------------------
	 SCS Same-Spin Scale       =       0.3333333333333333 [-]
	 SCS Opposite-Spin Scale   =       1.2000000000000000 [-]
	 SCS Same-Spin Energy      =      -0.0939279652228328 [Eh]
	 SCS Opposite-Spin Energy  =      -1.1562057818210798 [Eh]
	 SCS Correlation Energy    =      -1.2501337470439124 [Eh]
	 SCS Total Energy          =    -271.3070744556725344 [Eh]
	-----------------------------------------------------------

  Dipole Moment: [D]
     X:     0.7402      Y:    -2.7930      Z:     1.8817     Total:     3.4482

*** Psi4 exiting successfully. Buy a developer a beer!
