                               Psi4 1.3.2 release

  ==> Input File <==

--------------------------------------------------------------------------
#psi4
#
memory 32 gb

molecule  {
0 1
  O       -0.9233460     1.1259790    -0.7064150
  C        0.6908080    -0.2688650     0.3923890
  C        1.1946870    -1.2650980    -0.6685790
  C        1.6030820     0.9446750     0.4967120
  C       -0.7454702     0.1195272     0.0814978
  C       -1.8529100    -0.7015860     0.5295210
  H        0.5946511    -0.7772433     1.3604014
  H        1.2206430    -0.7821580    -1.6480110
  H        2.2053530    -1.6017900    -0.4206070
  H        0.5514890    -2.1461630    -0.7366640
  H        1.2521310     1.6422800     1.2622420
  H        1.6225110     1.4777260    -0.4537380
  H        2.6197860     0.6362020     0.7540910
  H       -1.6800360    -1.7612670     0.2847220
  H       -2.7934900    -0.3633680     0.0910490
  H       -1.9015030    -0.6283060     1.6249380
units angstrom
no_reorient  #important for SAPT in psi4, default
symmetry c1  #important for SAPT in psi4, default
}

set PROPERTIES_ORIGIN ["COM"]
properties('MP2/aug-cc-pvtz', properties = ['dipole'])
--------------------------------------------------------------------------

    Molecular point group: c1
  Charge       = 0
  Multiplicity = 1
  Basis Set: AUG-CC-PVTZ
    Blend: AUG-CC-PVTZ
  Basis Set: (AUG-CC-PVTZ AUX)
    Blend: AUG-CC-PVTZ-JKFIT

    Orbital Energies [Eh]
    ---------------------

    Doubly Occupied:

       1A    -20.536409     2A    -11.332461     3A    -11.246183
       4A    -11.240744     5A    -11.231184     6A    -11.215644
       7A     -1.334409     8A     -1.092130     9A     -1.023459
      10A     -0.939063    11A     -0.855292    12A     -0.721253
      13A     -0.659169    14A     -0.634828    15A     -0.613521
      16A     -0.594527    17A     -0.569988    18A     -0.555880
      19A     -0.544287    20A     -0.508673    21A     -0.495717
      22A     -0.486743    23A     -0.452420    24A     -0.411376

  @DF-RHF Final Energy:  -270.11297922174185

   => Energetics <=

    Nuclear Repulsion Energy =            244.4729176458382085
    One-Electron Energy =                -850.5810763039838776
    Two-Electron Energy =                 335.9951794364037596
    Total Energy =                       -270.1129792217418526
  Basis Set: (AUG-CC-PVTZ AUX)
    Blend: AUG-CC-PVTZ-RI
    Molecular point group: c1

    Geometry (in Angstrom), charge = 0, multiplicity = 1:

       Center              X                  Y                   Z               Mass
    ------------   -----------------  -----------------  -----------------  -----------------
         O           -0.919093137294     1.130440211037    -0.715877207193    15.994914619570
         C            0.695060862706    -0.264403788963     0.382926792807    12.000000000000
         C            1.198939862706    -1.260636788963    -0.678041207193    12.000000000000
         C            1.607334862706     0.949136211037     0.487249792807    12.000000000000
         C           -0.741217337294     0.123988411037     0.072035592807    12.000000000000
         C           -1.848657137294    -0.697124788963     0.520058792807    12.000000000000
         H            0.598903962706    -0.772782088963     1.350939192807     1.007825032230
         H            1.224895862706    -0.777696788963    -1.657473207193     1.007825032230
         H            2.209605862706    -1.597328788963    -0.430069207193     1.007825032230
         H            0.555741862706    -2.141701788963    -0.746126207193     1.007825032230
         H            1.256383862706     1.646741211037     1.252779792807     1.007825032230
         H            1.626763862706     1.482187211037    -0.463200207193     1.007825032230
         H            2.624038862706     0.640663211037     0.744628792807     1.007825032230
         H           -1.675783137294    -1.756805788963     0.275259792807     1.007825032230
         H           -2.789237137294    -0.358906788963     0.081586792807     1.007825032230
         H           -1.897250137294    -0.623844788963     1.615475792807     1.007825032230

  Basis Set: AUG-CC-PVTZ
    Blend: AUG-CC-PVTZ
  Basis Set: (AUG-CC-PVTZ AUX)
    Blend: AUG-CC-PVTZ-JKFIT
	 Reference Energy          =    -270.1129792217418526 [Eh]
	 Singles Energy            =      -0.0000000000000000 [Eh]
	 Same-Spin Energy          =      -0.2763229867217342 [Eh]
	 Opposite-Spin Energy      =      -0.9532627235795876 [Eh]
	 Correlation Energy        =      -1.2295857103013219 [Eh]
	 Total Energy              =    -271.3425649320431603 [Eh]

	 ================> DF-SCS-MP2 Energies <==================
	-----------------------------------------------------------
	 SCS Same-Spin Scale       =       0.3333333333333333 [-]
	 SCS Opposite-Spin Scale   =       1.2000000000000000 [-]
	 SCS Same-Spin Energy      =      -0.0921076622405781 [Eh]
	 SCS Opposite-Spin Energy  =      -1.1439152682955052 [Eh]
	 SCS Correlation Energy    =      -1.2360229305360833 [Eh]
	 SCS Total Energy          =    -271.3490021522779330 [Eh]
	-----------------------------------------------------------

  Dipole Moment: [D]
     X:     0.4844      Y:    -2.4936      Z:     1.7057     Total:     3.0598

*** Psi4 exiting successfully. Buy a developer a beer!
