                               Psi4 1.3.2 release

  ==> Input File <==

--------------------------------------------------------------------------
#psi4
#
memory 32 gb

molecule  {
0 1
  O       -0.9233460     1.1259790    -0.7064150
  C        0.6908080    -0.2688650     0.3923890
  C        1.1946870    -1.2650980    -0.6685790
  C        1.6030820     0.9446750     0.4967120
  C       -0.7363184     0.2315256    -0.0449665
  C       -1.8529100    -0.7015860     0.5295210
  H        0.6514880    -0.7856950     1.3599030
  H        1.2206430    -0.7821580    -1.6480110
  H        2.2053530    -1.6017900    -0.4206070
  H        0.5514890    -2.1461630    -0.7366640
  H        1.2521310     1.6422800     1.2622420
  H        1.6225110     1.4777260    -0.4537380
  H        2.6197860     0.6362020     0.7540910
  H       -1.6800360    -1.7612670     0.2847220
  H       -2.7934900    -0.3633680     0.0910490
  H       -1.9015030    -0.6283060     1.6249380
units angstrom
no_reorient  #important for SAPT in psi4, default
symmetry c1  #important for SAPT in psi4, default
}

set PROPERTIES_ORIGIN ["COM"]
properties('MP2/aug-cc-pvtz', properties = ['dipole'])
--------------------------------------------------------------------------

    Molecular point group: c1
  Charge       = 0
  Multiplicity = 1
  Basis Set: AUG-CC-PVTZ
    Blend: AUG-CC-PVTZ
  Basis Set: (AUG-CC-PVTZ AUX)
    Blend: AUG-CC-PVTZ-JKFIT

    Orbital Energies [Eh]
    ---------------------

    Doubly Occupied:

       1A    -20.551358     2A    -11.320658     3A    -11.237775
       4A    -11.230439     5A    -11.225883     6A    -11.212720
       7A     -1.448730     8A     -1.080724     9A     -0.988172
      10A     -0.935948    11A     -0.836482    12A     -0.727660
      13A     -0.677148    14A     -0.636665    15A     -0.621099
      16A     -0.602634    17A     -0.566966    18A     -0.549462
      19A     -0.545538    20A     -0.528637    21A     -0.520700
      22A     -0.484651    23A     -0.481010    24A     -0.381106

  @DF-RHF Final Energy:  -270.11986500058572

   => Energetics <=

    Nuclear Repulsion Energy =            245.5864126755265602
    One-Electron Energy =                -852.6282229518446911
    Two-Electron Energy =                 336.9219452757323552
    Total Energy =                       -270.1198650005857189
  Basis Set: (AUG-CC-PVTZ AUX)
    Blend: AUG-CC-PVTZ-RI
    Molecular point group: c1

    Geometry (in Angstrom), charge = 0, multiplicity = 1:

       Center              X                  Y                   Z               Mass
    ------------   -----------------  -----------------  -----------------  -----------------
         O           -0.921034546683     1.114924771747    -0.698240189883    15.994914619570
         C            0.693119453317    -0.279919228253     0.400563810117    12.000000000000
         C            1.196998453317    -1.276152228253    -0.660404189883    12.000000000000
         C            1.605393453317     0.933620771747     0.504886810117    12.000000000000
         C           -0.734006946683     0.220471371747    -0.036791689883    12.000000000000
         C           -1.850598546683    -0.712640228253     0.537695810117    12.000000000000
         H            0.653799453317    -0.796749228253     1.368077810117     1.007825032230
         H            1.222954453317    -0.793212228253    -1.639836189883     1.007825032230
         H            2.207664453317    -1.612844228253    -0.412432189883     1.007825032230
         H            0.553800453317    -2.157217228253    -0.728489189883     1.007825032230
         H            1.254442453317     1.631225771747     1.270416810117     1.007825032230
         H            1.624822453317     1.466671771747    -0.445563189883     1.007825032230
         H            2.622097453317     0.625147771747     0.762265810117     1.007825032230
         H           -1.677724546683    -1.772321228253     0.292896810117     1.007825032230
         H           -2.791178546683    -0.374422228253     0.099223810117     1.007825032230
         H           -1.899191546683    -0.639360228253     1.633112810117     1.007825032230

  Basis Set: AUG-CC-PVTZ
    Blend: AUG-CC-PVTZ
  Basis Set: (AUG-CC-PVTZ AUX)
    Blend: AUG-CC-PVTZ-JKFIT
	 Reference Energy          =    -270.1198650005857189 [Eh]
	 Singles Energy            =      -0.0000000000000000 [Eh]
	 Same-Spin Energy          =      -0.2717230553327781 [Eh]
	 Opposite-Spin Energy      =      -0.9437911061488040 [Eh]
	 Correlation Energy        =      -1.2155141614815821 [Eh]
	 Total Energy              =    -271.3353791620672837 [Eh]

	 ================> DF-SCS-MP2 Energies <==================
	-----------------------------------------------------------
	 SCS Same-Spin Scale       =       0.3333333333333333 [-]
	 SCS Opposite-Spin Scale   =       1.2000000000000000 [-]
	 SCS Same-Spin Energy      =      -0.0905743517775927 [Eh]
	 SCS Opposite-Spin Energy  =      -1.1325493273785647 [Eh]
	 SCS Correlation Energy    =      -1.2231236791561575 [Eh]
	 SCS Total Energy          =    -271.3429886797418931 [Eh]
	-----------------------------------------------------------

  Dipole Moment: [D]
     X:     0.5229      Y:    -1.8555      Z:     1.2927     Total:     2.3211

*** Psi4 exiting successfully. Buy a developer a beer!
