                               Psi4 1.3.2 release

  ==> Input File <==

--------------------------------------------------------------------------
#psi4
#
memory 32 gb

molecule  {
0 1
  O       -0.9233460     1.1259790    -0.7064150
  C        0.6908080    -0.2688650     0.3923890
  C        1.1946870    -1.2650980    -0.6685790
  C        1.6030820     0.9446750     0.4967120
  C       -0.7197390     0.1522350     0.0136690
  C       -1.7778506    -0.6450303     0.4953518
  H        0.6514880    -0.7856950     1.3599030
  H        1.2206430    -0.7821580    -1.6480110
  H        2.2053530    -1.6017900    -0.4206070
  H        0.5514890    -2.1461630    -0.7366640
  H        1.2521310     1.6422800     1.2622420
  H        1.6225110     1.4777260    -0.4537380
  H        2.6197860     0.6362020     0.7540910
  H       -1.6800360    -1.7612670     0.2847220
  H       -2.7934900    -0.3633680     0.0910490
  H       -1.9015030    -0.6283060     1.6249380
units angstrom
no_reorient  #important for SAPT in psi4, default
symmetry c1  #important for SAPT in psi4, default
}

set PROPERTIES_ORIGIN ["COM"]
properties('MP2/aug-cc-pvtz', properties = ['dipole'])
--------------------------------------------------------------------------

    Molecular point group: c1
  Charge       = 0
  Multiplicity = 1
  Basis Set: AUG-CC-PVTZ
    Blend: AUG-CC-PVTZ
  Basis Set: (AUG-CC-PVTZ AUX)
    Blend: AUG-CC-PVTZ-JKFIT

    Orbital Energies [Eh]
    ---------------------

    Doubly Occupied:

       1A    -20.539822     2A    -11.322154     3A    -11.242002
       4A    -11.241937     5A    -11.229139     6A    -11.214455
       7A     -1.375326     8A     -1.093613     9A     -1.018213
      10A     -0.938321    11A     -0.848098    12A     -0.728733
      13A     -0.672384    14A     -0.635537    15A     -0.614294
      16A     -0.596930    17A     -0.563326    18A     -0.549298
      19A     -0.543547    20A     -0.505846    21A     -0.496551
      22A     -0.483848    23A     -0.467138    24A     -0.412374

  @DF-RHF Final Energy:  -270.11656947761850

   => Energetics <=

    Nuclear Repulsion Energy =            246.5868336049003915
    One-Electron Energy =                -854.7410326588300222
    Two-Electron Energy =                 338.0376295763111898
    Total Energy =                       -270.1165694776184978
  Basis Set: (AUG-CC-PVTZ AUX)
    Blend: AUG-CC-PVTZ-RI
    Molecular point group: c1

    Geometry (in Angstrom), charge = 0, multiplicity = 1:

       Center              X                  Y                   Z               Mass
    ------------   -----------------  -----------------  -----------------  -----------------
         O           -0.933810486789     1.118094386808    -0.701651190282    15.994914619570
         C            0.680343513211    -0.276749613192     0.397152809718    12.000000000000
         C            1.184222513211    -1.272982613192    -0.663815190282    12.000000000000
         C            1.592617513211     0.936790386808     0.501475809718    12.000000000000
         C           -0.730203486789     0.144350386808     0.018432809718    12.000000000000
         C           -1.788315086789    -0.652914913192     0.500115609718    12.000000000000
         H            0.641023513211    -0.793579613192     1.364666809718     1.007825032230
         H            1.210178513211    -0.790042613192    -1.643247190282     1.007825032230
         H            2.194888513211    -1.609674613192    -0.415843190282     1.007825032230
         H            0.541024513211    -2.154047613192    -0.731900190282     1.007825032230
         H            1.241666513211     1.634395386808     1.267005809718     1.007825032230
         H            1.612046513211     1.469841386808    -0.448974190282     1.007825032230
         H            2.609321513211     0.628317386808     0.758854809718     1.007825032230
         H           -1.690500486789    -1.769151613192     0.289485809718     1.007825032230
         H           -2.803954486789    -0.371252613192     0.095812809718     1.007825032230
         H           -1.911967486789    -0.636190613192     1.629701809718     1.007825032230

  Basis Set: AUG-CC-PVTZ
    Blend: AUG-CC-PVTZ
  Basis Set: (AUG-CC-PVTZ AUX)
    Blend: AUG-CC-PVTZ-JKFIT
	 Reference Energy          =    -270.1165694776184978 [Eh]
	 Singles Energy            =      -0.0000000000000000 [Eh]
	 Same-Spin Energy          =      -0.2752751712511681 [Eh]
	 Opposite-Spin Energy      =      -0.9501853586991698 [Eh]
	 Correlation Energy        =      -1.2254605299503378 [Eh]
	 Total Energy              =    -271.3420300075688374 [Eh]

	 ================> DF-SCS-MP2 Energies <==================
	-----------------------------------------------------------
	 SCS Same-Spin Scale       =       0.3333333333333333 [-]
	 SCS Opposite-Spin Scale   =       1.2000000000000000 [-]
	 SCS Same-Spin Energy      =      -0.0917583904170560 [Eh]
	 SCS Opposite-Spin Energy  =      -1.1402224304390036 [Eh]
	 SCS Correlation Energy    =      -1.2319808208560596 [Eh]
	 SCS Total Energy          =    -271.3485502984745494 [Eh]
	-----------------------------------------------------------

  Dipole Moment: [D]
     X:     0.4642      Y:    -2.3955      Z:     1.6488     Total:     2.9449

*** Psi4 exiting successfully. Buy a developer a beer!
