                               Psi4 1.3.2 release

  ==> Input File <==

--------------------------------------------------------------------------
#psi4
#
memory 32 gb

molecule  {
0 1
  O       -0.9233460     1.1259790    -0.7064150
  C        0.6956483    -0.2585498     0.3855983
  C        1.1946870    -1.2650980    -0.6685790
  C        1.6030820     0.9446750     0.4967120
  C       -0.7197390     0.1522350     0.0136690
  C       -1.8615451    -0.6936512     0.5235174
  H        0.6514880    -0.7856950     1.3599030
  H        1.2206430    -0.7821580    -1.6480110
  H        2.2053530    -1.6017900    -0.4206070
  H        0.5514890    -2.1461630    -0.7366640
  H        1.2521310     1.6422800     1.2622420
  H        1.6225110     1.4777260    -0.4537380
  H        2.6197860     0.6362020     0.7540910
  H       -1.6800360    -1.7612670     0.2847220
  H       -2.7934900    -0.3633680     0.0910490
  H       -1.9015030    -0.6283060     1.6249380
units angstrom
no_reorient  #important for SAPT in psi4, default
symmetry c1  #important for SAPT in psi4, default
}

set PROPERTIES_ORIGIN ["COM"]
properties('MP2/aug-cc-pvtz', properties = ['dipole'])
--------------------------------------------------------------------------

    Molecular point group: c1
  Charge       = 0
  Multiplicity = 1
  Basis Set: AUG-CC-PVTZ
    Blend: AUG-CC-PVTZ
  Basis Set: (AUG-CC-PVTZ AUX)
    Blend: AUG-CC-PVTZ-JKFIT

    Orbital Energies [Eh]
    ---------------------

    Doubly Occupied:

       1A    -20.541411     2A    -11.328036     3A    -11.243904
       4A    -11.237292     5A    -11.229957     6A    -11.214937
       7A     -1.374021     8A     -1.091057     9A     -1.005149
      10A     -0.939976    11A     -0.850542    12A     -0.721953
      13A     -0.664126    14A     -0.634638    15A     -0.611059
      16A     -0.592949    17A     -0.574262    18A     -0.553422
      19A     -0.545830    20A     -0.517047    21A     -0.501243
      22A     -0.484086    23A     -0.470763    24A     -0.405452

  @DF-RHF Final Energy:  -270.12804870614019

   => Energetics <=

    Nuclear Repulsion Energy =            245.0005201303846434
    One-Electron Energy =                -851.5909131355205091
    Two-Electron Energy =                 336.4623442989956743
    Total Energy =                       -270.1280487061401914
  Basis Set: (AUG-CC-PVTZ AUX)
    Blend: AUG-CC-PVTZ-RI
    Molecular point group: c1

    Geometry (in Angstrom), charge = 0, multiplicity = 1:

       Center              X                  Y                   Z               Mass
    ------------   -----------------  -----------------  -----------------  -----------------
         O           -0.922816927987     1.123434824798    -0.704631199210    15.994914619570
         C            0.696177372013    -0.261093975202     0.387382100790    12.000000000000
         C            1.195216072013    -1.267642175202    -0.666795199210    12.000000000000
         C            1.603611072013     0.942130824798     0.498495800790    12.000000000000
         C           -0.719209927987     0.149690824798     0.015452800790    12.000000000000
         C           -1.861016027987    -0.696195375202     0.525301200790    12.000000000000
         H            0.652017072013    -0.788239175202     1.361686800790     1.007825032230
         H            1.221172072013    -0.784702175202    -1.646227199210     1.007825032230
         H            2.205882072013    -1.604334175202    -0.418823199210     1.007825032230
         H            0.552018072013    -2.148707175202    -0.734880199210     1.007825032230
         H            1.252660072013     1.639735824798     1.264025800790     1.007825032230
         H            1.623040072013     1.475181824798    -0.451954199210     1.007825032230
         H            2.620315072013     0.633657824798     0.755874800790     1.007825032230
         H           -1.679506927987    -1.763811175202     0.286505800790     1.007825032230
         H           -2.792960927987    -0.365912175202     0.092832800790     1.007825032230
         H           -1.900973927987    -0.630850175202     1.626721800790     1.007825032230

  Basis Set: AUG-CC-PVTZ
    Blend: AUG-CC-PVTZ
  Basis Set: (AUG-CC-PVTZ AUX)
    Blend: AUG-CC-PVTZ-JKFIT
	 Reference Energy          =    -270.1280487061401914 [Eh]
	 Singles Energy            =      -0.0000000000000000 [Eh]
	 Same-Spin Energy          =      -0.2742322388101917 [Eh]
	 Opposite-Spin Energy      =      -0.9490336880916342 [Eh]
	 Correlation Energy        =      -1.2232659269018260 [Eh]
	 Total Energy              =    -271.3513146330420227 [Eh]

	 ================> DF-SCS-MP2 Energies <==================
	-----------------------------------------------------------
	 SCS Same-Spin Scale       =       0.3333333333333333 [-]
	 SCS Opposite-Spin Scale   =       1.2000000000000000 [-]
	 SCS Same-Spin Energy      =      -0.0914107462700639 [Eh]
	 SCS Opposite-Spin Energy  =      -1.1388404257099611 [Eh]
	 SCS Correlation Energy    =      -1.2302511719800251 [Eh]
	 SCS Total Energy          =    -271.3582998781201923 [Eh]
	-----------------------------------------------------------

  Dipole Moment: [D]
     X:     0.6087      Y:    -2.2759      Z:     1.5642     Total:     2.8279

*** Psi4 exiting successfully. Buy a developer a beer!
