                               Psi4 1.3.2 release

  ==> Input File <==

--------------------------------------------------------------------------
#psi4
#
memory 32 gb

molecule  {
0 1
  O       -0.9233460     1.1259790    -0.7064150
  C        0.6908080    -0.2688650     0.3923890
  C        1.1946870    -1.2650980    -0.6685790
  C        1.6030820     0.9446750     0.4967120
  C       -0.5341406     0.0968271     0.0635006
  C       -1.8529100    -0.7015860     0.5295210
  H        0.6514880    -0.7856950     1.3599030
  H        1.2206430    -0.7821580    -1.6480110
  H        2.2053530    -1.6017900    -0.4206070
  H        0.5514890    -2.1461630    -0.7366640
  H        1.2521310     1.6422800     1.2622420
  H        1.6225110     1.4777260    -0.4537380
  H        2.6197860     0.6362020     0.7540910
  H       -1.6800360    -1.7612670     0.2847220
  H       -2.7934900    -0.3633680     0.0910490
  H       -1.9015030    -0.6283060     1.6249380
units angstrom
no_reorient  #important for SAPT in psi4, default
symmetry c1  #important for SAPT in psi4, default
}

set PROPERTIES_ORIGIN ["COM"]
properties('MP2/aug-cc-pvtz', properties = ['dipole'])
--------------------------------------------------------------------------

    Molecular point group: c1
  Charge       = 0
  Multiplicity = 1
  Basis Set: AUG-CC-PVTZ
    Blend: AUG-CC-PVTZ
  Basis Set: (AUG-CC-PVTZ AUX)
    Blend: AUG-CC-PVTZ-JKFIT

    Orbital Energies [Eh]
    ---------------------

    Doubly Occupied:

       1A    -20.528921     2A    -11.336868     3A    -11.246267
       4A    -11.243797     5A    -11.240250     6A    -11.225315
       7A     -1.305349     8A     -1.133504     9A     -0.984003
      10A     -0.952630    11A     -0.895865    12A     -0.726452
      13A     -0.662183    14A     -0.631977    15A     -0.613236
      16A     -0.579157    17A     -0.562843    18A     -0.557043
      19A     -0.543407    20A     -0.527467    21A     -0.509719
      22A     -0.486694    23A     -0.432376    24A     -0.402876

  @DF-RHF Final Energy:  -270.06261082231640

   => Energetics <=

    Nuclear Repulsion Energy =            245.6145098929567894
    One-Electron Energy =                -852.6978382543856014
    Two-Electron Energy =                 337.0207175391124110
    Total Energy =                       -270.0626108223164010
  Basis Set: (AUG-CC-PVTZ AUX)
    Blend: AUG-CC-PVTZ-RI
    Molecular point group: c1

    Geometry (in Angstrom), charge = 0, multiplicity = 1:

       Center              X                  Y                   Z               Mass
    ------------   -----------------  -----------------  -----------------  -----------------
         O           -0.949221422368     1.133703934812    -0.713362268882    15.994914619570
         C            0.664932577632    -0.261140065188     0.385441731118    12.000000000000
         C            1.168811577632    -1.257373065188    -0.675526268882    12.000000000000
         C            1.577206577632     0.952399934812     0.489764731118    12.000000000000
         C           -0.560016022368     0.104552034812     0.056553331118    12.000000000000
         C           -1.878785422368    -0.693861065188     0.522573731118    12.000000000000
         H            0.625612577632    -0.777970065188     1.352955731118     1.007825032230
         H            1.194767577632    -0.774433065188    -1.654958268882     1.007825032230
         H            2.179477577632    -1.594065065188    -0.427554268882     1.007825032230
         H            0.525613577632    -2.138438065188    -0.743611268882     1.007825032230
         H            1.226255577632     1.650004934812     1.255294731118     1.007825032230
         H            1.596635577632     1.485450934812    -0.460685268882     1.007825032230
         H            2.593910577632     0.643926934812     0.747143731118     1.007825032230
         H           -1.705911422368    -1.753542065188     0.277774731118     1.007825032230
         H           -2.819365422368    -0.355643065188     0.084101731118     1.007825032230
         H           -1.927378422368    -0.620581065188     1.617990731118     1.007825032230

  Basis Set: AUG-CC-PVTZ
    Blend: AUG-CC-PVTZ
  Basis Set: (AUG-CC-PVTZ AUX)
    Blend: AUG-CC-PVTZ-JKFIT
	 Reference Energy          =    -270.0626108223164010 [Eh]
	 Singles Energy            =      -0.0000000000000000 [Eh]
	 Same-Spin Energy          =      -0.2796622051790177 [Eh]
	 Opposite-Spin Energy      =      -0.9594325814045199 [Eh]
	 Correlation Energy        =      -1.2390947865835376 [Eh]
	 Total Energy              =    -271.3017056088999652 [Eh]

	 ================> DF-SCS-MP2 Energies <==================
	-----------------------------------------------------------
	 SCS Same-Spin Scale       =       0.3333333333333333 [-]
	 SCS Opposite-Spin Scale   =       1.2000000000000000 [-]
	 SCS Same-Spin Energy      =      -0.0932207350596726 [Eh]
	 SCS Opposite-Spin Energy  =      -1.1513190976854240 [Eh]
	 SCS Correlation Energy    =      -1.2445398327450965 [Eh]
	 SCS Total Energy          =    -271.3071506550614913 [Eh]
	-----------------------------------------------------------

  Dipole Moment: [D]
     X:     1.5275      Y:    -2.5179      Z:     1.6399     Total:     3.3708

*** Psi4 exiting successfully. Buy a developer a beer!
