                               Psi4 1.4a3.dev225

  ==> Input File <==

--------------------------------------------------------------------------
#psi4
#
memory 32 gb

molecule  {
0 1
  O        0.8586560    -1.1799710    -0.8389030
  C       -0.6220090     0.2405930     0.4084700
  C       -1.1011690     1.3295070    -0.5625920
  C       -1.6147530    -0.9146890     0.4753170
  C        0.7458620    -0.2403040    -0.0547070
  C        1.9933256     0.5289918     0.4880244
  H       -0.5088060     0.6902670     1.4041320
  H       -1.2062520     0.9086330    -1.5670350
  H       -2.0743030     1.7168190    -0.2469230
  H       -0.4032100     2.1709140    -0.6131640
  H       -1.2799510    -1.6832910     1.1776610
  H       -1.7123230    -1.3800890    -0.5076340
  H       -2.5969660    -0.5569830     0.7981250
  H        1.8130240     1.5867940     0.3929810
  H        2.8429500     0.2000390    -0.0822420
  H        2.0885060     0.2697440     1.5324280
units angstrom
no_reorient  #important for SAPT in psi4, default
symmetry c1  #important for SAPT in psi4, default
}

set PROPERTIES_ORIGIN ["COM"]
properties('MP2/aug-cc-pvtz', properties = ['dipole'])
--------------------------------------------------------------------------

    Molecular point group: c1
  Charge       = 0
  Multiplicity = 1
  Basis Set: AUG-CC-PVTZ
    Blend: AUG-CC-PVTZ
  Basis Set: (AUG-CC-PVTZ AUX)
    Blend: AUG-CC-PVTZ-JKFIT

    Orbital Energies [Eh]
    ---------------------

    Doubly Occupied:

       1A    -20.543297     2A    -11.331395     3A    -11.244016
       4A    -11.234451     5A    -11.230239     6A    -11.216274
       7A     -1.372968     8A     -1.089657     9A     -1.000221
      10A     -0.938600    11A     -0.851924    12A     -0.721530
      13A     -0.660766    14A     -0.632334    15A     -0.612153
      16A     -0.591670    17A     -0.577509    18A     -0.556767
      19A     -0.545403    20A     -0.519479    21A     -0.502201
      22A     -0.485767    23A     -0.472672    24A     -0.400569

  @DF-RHF Final Energy:  -270.12666211574782

   => Energetics <=

    Nuclear Repulsion Energy =            243.9725829276230229
    One-Electron Energy =                -849.5347669317633290
    Two-Electron Energy =                 335.4355218883925431
    Total Energy =                       -270.1266621157478198
  Basis Set: (AUG-CC-PVTZ AUX)
    Blend: AUG-CC-PVTZ-RI
    Molecular point group: c1

    Geometry (in Angstrom), charge = 0, multiplicity = 1:

       Center              X                  Y                   Z               Mass
    ------------   -----------------  -----------------  -----------------  -----------------
         O            0.818131053613    -1.138252929138    -0.814995457942    15.994914619570
         C           -0.662533946387     0.282311070862     0.432377542058    12.000000000000
         C           -1.141693946387     1.371225070862    -0.538684457942    12.000000000000
         C           -1.655277946387    -0.872970929138     0.499224542058    12.000000000000
         C            0.705337053613    -0.198585929138    -0.030799457942    12.000000000000
         C            1.952800653613     0.570709870862     0.511931942058    12.000000000000
         H           -0.549330946387     0.731985070862     1.428039542058     1.007825032230
         H           -1.246776946387     0.950351070862    -1.543127457942     1.007825032230
         H           -2.114827946387     1.758537070862    -0.223015457942     1.007825032230
         H           -0.443734946387     2.212632070862    -0.589256457942     1.007825032230
         H           -1.320475946387    -1.641572929138     1.201568542058     1.007825032230
         H           -1.752847946387    -1.338370929138    -0.483726457942     1.007825032230
         H           -2.637490946387    -0.515264929138     0.822032542058     1.007825032230
         H            1.772499053613     1.628512070862     0.416888542058     1.007825032230
         H            2.802425053613     0.241757070862    -0.058334457942     1.007825032230
         H            2.047981053613     0.311462070862     1.556335542058     1.007825032230

  Basis Set: AUG-CC-PVTZ
    Blend: AUG-CC-PVTZ
  Basis Set: (AUG-CC-PVTZ AUX)
    Blend: AUG-CC-PVTZ-JKFIT
	 Reference Energy          =    -270.1266621157478198 [Eh]
	 Singles Energy            =      -0.0000000000000000 [Eh]
	 Same-Spin Energy          =      -0.2739831684892231 [Eh]
	 Opposite-Spin Energy      =      -0.9490406104709488 [Eh]
	 Correlation Energy        =      -1.2230237789601719 [Eh]
	 Total Energy              =    -271.3496858947079886 [Eh]

	 ================> DF-SCS-MP2 Energies <==================
	-----------------------------------------------------------
	 SCS Same-Spin Scale       =       0.3333333333333333 [-]
	 SCS Opposite-Spin Scale   =       1.2000000000000000 [-]
	 SCS Same-Spin Energy      =      -0.0913277228297410 [Eh]
	 SCS Opposite-Spin Energy  =      -1.1388487325651384 [Eh]
	 SCS Correlation Energy    =      -1.2301764553948795 [Eh]
	 SCS Total Energy          =    -271.3568385711427027 [Eh]
	-----------------------------------------------------------

  Dipole Moment: [D]
     X:    -0.4773      Y:     2.1520      Z:     1.6951     Total:     2.7807

*** Psi4 exiting successfully. Buy a developer a beer!
