                               Psi4 1.3.2 release

  ==> Input File <==

--------------------------------------------------------------------------
#psi4
#
memory 32 gb

molecule  {
0 1
  O       -0.9233460     1.1259790    -0.7064150
  C        0.6908080    -0.2688650     0.3923890
  C        1.1946870    -1.2650980    -0.6685790
  C        1.6030820     0.9446750     0.4967120
  C       -0.8125382     0.1799390    -0.0112468
  C       -1.8529100    -0.7015860     0.5295210
  H        0.6514880    -0.7856950     1.3599030
  H        1.2206430    -0.7821580    -1.6480110
  H        2.2053530    -1.6017900    -0.4206070
  H        0.5514890    -2.1461630    -0.7366640
  H        1.2521310     1.6422800     1.2622420
  H        1.6225110     1.4777260    -0.4537380
  H        2.6197860     0.6362020     0.7540910
  H       -1.6800360    -1.7612670     0.2847220
  H       -2.7934900    -0.3633680     0.0910490
  H       -1.9015030    -0.6283060     1.6249380
units angstrom
no_reorient  #important for SAPT in psi4, default
symmetry c1  #important for SAPT in psi4, default
}

set PROPERTIES_ORIGIN ["COM"]
properties('MP2/aug-cc-pvtz', properties = ['dipole'])
--------------------------------------------------------------------------

    Molecular point group: c1
  Charge       = 0
  Multiplicity = 1
  Basis Set: AUG-CC-PVTZ
    Blend: AUG-CC-PVTZ
  Basis Set: (AUG-CC-PVTZ AUX)
    Blend: AUG-CC-PVTZ-JKFIT

    Orbital Energies [Eh]
    ---------------------

    Doubly Occupied:

       1A    -20.547856     2A    -11.325166     3A    -11.237858
       4A    -11.237683     5A    -11.223346     6A    -11.210450
       7A     -1.409474     8A     -1.076034     9A     -1.017206
      10A     -0.932846    11A     -0.829563    12A     -0.726065
      13A     -0.668061    14A     -0.635647    15A     -0.618824
      16A     -0.604948    17A     -0.572196    18A     -0.551493
      19A     -0.542500    20A     -0.519185    21A     -0.507359
      22A     -0.481060    23A     -0.476381    24A     -0.387789

  @DF-RHF Final Energy:  -270.12274232114129

   => Energetics <=

    Nuclear Repulsion Energy =            244.7861289824477069
    One-Electron Energy =                -851.1397619291683441
    Two-Electron Energy =                 336.2308906255793204
    Total Energy =                       -270.1227423211412884
  Basis Set: (AUG-CC-PVTZ AUX)
    Blend: AUG-CC-PVTZ-RI
    Molecular point group: c1

    Geometry (in Angstrom), charge = 0, multiplicity = 1:

       Center              X                  Y                   Z               Mass
    ------------   -----------------  -----------------  -----------------  -----------------
         O           -0.910408266116     1.122116783338    -0.702941264838    15.994914619570
         C            0.703745733884    -0.272727216662     0.395862735162    12.000000000000
         C            1.207624733884    -1.268960216662    -0.665105264838    12.000000000000
         C            1.616019733884     0.940812783338     0.500185735162    12.000000000000
         C           -0.799600466116     0.176076783338    -0.007773064838    12.000000000000
         C           -1.839972266116    -0.705448216662     0.532994735162    12.000000000000
         H            0.664425733884    -0.789557216662     1.363376735162     1.007825032230
         H            1.233580733884    -0.786020216662    -1.644537264838     1.007825032230
         H            2.218290733884    -1.605652216662    -0.417133264838     1.007825032230
         H            0.564426733884    -2.150025216662    -0.733190264838     1.007825032230
         H            1.265068733884     1.638417783338     1.265715735162     1.007825032230
         H            1.635448733884     1.473863783338    -0.450264264838     1.007825032230
         H            2.632723733884     0.632339783338     0.757564735162     1.007825032230
         H           -1.667098266116    -1.765129216662     0.288195735162     1.007825032230
         H           -2.780552266116    -0.367230216662     0.094522735162     1.007825032230
         H           -1.888565266116    -0.632168216662     1.628411735162     1.007825032230

  Basis Set: AUG-CC-PVTZ
    Blend: AUG-CC-PVTZ
  Basis Set: (AUG-CC-PVTZ AUX)
    Blend: AUG-CC-PVTZ-JKFIT
	 Reference Energy          =    -270.1227423211412884 [Eh]
	 Singles Energy            =      -0.0000000000000000 [Eh]
	 Same-Spin Energy          =      -0.2731710756537242 [Eh]
	 Opposite-Spin Energy      =      -0.9467363052611082 [Eh]
	 Correlation Energy        =      -1.2199073809148324 [Eh]
	 Total Energy              =    -271.3426497020561214 [Eh]

	 ================> DF-SCS-MP2 Energies <==================
	-----------------------------------------------------------
	 SCS Same-Spin Scale       =       0.3333333333333333 [-]
	 SCS Opposite-Spin Scale   =       1.2000000000000000 [-]
	 SCS Same-Spin Energy      =      -0.0910570252179081 [Eh]
	 SCS Opposite-Spin Energy  =      -1.1360835663133297 [Eh]
	 SCS Correlation Energy    =      -1.2271405915312379 [Eh]
	 SCS Total Energy          =    -271.3498829126725127 [Eh]
	-----------------------------------------------------------

  Dipole Moment: [D]
     X:     0.1075      Y:    -2.1475      Z:     1.5049     Total:     2.6245

*** Psi4 exiting successfully. Buy a developer a beer!
