                               Psi4 1.3.2 release

  ==> Input File <==

--------------------------------------------------------------------------
#psi4
#
memory 32 gb

molecule  {
0 1
  O       -0.9233460     1.1259790    -0.7064150
  C        0.6908080    -0.2688650     0.3923890
  C        1.1946870    -1.2650980    -0.6685790
  C        1.6030820     0.9446750     0.4967120
  C       -0.6968017     0.1087321    -0.0052577
  C       -1.8529100    -0.7015860     0.5295210
  H        0.6514880    -0.7856950     1.3599030
  H        1.2206430    -0.7821580    -1.6480110
  H        2.2053530    -1.6017900    -0.4206070
  H        0.5514890    -2.1461630    -0.7366640
  H        1.2521310     1.6422800     1.2622420
  H        1.6225110     1.4777260    -0.4537380
  H        2.6197860     0.6362020     0.7540910
  H       -1.6470834    -1.7512510     0.2676533
  H       -2.7934900    -0.3633680     0.0910490
  H       -1.9015030    -0.6283060     1.6249380
units angstrom
no_reorient  #important for SAPT in psi4, default
symmetry c1  #important for SAPT in psi4, default
}

set PROPERTIES_ORIGIN ["COM"]
properties('MP2/aug-cc-pvtz', properties = ['dipole'])
--------------------------------------------------------------------------

    Molecular point group: c1
  Charge       = 0
  Multiplicity = 1
  Basis Set: AUG-CC-PVTZ
    Blend: AUG-CC-PVTZ
  Basis Set: (AUG-CC-PVTZ AUX)
    Blend: AUG-CC-PVTZ-JKFIT

    Orbital Energies [Eh]
    ---------------------

    Doubly Occupied:

       1A    -20.538979     2A    -11.330240     3A    -11.244456
       4A    -11.238287     5A    -11.231835     6A    -11.216795
       7A     -1.355368     8A     -1.096218     9A     -1.005950
      10A     -0.940777    11A     -0.856848    12A     -0.723070
      13A     -0.662314    14A     -0.633915    15A     -0.612636
      16A     -0.587517    17A     -0.571228    18A     -0.556813
      19A     -0.546755    20A     -0.515000    21A     -0.500028
      22A     -0.486745    23A     -0.462780    24A     -0.408871

  @DF-RHF Final Energy:  -270.12265920065261

   => Energetics <=

    Nuclear Repulsion Energy =            245.0181470549304663
    One-Electron Energy =                -851.6347608224206169
    Two-Electron Energy =                 336.4939545668376013
    Total Energy =                       -270.1226592006526062
  Basis Set: (AUG-CC-PVTZ AUX)
    Blend: AUG-CC-PVTZ-RI
    Molecular point group: c1

    Geometry (in Angstrom), charge = 0, multiplicity = 1:

       Center              X                  Y                   Z               Mass
    ------------   -----------------  -----------------  -----------------  -----------------
         O           -0.926929657610     1.131926907377    -0.703576386561    15.994914619570
         C            0.687224342390    -0.262917092623     0.395227613439    12.000000000000
         C            1.191103342390    -1.259150092623    -0.665740386561    12.000000000000
         C            1.599498342390     0.950622907377     0.499550613439    12.000000000000
         C           -0.700385357610     0.114680007377    -0.002419086561    12.000000000000
         C           -1.856493657610    -0.695638092623     0.532359613439    12.000000000000
         H            0.647904342390    -0.779747092623     1.362741613439     1.007825032230
         H            1.217059342390    -0.776210092623    -1.645172386561     1.007825032230
         H            2.201769342390    -1.595842092623    -0.417768386561     1.007825032230
         H            0.547905342390    -2.140215092623    -0.733825386561     1.007825032230
         H            1.248547342390     1.648227907377     1.265080613439     1.007825032230
         H            1.618927342390     1.483673907377    -0.450899386561     1.007825032230
         H            2.616202342390     0.642149907377     0.756929613439     1.007825032230
         H           -1.650667057610    -1.745303092623     0.270491913439     1.007825032230
         H           -2.797073657610    -0.357420092623     0.093887613439     1.007825032230
         H           -1.905086657610    -0.622358092623     1.627776613439     1.007825032230

  Basis Set: AUG-CC-PVTZ
    Blend: AUG-CC-PVTZ
  Basis Set: (AUG-CC-PVTZ AUX)
    Blend: AUG-CC-PVTZ-JKFIT
	 Reference Energy          =    -270.1226592006526062 [Eh]
	 Singles Energy            =      -0.0000000000000000 [Eh]
	 Same-Spin Energy          =      -0.2752052132235876 [Eh]
	 Opposite-Spin Energy      =      -0.9509863191503211 [Eh]
	 Correlation Energy        =      -1.2261915323739085 [Eh]
	 Total Energy              =    -271.3488507330264952 [Eh]

	 ================> DF-SCS-MP2 Energies <==================
	-----------------------------------------------------------
	 SCS Same-Spin Scale       =       0.3333333333333333 [-]
	 SCS Opposite-Spin Scale   =       1.2000000000000000 [-]
	 SCS Same-Spin Energy      =      -0.0917350710745292 [Eh]
	 SCS Opposite-Spin Energy  =      -1.1411835829803851 [Eh]
	 SCS Correlation Energy    =      -1.2329186540549144 [Eh]
	 SCS Total Energy          =    -271.3555778547075192 [Eh]
	-----------------------------------------------------------

  Dipole Moment: [D]
     X:     0.7271      Y:    -2.3557      Z:     1.6094     Total:     2.9442

*** Psi4 exiting successfully. Buy a developer a beer!
