                               Psi4 1.3.2 release

  ==> Input File <==

--------------------------------------------------------------------------
#psi4
#
memory 32 gb

molecule  {
0 1
  O       -0.9233460     1.1259790    -0.7064150
  C        0.6908080    -0.2688650     0.3923890
  C        1.1946870    -1.2650980    -0.6685790
  C        1.6030820     0.9446750     0.4967120
  C       -0.7150725     0.1575765     0.0024601
  C       -1.8529100    -0.7015860     0.5295210
  H        0.6609755    -0.7869665     1.3595620
  H        1.2206430    -0.7821580    -1.6480110
  H        2.2053530    -1.6017900    -0.4206070
  H        0.5514890    -2.1461630    -0.7366640
  H        1.2521310     1.6422800     1.2622420
  H        1.6225110     1.4777260    -0.4537380
  H        2.6197860     0.6362020     0.7540910
  H       -1.6800360    -1.7612670     0.2847220
  H       -2.7934900    -0.3633680     0.0910490
  H       -1.9015030    -0.6283060     1.6249380
units angstrom
no_reorient  #important for SAPT in psi4, default
symmetry c1  #important for SAPT in psi4, default
}

set PROPERTIES_ORIGIN ["COM"]
properties('MP2/aug-cc-pvtz', properties = ['dipole'])
--------------------------------------------------------------------------

    Molecular point group: c1
  Charge       = 0
  Multiplicity = 1
  Basis Set: AUG-CC-PVTZ
    Blend: AUG-CC-PVTZ
  Basis Set: (AUG-CC-PVTZ AUX)
    Blend: AUG-CC-PVTZ-JKFIT

    Orbital Energies [Eh]
    ---------------------

    Doubly Occupied:

       1A    -20.543111     2A    -11.327737     3A    -11.242707
       4A    -11.236103     5A    -11.229763     6A    -11.215119
       7A     -1.381050     8A     -1.090509     9A     -1.001881
      10A     -0.938969    11A     -0.850032    12A     -0.723969
      13A     -0.665784    14A     -0.632925    15A     -0.612280
      16A     -0.593909    17A     -0.571690    18A     -0.553805
      19A     -0.545908    20A     -0.516979    21A     -0.502229
      22A     -0.485363    23A     -0.473703    24A     -0.403781

  @DF-RHF Final Energy:  -270.12931967416057

   => Energetics <=

    Nuclear Repulsion Energy =            245.0381317586863474
    One-Electron Energy =                -851.6562940363185135
    Two-Electron Energy =                 336.4888426034715394
    Total Energy =                       -270.1293196741605698
  Basis Set: (AUG-CC-PVTZ AUX)
    Blend: AUG-CC-PVTZ-RI
    Molecular point group: c1

    Geometry (in Angstrom), charge = 0, multiplicity = 1:

       Center              X                  Y                   Z               Mass
    ------------   -----------------  -----------------  -----------------  -----------------
         O           -0.924107659426     1.125249367689    -0.704848237025    15.994914619570
         C            0.690046340574    -0.269594632311     0.393955762975    12.000000000000
         C            1.193925340574    -1.265827632311    -0.667012237025    12.000000000000
         C            1.602320340574     0.943945367689     0.498278762975    12.000000000000
         C           -0.715834159426     0.156846867689     0.004026862975    12.000000000000
         C           -1.853671659426    -0.702315632311     0.531087762975    12.000000000000
         H            0.660213840574    -0.787696132311     1.361128762975     1.007825032230
         H            1.219881340574    -0.782887632311    -1.646444237025     1.007825032230
         H            2.204591340574    -1.602519632311    -0.419040237025     1.007825032230
         H            0.550727340574    -2.146892632311    -0.735097237025     1.007825032230
         H            1.251369340574     1.641550367689     1.263808762975     1.007825032230
         H            1.621749340574     1.476996367689    -0.452171237025     1.007825032230
         H            2.619024340574     0.635472367689     0.755657762975     1.007825032230
         H           -1.680797659426    -1.761996632311     0.286288762975     1.007825032230
         H           -2.794251659426    -0.364097632311     0.092615762975     1.007825032230
         H           -1.902264659426    -0.629035632311     1.626504762975     1.007825032230

  Basis Set: AUG-CC-PVTZ
    Blend: AUG-CC-PVTZ
  Basis Set: (AUG-CC-PVTZ AUX)
    Blend: AUG-CC-PVTZ-JKFIT
	 Reference Energy          =    -270.1293196741605698 [Eh]
	 Singles Energy            =      -0.0000000000000000 [Eh]
	 Same-Spin Energy          =      -0.2739220788634927 [Eh]
	 Opposite-Spin Energy      =      -0.9484459749831397 [Eh]
	 Correlation Energy        =      -1.2223680538466324 [Eh]
	 Total Energy              =    -271.3516877280072208 [Eh]

	 ================> DF-SCS-MP2 Energies <==================
	-----------------------------------------------------------
	 SCS Same-Spin Scale       =       0.3333333333333333 [-]
	 SCS Opposite-Spin Scale   =       1.2000000000000000 [-]
	 SCS Same-Spin Energy      =      -0.0913073596211642 [Eh]
	 SCS Opposite-Spin Energy  =      -1.1381351699797675 [Eh]
	 SCS Correlation Energy    =      -1.2294425296009317 [Eh]
	 SCS Total Energy          =    -271.3587622037615006 [Eh]
	-----------------------------------------------------------

  Dipole Moment: [D]
     X:     0.6352      Y:    -2.2392      Z:     1.5379     Total:     2.7898

*** Psi4 exiting successfully. Buy a developer a beer!
