                               Psi4 1.3.2 release

  ==> Input File <==

--------------------------------------------------------------------------
#psi4
#
memory 32 gb

molecule  {
0 1
  O       -0.9021972     1.1292164    -0.7076981
  C        0.7004170    -0.2486520     0.3781457
  C        1.1946870    -1.2650980    -0.6685790
  C        1.6030820     0.9446750     0.4967120
  C       -0.7197390     0.1522350     0.0136690
  C       -1.8529100    -0.7015860     0.5295210
  H        0.6514880    -0.7856950     1.3599030
  H        1.2206430    -0.7821580    -1.6480110
  H        2.2053530    -1.6017900    -0.4206070
  H        0.5514890    -2.1461630    -0.7366640
  H        1.2521310     1.6422800     1.2622420
  H        1.6225110     1.4777260    -0.4537380
  H        2.6197860     0.6362020     0.7540910
  H       -1.6800360    -1.7612670     0.2847220
  H       -2.7934900    -0.3633680     0.0910490
  H       -1.9015030    -0.6283060     1.6249380
units angstrom
no_reorient  #important for SAPT in psi4, default
symmetry c1  #important for SAPT in psi4, default
}

set PROPERTIES_ORIGIN ["COM"]
properties('MP2/aug-cc-pvtz', properties = ['dipole'])
--------------------------------------------------------------------------

    Molecular point group: c1
  Charge       = 0
  Multiplicity = 1
  Basis Set: AUG-CC-PVTZ
    Blend: AUG-CC-PVTZ
  Basis Set: (AUG-CC-PVTZ AUX)
    Blend: AUG-CC-PVTZ-JKFIT

    Orbital Energies [Eh]
    ---------------------

    Doubly Occupied:

       1A    -20.541731     2A    -11.328217     3A    -11.243127
       4A    -11.238653     5A    -11.229441     6A    -11.213781
       7A     -1.374387     8A     -1.091034     9A     -1.006618
      10A     -0.940345    11A     -0.849411    12A     -0.720557
      13A     -0.664221    14A     -0.634514    15A     -0.612632
      16A     -0.594228    17A     -0.572795    18A     -0.554346
      19A     -0.545668    20A     -0.516777    21A     -0.502172
      22A     -0.482255    23A     -0.469750    24A     -0.405389

  @DF-RHF Final Energy:  -270.12729286691660

   => Energetics <=

    Nuclear Repulsion Energy =            245.2106587383172496
    One-Electron Energy =                -852.0118071070551196
    Two-Electron Energy =                 336.6738555018212082
    Total Energy =                       -270.1272928669166049
  Basis Set: (AUG-CC-PVTZ AUX)
    Blend: AUG-CC-PVTZ-RI
    Molecular point group: c1

    Geometry (in Angstrom), charge = 0, multiplicity = 1:

       Center              X                  Y                   Z               Mass
    ------------   -----------------  -----------------  -----------------  -----------------
         O           -0.907466902212     1.125796946927    -0.705473847474    15.994914619570
         C            0.695147297788    -0.252071453073     0.380369952526    12.000000000000
         C            1.189417297788    -1.268517453073    -0.666354747474    12.000000000000
         C            1.597812297788     0.941255546927     0.498936252526    12.000000000000
         C           -0.725008702212     0.148815546927     0.015893252526    12.000000000000
         C           -1.858179702212    -0.705005453073     0.531745252526    12.000000000000
         H            0.646218297788    -0.789114453073     1.362127252526     1.007825032230
         H            1.215373297788    -0.785577453073    -1.645786747474     1.007825032230
         H            2.200083297788    -1.605209453073    -0.418382747474     1.007825032230
         H            0.546219297788    -2.149582453073    -0.734439747474     1.007825032230
         H            1.246861297788     1.638860546927     1.264466252526     1.007825032230
         H            1.617241297788     1.474306546927    -0.451513747474     1.007825032230
         H            2.614516297788     0.632782546927     0.756315252526     1.007825032230
         H           -1.685305702212    -1.764686453073     0.286946252526     1.007825032230
         H           -2.798759702212    -0.366787453073     0.093273252526     1.007825032230
         H           -1.906772702212    -0.631725453073     1.627162252526     1.007825032230

  Basis Set: AUG-CC-PVTZ
    Blend: AUG-CC-PVTZ
  Basis Set: (AUG-CC-PVTZ AUX)
    Blend: AUG-CC-PVTZ-JKFIT
	 Reference Energy          =    -270.1272928669166049 [Eh]
	 Singles Energy            =      -0.0000000000000000 [Eh]
	 Same-Spin Energy          =      -0.2743594343319193 [Eh]
	 Opposite-Spin Energy      =      -0.9492186982198034 [Eh]
	 Correlation Energy        =      -1.2235781325517228 [Eh]
	 Total Energy              =    -271.3508709994683272 [Eh]

	 ================> DF-SCS-MP2 Energies <==================
	-----------------------------------------------------------
	 SCS Same-Spin Scale       =       0.3333333333333333 [-]
	 SCS Opposite-Spin Scale   =       1.2000000000000000 [-]
	 SCS Same-Spin Energy      =      -0.0914531447773064 [Eh]
	 SCS Opposite-Spin Energy  =      -1.1390624378637642 [Eh]
	 SCS Correlation Energy    =      -1.2305155826410705 [Eh]
	 SCS Total Energy          =    -271.3578084495576945 [Eh]
	-----------------------------------------------------------

  Dipole Moment: [D]
     X:     0.5434      Y:    -2.2787      Z:     1.5634     Total:     2.8163

*** Psi4 exiting successfully. Buy a developer a beer!
