                               Psi4 1.3.2 release

  ==> Input File <==

--------------------------------------------------------------------------
#psi4
#
memory 32 gb

molecule  {
0 1
  O       -0.9233460     1.1259790    -0.7064150
  C        0.6908080    -0.2688650     0.3923890
  C        1.2640699    -1.2701584    -0.6278118
  C        1.6030820     0.9446750     0.4967120
  C       -0.7210204     0.1985870     0.0783412
  C       -1.8529100    -0.7015860     0.5295210
  H        0.6514880    -0.7856950     1.3599030
  H        1.2206430    -0.7821580    -1.6480110
  H        2.2053530    -1.6017900    -0.4206070
  H        0.5514890    -2.1461630    -0.7366640
  H        1.2521310     1.6422800     1.2622420
  H        1.6225110     1.4777260    -0.4537380
  H        2.6197860     0.6362020     0.7540910
  H       -1.6800360    -1.7612670     0.2847220
  H       -2.7934900    -0.3633680     0.0910490
  H       -1.9015030    -0.6283060     1.6249380
units angstrom
no_reorient  #important for SAPT in psi4, default
symmetry c1  #important for SAPT in psi4, default
}

set PROPERTIES_ORIGIN ["COM"]
properties('MP2/aug-cc-pvtz', properties = ['dipole'])
--------------------------------------------------------------------------

    Molecular point group: c1
  Charge       = 0
  Multiplicity = 1
  Basis Set: AUG-CC-PVTZ
    Blend: AUG-CC-PVTZ
  Basis Set: (AUG-CC-PVTZ AUX)
    Blend: AUG-CC-PVTZ-JKFIT

    Orbital Energies [Eh]
    ---------------------

    Doubly Occupied:

       1A    -20.545078     2A    -11.331076     3A    -11.243589
       4A    -11.237446     5A    -11.231536     6A    -11.214206
       7A     -1.373866     8A     -1.090145     9A     -1.004764
      10A     -0.938518    11A     -0.853534    12A     -0.722654
      13A     -0.664979    14A     -0.630512    15A     -0.615795
      16A     -0.592715    17A     -0.576210    18A     -0.562745
      19A     -0.538757    20A     -0.518470    21A     -0.496462
      22A     -0.477810    23A     -0.468088    24A     -0.408391

  @DF-RHF Final Energy:  -270.11627258462585

   => Energetics <=

    Nuclear Repulsion Energy =            244.5091161450508537
    One-Electron Energy =                -850.5760900437264809
    Two-Electron Energy =                 335.9507013140498088
    Total Energy =                       -270.1162725846258468
  Basis Set: (AUG-CC-PVTZ AUX)
    Blend: AUG-CC-PVTZ-RI
    Molecular point group: c1

    Geometry (in Angstrom), charge = 0, multiplicity = 1:

       Center              X                  Y                   Z               Mass
    ------------   -----------------  -----------------  -----------------  -----------------
         O           -0.932840442292     1.120222450765    -0.721114901198    15.994914619570
         C            0.681313557708    -0.274621549235     0.377689098802    12.000000000000
         C            1.254575457708    -1.275914949235    -0.642511701198    12.000000000000
         C            1.593587557708     0.938918450765     0.482012098802    12.000000000000
         C           -0.730514842292     0.192830450765     0.063641298802    12.000000000000
         C           -1.862404442292    -0.707342549235     0.514821098802    12.000000000000
         H            0.641993557708    -0.791451549235     1.345203098802     1.007825032230
         H            1.211148557708    -0.787914549235    -1.662710901198     1.007825032230
         H            2.195858557708    -1.607546549235    -0.435306901198     1.007825032230
         H            0.541994557708    -2.151919549235    -0.751363901198     1.007825032230
         H            1.242636557708     1.636523450765     1.247542098802     1.007825032230
         H            1.613016557708     1.471969450765    -0.468437901198     1.007825032230
         H            2.610291557708     0.630445450765     0.739391098802     1.007825032230
         H           -1.689530442292    -1.767023549235     0.270022098802     1.007825032230
         H           -2.802984442292    -0.369124549235     0.076349098802     1.007825032230
         H           -1.910997442292    -0.634062549235     1.610238098802     1.007825032230

  Basis Set: AUG-CC-PVTZ
    Blend: AUG-CC-PVTZ
  Basis Set: (AUG-CC-PVTZ AUX)
    Blend: AUG-CC-PVTZ-JKFIT
	 Reference Energy          =    -270.1162725846258468 [Eh]
	 Singles Energy            =      -0.0000000000000000 [Eh]
	 Same-Spin Energy          =      -0.2744476424199133 [Eh]
	 Opposite-Spin Energy      =      -0.9500593340175869 [Eh]
	 Correlation Energy        =      -1.2245069764375001 [Eh]
	 Total Energy              =    -271.3407795610633571 [Eh]

	 ================> DF-SCS-MP2 Energies <==================
	-----------------------------------------------------------
	 SCS Same-Spin Scale       =       0.3333333333333333 [-]
	 SCS Opposite-Spin Scale   =       1.2000000000000000 [-]
	 SCS Same-Spin Energy      =      -0.0914825474733044 [Eh]
	 SCS Opposite-Spin Energy  =      -1.1400712008211042 [Eh]
	 SCS Correlation Energy    =      -1.2315537482944086 [Eh]
	 SCS Total Energy          =    -271.3478263329202491 [Eh]
	-----------------------------------------------------------

  Dipole Moment: [D]
     X:     0.6045      Y:    -2.2443      Z:     1.5718     Total:     2.8058

*** Psi4 exiting successfully. Buy a developer a beer!
