                               Psi4 1.3.2 release

  ==> Input File <==

--------------------------------------------------------------------------
#psi4
#
memory 32 gb

molecule  {
0 1
  O       -0.9233460     1.1259790    -0.7064150
  C        0.7003809    -0.2482033     0.3787793
  C        1.1946870    -1.2650980    -0.6685790
  C        1.6030820     0.9446750     0.4967120
  C       -0.7197390     0.1522350     0.0136690
  C       -1.8700933    -0.6856521     0.5174749
  H        0.6514880    -0.7856950     1.3599030
  H        1.2206430    -0.7821580    -1.6480110
  H        2.2053530    -1.6017900    -0.4206070
  H        0.5514890    -2.1461630    -0.7366640
  H        1.2521310     1.6422800     1.2622420
  H        1.6225110     1.4777260    -0.4537380
  H        2.6197860     0.6362020     0.7540910
  H       -1.6800360    -1.7612670     0.2847220
  H       -2.7934900    -0.3633680     0.0910490
  H       -1.9015030    -0.6283060     1.6249380
units angstrom
no_reorient  #important for SAPT in psi4, default
symmetry c1  #important for SAPT in psi4, default
}

set PROPERTIES_ORIGIN ["COM"]
properties('MP2/aug-cc-pvtz', properties = ['dipole'])
--------------------------------------------------------------------------

    Molecular point group: c1
  Charge       = 0
  Multiplicity = 1
  Basis Set: AUG-CC-PVTZ
    Blend: AUG-CC-PVTZ
  Basis Set: (AUG-CC-PVTZ AUX)
    Blend: AUG-CC-PVTZ-JKFIT

    Orbital Energies [Eh]
    ---------------------

    Doubly Occupied:

       1A    -20.540674     2A    -11.327782     3A    -11.244746
       4A    -11.237762     5A    -11.230015     6A    -11.214716
       7A     -1.373927     8A     -1.091590     9A     -1.005338
      10A     -0.941005    11A     -0.850429    12A     -0.720629
      13A     -0.663725    14A     -0.636358    15A     -0.610305
      16A     -0.592504    17A     -0.576134    18A     -0.552615
      19A     -0.545967    20A     -0.518504    21A     -0.501936
      22A     -0.482651    23A     -0.469479    24A     -0.405406

  @DF-RHF Final Energy:  -270.12675304866002

   => Energetics <=

    Nuclear Repulsion Energy =            245.0511229618450102
    One-Electron Energy =                -851.6873564456309396
    Two-Electron Energy =                 336.5094804351258517
    Total Energy =                       -270.1267530486600208
  Basis Set: (AUG-CC-PVTZ AUX)
    Blend: AUG-CC-PVTZ-RI
    Molecular point group: c1

    Geometry (in Angstrom), charge = 0, multiplicity = 1:

       Center              X                  Y                   Z               Mass
    ------------   -----------------  -----------------  -----------------  -----------------
         O           -0.922284971250     1.120877149591    -0.702838096794    15.994914619570
         C            0.701441928750    -0.253305150409     0.382356203206    12.000000000000
         C            1.195748028750    -1.270199850409    -0.665002096794    12.000000000000
         C            1.604143028750     0.939573149591     0.500288903206    12.000000000000
         C           -0.718677971250     0.147133149591     0.017245903206    12.000000000000
         C           -1.869032271250    -0.690753950409     0.521051803206    12.000000000000
         H            0.652549028750    -0.790796850409     1.363479903206     1.007825032230
         H            1.221704028750    -0.787259850409    -1.644434096794     1.007825032230
         H            2.206414028750    -1.606891850409    -0.417030096794     1.007825032230
         H            0.552550028750    -2.151264850409    -0.733087096794     1.007825032230
         H            1.253192028750     1.637178149591     1.265818903206     1.007825032230
         H            1.623572028750     1.472624149591    -0.450161096794     1.007825032230
         H            2.620847028750     0.631100149591     0.757667903206     1.007825032230
         H           -1.678974971250    -1.766368850409     0.288298903206     1.007825032230
         H           -2.792428971250    -0.368469850409     0.094625903206     1.007825032230
         H           -1.900441971250    -0.633407850409     1.628514903206     1.007825032230

  Basis Set: AUG-CC-PVTZ
    Blend: AUG-CC-PVTZ
  Basis Set: (AUG-CC-PVTZ AUX)
    Blend: AUG-CC-PVTZ-JKFIT
	 Reference Energy          =    -270.1267530486600208 [Eh]
	 Singles Energy            =      -0.0000000000000000 [Eh]
	 Same-Spin Energy          =      -0.2742803991045935 [Eh]
	 Opposite-Spin Energy      =      -0.9490931144831728 [Eh]
	 Correlation Energy        =      -1.2233735135877661 [Eh]
	 Total Energy              =    -271.3501265622477945 [Eh]

	 ================> DF-SCS-MP2 Energies <==================
	-----------------------------------------------------------
	 SCS Same-Spin Scale       =       0.3333333333333333 [-]
	 SCS Opposite-Spin Scale   =       1.2000000000000000 [-]
	 SCS Same-Spin Energy      =      -0.0914267997015311 [Eh]
	 SCS Opposite-Spin Energy  =      -1.1389117373798072 [Eh]
	 SCS Correlation Energy    =      -1.2303385370813384 [Eh]
	 SCS Total Energy          =    -271.3570915857413866 [Eh]
	-----------------------------------------------------------

  Dipole Moment: [D]
     X:     0.6077      Y:    -2.2721      Z:     1.5624     Total:     2.8236

*** Psi4 exiting successfully. Buy a developer a beer!
