                               Psi4 1.3.2 release

  ==> Input File <==

--------------------------------------------------------------------------
#psi4
#
memory 32 gb

molecule  {
0 1
  O       -0.9127974     1.1278273    -0.7068185
  C        0.6908080    -0.2688650     0.3923890
  C        1.1946870    -1.2650980    -0.6685790
  C        1.6030820     0.9446750     0.4967120
  C       -0.7197390     0.1522350     0.0136690
  C       -1.8442124    -0.7092331     0.5358014
  H        0.6514880    -0.7856950     1.3599030
  H        1.2206430    -0.7821580    -1.6480110
  H        2.2053530    -1.6017900    -0.4206070
  H        0.5514890    -2.1461630    -0.7366640
  H        1.2521310     1.6422800     1.2622420
  H        1.6225110     1.4777260    -0.4537380
  H        2.6197860     0.6362020     0.7540910
  H       -1.6800360    -1.7612670     0.2847220
  H       -2.7934900    -0.3633680     0.0910490
  H       -1.9015030    -0.6283060     1.6249380
units angstrom
no_reorient  #important for SAPT in psi4, default
symmetry c1  #important for SAPT in psi4, default
}

set PROPERTIES_ORIGIN ["COM"]
properties('MP2/aug-cc-pvtz', properties = ['dipole'])
--------------------------------------------------------------------------

    Molecular point group: c1
  Charge       = 0
  Multiplicity = 1
  Basis Set: AUG-CC-PVTZ
    Blend: AUG-CC-PVTZ
  Basis Set: (AUG-CC-PVTZ AUX)
    Blend: AUG-CC-PVTZ-JKFIT

    Orbital Energies [Eh]
    ---------------------

    Doubly Occupied:

       1A    -20.542691     2A    -11.328588     3A    -11.242316
       4A    -11.237423     5A    -11.229674     6A    -11.214697
       7A     -1.374376     8A     -1.090369     9A     -1.005651
      10A     -0.938621    11A     -0.850265    12A     -0.723428
      13A     -0.664845    14A     -0.632239    15A     -0.613392
      16A     -0.594959    17A     -0.569887    18A     -0.555023
      19A     -0.545480    20A     -0.514862    21A     -0.500935
      22A     -0.485046    23A     -0.471554    24A     -0.405404

  @DF-RHF Final Energy:  -270.12818001739760

   => Energetics <=

    Nuclear Repulsion Energy =            245.0309128723952199
    One-Electron Energy =                -851.6547317593115167
    Two-Electron Energy =                 336.4956388695187002
    Total Energy =                       -270.1281800173975967
  Basis Set: (AUG-CC-PVTZ AUX)
    Blend: AUG-CC-PVTZ-RI
    Molecular point group: c1

    Geometry (in Angstrom), charge = 0, multiplicity = 1:

       Center              X                  Y                   Z               Mass
    ------------   -----------------  -----------------  -----------------  -----------------
         O           -0.915970210642     1.128550133738    -0.707619040707    15.994914619570
         C            0.687635189358    -0.268142166262     0.391588459293    12.000000000000
         C            1.191514189358    -1.264375166262    -0.669379540707    12.000000000000
         C            1.599909189358     0.945397833738     0.495911459293    12.000000000000
         C           -0.722911810642     0.152957833738     0.012868459293    12.000000000000
         C           -1.847385210642    -0.708510266262     0.535000859293    12.000000000000
         H            0.648315189358    -0.784972166262     1.359102459293     1.007825032230
         H            1.217470189358    -0.781435166262    -1.648811540707     1.007825032230
         H            2.202180189358    -1.601067166262    -0.421407540707     1.007825032230
         H            0.548316189358    -2.145440166262    -0.737464540707     1.007825032230
         H            1.248958189358     1.643002833738     1.261441459293     1.007825032230
         H            1.619338189358     1.478448833738    -0.454538540707     1.007825032230
         H            2.616613189358     0.636924833738     0.753290459293     1.007825032230
         H           -1.683208810642    -1.760544166262     0.283921459293     1.007825032230
         H           -2.796662810642    -0.362645166262     0.090248459293     1.007825032230
         H           -1.904675810642    -0.627583166262     1.624137459293     1.007825032230

  Basis Set: AUG-CC-PVTZ
    Blend: AUG-CC-PVTZ
  Basis Set: (AUG-CC-PVTZ AUX)
    Blend: AUG-CC-PVTZ-JKFIT
	 Reference Energy          =    -270.1281800173975967 [Eh]
	 Singles Energy            =      -0.0000000000000000 [Eh]
	 Same-Spin Energy          =      -0.2742534608403229 [Eh]
	 Opposite-Spin Energy      =      -0.9491144222414787 [Eh]
	 Correlation Energy        =      -1.2233678830818016 [Eh]
	 Total Energy              =    -271.3515479004793747 [Eh]

	 ================> DF-SCS-MP2 Energies <==================
	-----------------------------------------------------------
	 SCS Same-Spin Scale       =       0.3333333333333333 [-]
	 SCS Opposite-Spin Scale   =       1.2000000000000000 [-]
	 SCS Same-Spin Energy      =      -0.0914178202801076 [Eh]
	 SCS Opposite-Spin Energy  =      -1.1389373066897743 [Eh]
	 SCS Correlation Energy    =      -1.2303551269698820 [Eh]
	 SCS Total Energy          =    -271.3585351443674654 [Eh]
	-----------------------------------------------------------

  Dipole Moment: [D]
     X:     0.5798      Y:    -2.2825      Z:     1.5661     Total:     2.8282

*** Psi4 exiting successfully. Buy a developer a beer!
