                               Psi4 1.3.2 release

  ==> Input File <==

--------------------------------------------------------------------------
#psi4
#
memory 32 gb

molecule  {
0 1
  O       -0.9233460     1.1259790    -0.7064150
  C        0.6908080    -0.2688650     0.3923890
  C        1.1946870    -1.2650980    -0.6685790
  C        1.6030820     0.9446750     0.4967120
  C       -0.7004322     0.1734044    -0.0309849
  C       -1.8529100    -0.7015860     0.5295210
  H        0.6894488    -0.7905437     1.3580971
  H        1.2206430    -0.7821580    -1.6480110
  H        2.2053530    -1.6017900    -0.4206070
  H        0.5514890    -2.1461630    -0.7366640
  H        1.2521310     1.6422800     1.2622420
  H        1.6225110     1.4777260    -0.4537380
  H        2.6197860     0.6362020     0.7540910
  H       -1.6800360    -1.7612670     0.2847220
  H       -2.7934900    -0.3633680     0.0910490
  H       -1.9015030    -0.6283060     1.6249380
units angstrom
no_reorient  #important for SAPT in psi4, default
symmetry c1  #important for SAPT in psi4, default
}

set PROPERTIES_ORIGIN ["COM"]
properties('MP2/aug-cc-pvtz', properties = ['dipole'])
--------------------------------------------------------------------------

    Molecular point group: c1
  Charge       = 0
  Multiplicity = 1
  Basis Set: AUG-CC-PVTZ
    Blend: AUG-CC-PVTZ
  Basis Set: (AUG-CC-PVTZ AUX)
    Blend: AUG-CC-PVTZ-JKFIT

    Orbital Energies [Eh]
    ---------------------

    Doubly Occupied:

       1A    -20.546021     2A    -11.326149     3A    -11.241684
       4A    -11.233463     5A    -11.229320     6A    -11.215046
       7A     -1.402139     8A     -1.090453     9A     -0.992593
      10A     -0.939066    11A     -0.848138    12A     -0.726057
      13A     -0.670099    14A     -0.633102    15A     -0.614017
      16A     -0.594661    17A     -0.569951    18A     -0.552315
      19A     -0.546651    20A     -0.520378    21A     -0.508211
      22A     -0.484910    23A     -0.478903    24A     -0.397761

  @DF-RHF Final Energy:  -270.12861424236445

   => Energetics <=

    Nuclear Repulsion Energy =            245.3074071429275023
    One-Electron Energy =                -852.1498600100752583
    Two-Electron Energy =                 336.7138386247833637
    Total Energy =                       -270.1286142423644492
  Basis Set: (AUG-CC-PVTZ AUX)
    Blend: AUG-CC-PVTZ-RI
    Molecular point group: c1

    Geometry (in Angstrom), charge = 0, multiplicity = 1:

       Center              X                  Y                   Z               Mass
    ------------   -----------------  -----------------  -----------------  -----------------
         O           -0.926482147510     1.123084586036    -0.700168307303    15.994914619570
         C            0.687671852490    -0.271759413964     0.398635692697    12.000000000000
         C            1.191550852490    -1.267992413964    -0.662332307303    12.000000000000
         C            1.599945852490     0.941780586036     0.502958692697    12.000000000000
         C           -0.703568347510     0.170509986036    -0.024738207303    12.000000000000
         C           -1.856046147510    -0.704480413964     0.535767692697    12.000000000000
         H            0.686312652490    -0.793438113964     1.364343792697     1.007825032230
         H            1.217506852490    -0.785052413964    -1.641764307303     1.007825032230
         H            2.202216852490    -1.604684413964    -0.414360307303     1.007825032230
         H            0.548352852490    -2.149057413964    -0.730417307303     1.007825032230
         H            1.248994852490     1.639385586036     1.268488692697     1.007825032230
         H            1.619374852490     1.474831586036    -0.447491307303     1.007825032230
         H            2.616649852490     0.633307586036     0.760337692697     1.007825032230
         H           -1.683172147510    -1.764161413964     0.290968692697     1.007825032230
         H           -2.796626147510    -0.366262413964     0.097295692697     1.007825032230
         H           -1.904639147510    -0.631200413964     1.631184692697     1.007825032230

  Basis Set: AUG-CC-PVTZ
    Blend: AUG-CC-PVTZ
  Basis Set: (AUG-CC-PVTZ AUX)
    Blend: AUG-CC-PVTZ-JKFIT
	 Reference Energy          =    -270.1286142423644492 [Eh]
	 Singles Energy            =      -0.0000000000000000 [Eh]
	 Same-Spin Energy          =      -0.2732002456473241 [Eh]
	 Opposite-Spin Energy      =      -0.9469451277194517 [Eh]
	 Correlation Energy        =      -1.2201453733667758 [Eh]
	 Total Energy              =    -271.3487596157312396 [Eh]

	 ================> DF-SCS-MP2 Energies <==================
	-----------------------------------------------------------
	 SCS Same-Spin Scale       =       0.3333333333333333 [-]
	 SCS Opposite-Spin Scale   =       1.2000000000000000 [-]
	 SCS Same-Spin Energy      =      -0.0910667485491080 [Eh]
	 SCS Opposite-Spin Energy  =      -1.1363341532633420 [Eh]
	 SCS Correlation Energy    =      -1.2274009018124501 [Eh]
	 SCS Total Energy          =    -271.3560151441769221 [Eh]
	-----------------------------------------------------------

  Dipole Moment: [D]
     X:     0.7165      Y:    -2.1119      Z:     1.4479     Total:     2.6589

*** Psi4 exiting successfully. Buy a developer a beer!
