                               Psi4 1.3.2 release

  ==> Input File <==

--------------------------------------------------------------------------
#psi4
#
memory 32 gb

molecule  {
0 1
  O       -0.9444328     1.1224450    -0.7049125
  C        0.6807693    -0.2889497     0.4065169
  C        1.1946870    -1.2650980    -0.6685790
  C        1.6030820     0.9446750     0.4967120
  C       -0.7197390     0.1522350     0.0136690
  C       -1.8529100    -0.7015860     0.5295210
  H        0.6514880    -0.7856950     1.3599030
  H        1.2206430    -0.7821580    -1.6480110
  H        2.2053530    -1.6017900    -0.4206070
  H        0.5514890    -2.1461630    -0.7366640
  H        1.2521310     1.6422800     1.2622420
  H        1.6225110     1.4777260    -0.4537380
  H        2.6197860     0.6362020     0.7540910
  H       -1.6800360    -1.7612670     0.2847220
  H       -2.7934900    -0.3633680     0.0910490
  H       -1.9015030    -0.6283060     1.6249380
units angstrom
no_reorient  #important for SAPT in psi4, default
symmetry c1  #important for SAPT in psi4, default
}

set PROPERTIES_ORIGIN ["COM"]
properties('MP2/aug-cc-pvtz', properties = ['dipole'])
--------------------------------------------------------------------------

    Molecular point group: c1
  Charge       = 0
  Multiplicity = 1
  Basis Set: AUG-CC-PVTZ
    Blend: AUG-CC-PVTZ
  Basis Set: (AUG-CC-PVTZ AUX)
    Blend: AUG-CC-PVTZ-JKFIT

    Orbital Energies [Eh]
    ---------------------

    Doubly Occupied:

       1A    -20.542605     2A    -11.328563     3A    -11.243303
       4A    -11.235103     5A    -11.230544     6A    -11.216573
       7A     -1.374009     8A     -1.090331     9A     -1.003396
      10A     -0.937604    11A     -0.852111    12A     -0.726565
      13A     -0.664975    14A     -0.631479    15A     -0.611416
      16A     -0.593363    17A     -0.571241    18A     -0.554294
      19A     -0.545672    20A     -0.515629    21A     -0.499787
      22A     -0.489882    23A     -0.470060    24A     -0.405130

  @DF-RHF Final Energy:  -270.12779139840825

   => Energetics <=

    Nuclear Repulsion Energy =            244.7017508905231296
    One-Electron Energy =                -850.9918140736075429
    Two-Electron Energy =                 336.1622717846761361
    Total Energy =                       -270.1277913984082488
  Basis Set: (AUG-CC-PVTZ AUX)
    Blend: AUG-CC-PVTZ-RI
    Molecular point group: c1

    Geometry (in Angstrom), charge = 0, multiplicity = 1:

       Center              X                  Y                   Z               Mass
    ------------   -----------------  -----------------  -----------------  -----------------
         O           -0.939114681763     1.125902026551    -0.707161300538    15.994914619570
         C            0.686087418237    -0.285492673449     0.404268099462    12.000000000000
         C            1.200005118237    -1.261640973449    -0.670827800538    12.000000000000
         C            1.608400118237     0.948132026551     0.494463199462    12.000000000000
         C           -0.714420881763     0.155692026551     0.011420199462    12.000000000000
         C           -1.847591881763    -0.698128973449     0.527272199462    12.000000000000
         H            0.656806118237    -0.782237973449     1.357654199462     1.007825032230
         H            1.225961118237    -0.778700973449    -1.650259800538     1.007825032230
         H            2.210671118237    -1.598332973449    -0.422855800538     1.007825032230
         H            0.556807118237    -2.142705973449    -0.738912800538     1.007825032230
         H            1.257449118237     1.645737026551     1.259993199462     1.007825032230
         H            1.627829118237     1.481183026551    -0.455986800538     1.007825032230
         H            2.625104118237     0.639659026551     0.751842199462     1.007825032230
         H           -1.674717881763    -1.757809973449     0.282473199462     1.007825032230
         H           -2.788171881763    -0.359910973449     0.088800199462     1.007825032230
         H           -1.896184881763    -0.624848973449     1.622689199462     1.007825032230

  Basis Set: AUG-CC-PVTZ
    Blend: AUG-CC-PVTZ
  Basis Set: (AUG-CC-PVTZ AUX)
    Blend: AUG-CC-PVTZ-JKFIT
	 Reference Energy          =    -270.1277913984082488 [Eh]
	 Singles Energy            =      -0.0000000000000000 [Eh]
	 Same-Spin Energy          =      -0.2741024166852299 [Eh]
	 Opposite-Spin Energy      =      -0.9489527222208147 [Eh]
	 Correlation Energy        =      -1.2230551389060447 [Eh]
	 Total Energy              =    -271.3508465373142826 [Eh]

	 ================> DF-SCS-MP2 Energies <==================
	-----------------------------------------------------------
	 SCS Same-Spin Scale       =       0.3333333333333333 [-]
	 SCS Opposite-Spin Scale   =       1.2000000000000000 [-]
	 SCS Same-Spin Energy      =      -0.0913674722284100 [Eh]
	 SCS Opposite-Spin Energy  =      -1.1387432666649777 [Eh]
	 SCS Correlation Energy    =      -1.2301107388933876 [Eh]
	 SCS Total Energy          =    -271.3579021373016644 [Eh]
	-----------------------------------------------------------

  Dipole Moment: [D]
     X:     0.6782      Y:    -2.2772      Z:     1.5646     Total:     2.8449

*** Psi4 exiting successfully. Buy a developer a beer!
