                               Psi4 1.3.2 release

  ==> Input File <==

--------------------------------------------------------------------------
#psi4
#
memory 32 gb

molecule  {
0 1
  O       -0.9653773     1.1178458    -0.7042529
  C        0.6908080    -0.2688650     0.3923890
  C        1.1946870    -1.2650980    -0.6685790
  C        1.6030820     0.9446750     0.4967120
  C       -0.7197390     0.1522350     0.0136690
  C       -1.8868307    -0.6703531     0.5040115
  H        0.6514880    -0.7856950     1.3599030
  H        1.2206430    -0.7821580    -1.6480110
  H        2.2053530    -1.6017900    -0.4206070
  H        0.5514890    -2.1461630    -0.7366640
  H        1.2521310     1.6422800     1.2622420
  H        1.6225110     1.4777260    -0.4537380
  H        2.6197860     0.6362020     0.7540910
  H       -1.6800360    -1.7612670     0.2847220
  H       -2.7934900    -0.3633680     0.0910490
  H       -1.9015030    -0.6283060     1.6249380
units angstrom
no_reorient  #important for SAPT in psi4, default
symmetry c1  #important for SAPT in psi4, default
}

set PROPERTIES_ORIGIN ["COM"]
properties('MP2/aug-cc-pvtz', properties = ['dipole'])
--------------------------------------------------------------------------

    Molecular point group: c1
  Charge       = 0
  Multiplicity = 1
  Basis Set: AUG-CC-PVTZ
    Blend: AUG-CC-PVTZ
  Basis Set: (AUG-CC-PVTZ AUX)
    Blend: AUG-CC-PVTZ-JKFIT

    Orbital Energies [Eh]
    ---------------------

    Doubly Occupied:

       1A    -20.540075     2A    -11.327639     3A    -11.246398
       4A    -11.235359     5A    -11.231029     6A    -11.217098
       7A     -1.373494     8A     -1.091741     9A     -1.002501
      10A     -0.940360    11A     -0.852892    12A     -0.723797
      13A     -0.663696    14A     -0.637131    15A     -0.607813
      16A     -0.591799    17A     -0.577391    18A     -0.550975
      19A     -0.545617    20A     -0.519035    21A     -0.499588
      22A     -0.487603    23A     -0.469876    24A     -0.404812

  @DF-RHF Final Energy:  -270.12483862729317

   => Energetics <=

    Nuclear Repulsion Energy =            244.6669714916246505
    One-Electron Energy =                -850.9081809591717729
    Two-Electron Energy =                 336.1163708402539783
    Total Energy =                       -270.1248386272931725
  Basis Set: (AUG-CC-PVTZ AUX)
    Blend: AUG-CC-PVTZ-RI
    Molecular point group: c1

    Geometry (in Angstrom), charge = 0, multiplicity = 1:

       Center              X                  Y                   Z               Mass
    ------------   -----------------  -----------------  -----------------  -----------------
         O           -0.952837540852     1.115002983980    -0.701098174890    15.994914619570
         C            0.703347759148    -0.271707816020     0.395543725110    12.000000000000
         C            1.207226759148    -1.267940816020    -0.665424274890    12.000000000000
         C            1.615621759148     0.941832183980     0.499866725110    12.000000000000
         C           -0.707199240852     0.149392183980     0.016823725110    12.000000000000
         C           -1.874290940852    -0.673195916020     0.507166225110    12.000000000000
         H            0.664027759148    -0.788537816020     1.363057725110     1.007825032230
         H            1.233182759148    -0.785000816020    -1.644856274890     1.007825032230
         H            2.217892759148    -1.604632816020    -0.417452274890     1.007825032230
         H            0.564028759148    -2.149005816020    -0.733509274890     1.007825032230
         H            1.264670759148     1.639437183980     1.265396725110     1.007825032230
         H            1.635050759148     1.474883183980    -0.450583274890     1.007825032230
         H            2.632325759148     0.633359183980     0.757245725110     1.007825032230
         H           -1.667496240852    -1.764109816020     0.287876725110     1.007825032230
         H           -2.780950240852    -0.366210816020     0.094203725110     1.007825032230
         H           -1.888963240852    -0.631148816020     1.628092725110     1.007825032230

  Basis Set: AUG-CC-PVTZ
    Blend: AUG-CC-PVTZ
  Basis Set: (AUG-CC-PVTZ AUX)
    Blend: AUG-CC-PVTZ-JKFIT
	 Reference Energy          =    -270.1248386272931725 [Eh]
	 Singles Energy            =      -0.0000000000000000 [Eh]
	 Same-Spin Energy          =      -0.2741012410846064 [Eh]
	 Opposite-Spin Energy      =      -0.9489193324519393 [Eh]
	 Correlation Energy        =      -1.2230205735365456 [Eh]
	 Total Energy              =    -271.3478592008297028 [Eh]

	 ================> DF-SCS-MP2 Energies <==================
	-----------------------------------------------------------
	 SCS Same-Spin Scale       =       0.3333333333333333 [-]
	 SCS Opposite-Spin Scale   =       1.2000000000000000 [-]
	 SCS Same-Spin Energy      =      -0.0913670803615355 [Eh]
	 SCS Opposite-Spin Energy  =      -1.1387031989423271 [Eh]
	 SCS Correlation Energy    =      -1.2300702793038625 [Eh]
	 SCS Total Energy          =    -271.3549089065970179 [Eh]
	-----------------------------------------------------------

  Dipole Moment: [D]
     X:     0.7405      Y:    -2.2600      Z:     1.5602     Total:     2.8442

*** Psi4 exiting successfully. Buy a developer a beer!
