                               Psi4 1.3.2 release

  ==> Input File <==

--------------------------------------------------------------------------
#psi4
#
memory 32 gb

molecule  {
0 1
  O       -0.9233460     1.1259790    -0.7064150
  C        0.6908080    -0.2688650     0.3923890
  C        1.1946870    -1.2650980    -0.6685790
  C        1.6030820     0.9446750     0.4967120
  C       -0.7317272     0.1735996     0.0233695
  C       -1.8529100    -0.7015860     0.5295210
  H        0.6514880    -0.7856950     1.3599030
  H        1.2206430    -0.7821580    -1.6480110
  H        2.2053530    -1.6017900    -0.4206070
  H        0.5514890    -2.1461630    -0.7366640
  H        1.2521310     1.6422800     1.2622420
  H        1.6225110     1.4777260    -0.4537380
  H        2.6197860     0.6362020     0.7540910
  H       -1.6965938    -1.7657916     0.2933695
  H       -2.7934900    -0.3633680     0.0910490
  H       -1.9015030    -0.6283060     1.6249380
units angstrom
no_reorient  #important for SAPT in psi4, default
symmetry c1  #important for SAPT in psi4, default
}

set PROPERTIES_ORIGIN ["COM"]
properties('MP2/aug-cc-pvtz', properties = ['dipole'])
--------------------------------------------------------------------------

    Molecular point group: c1
  Charge       = 0
  Multiplicity = 1
  Basis Set: AUG-CC-PVTZ
    Blend: AUG-CC-PVTZ
  Basis Set: (AUG-CC-PVTZ AUX)
    Blend: AUG-CC-PVTZ-JKFIT

    Orbital Energies [Eh]
    ---------------------

    Doubly Occupied:

       1A    -20.543812     2A    -11.327633     3A    -11.242403
       4A    -11.236320     5A    -11.229035     6A    -11.214336
       7A     -1.383363     8A     -1.087824     9A     -1.004640
      10A     -0.938056    11A     -0.847576    12A     -0.723805
      13A     -0.665672    14A     -0.632841    15A     -0.612084
      16A     -0.596790    17A     -0.571756    18A     -0.552988
      19A     -0.545100    20A     -0.516496    21A     -0.501620
      22A     -0.485001    23A     -0.474381    24A     -0.402998

  @DF-RHF Final Energy:  -270.12920432658774

   => Energetics <=

    Nuclear Repulsion Energy =            244.9060281552979461
    One-Electron Energy =                -851.3974085904814046
    Two-Electron Energy =                 336.3621761085957473
    Total Energy =                       -270.1292043265877396
  Basis Set: (AUG-CC-PVTZ AUX)
    Blend: AUG-CC-PVTZ-RI
    Molecular point group: c1

    Geometry (in Angstrom), charge = 0, multiplicity = 1:

       Center              X                  Y                   Z               Mass
    ------------   -----------------  -----------------  -----------------  -----------------
         O           -0.921480760491     1.123053577114    -0.707868593434    15.994914619570
         C            0.692673239509    -0.271790422886     0.390935406566    12.000000000000
         C            1.196552239509    -1.268023422886    -0.670032593434    12.000000000000
         C            1.604947239509     0.941749577114     0.495258406566    12.000000000000
         C           -0.729861960491     0.170674177114     0.021915906566    12.000000000000
         C           -1.851044760491    -0.704511422886     0.528067406566    12.000000000000
         H            0.653353239509    -0.788620422886     1.358449406566     1.007825032230
         H            1.222508239509    -0.785083422886    -1.649464593434     1.007825032230
         H            2.207218239509    -1.604715422886    -0.422060593434     1.007825032230
         H            0.553354239509    -2.149088422886    -0.738117593434     1.007825032230
         H            1.253996239509     1.639354577114     1.260788406566     1.007825032230
         H            1.624376239509     1.474800577114    -0.455191593434     1.007825032230
         H            2.621651239509     0.633276577114     0.752637406566     1.007825032230
         H           -1.694728560491    -1.768717022886     0.291915906566     1.007825032230
         H           -2.791624760491    -0.366293422886     0.089595406566     1.007825032230
         H           -1.899637760491    -0.631231422886     1.623484406566     1.007825032230

  Basis Set: AUG-CC-PVTZ
    Blend: AUG-CC-PVTZ
  Basis Set: (AUG-CC-PVTZ AUX)
    Blend: AUG-CC-PVTZ-JKFIT
	 Reference Energy          =    -270.1292043265877396 [Eh]
	 Singles Energy            =      -0.0000000000000000 [Eh]
	 Same-Spin Energy          =      -0.2738094180646791 [Eh]
	 Opposite-Spin Energy      =      -0.9482609526627660 [Eh]
	 Correlation Energy        =      -1.2220703707274452 [Eh]
	 Total Energy              =    -271.3512746973152048 [Eh]

	 ================> DF-SCS-MP2 Energies <==================
	-----------------------------------------------------------
	 SCS Same-Spin Scale       =       0.3333333333333333 [-]
	 SCS Opposite-Spin Scale   =       1.2000000000000000 [-]
	 SCS Same-Spin Energy      =      -0.0912698060215597 [Eh]
	 SCS Opposite-Spin Energy  =      -1.1379131431953191 [Eh]
	 SCS Correlation Energy    =      -1.2291829492168789 [Eh]
	 SCS Total Energy          =    -271.3583872758046027 [Eh]
	-----------------------------------------------------------

  Dipole Moment: [D]
     X:     0.5487      Y:    -2.2377      Z:     1.5430     Total:     2.7730

*** Psi4 exiting successfully. Buy a developer a beer!
