                               Psi4 1.3.2 release

  ==> Input File <==

--------------------------------------------------------------------------
#psi4
#
memory 32 gb

molecule  {
0 1
  O       -0.8809928     1.1321562    -0.7087615
  C        0.7095935    -0.2283169     0.3637914
  C        1.1946870    -1.2650980    -0.6685790
  C        1.6030820     0.9446750     0.4967120
  C       -0.7197390     0.1522350     0.0136690
  C       -1.8529100    -0.7015860     0.5295210
  H        0.6514880    -0.7856950     1.3599030
  H        1.2206430    -0.7821580    -1.6480110
  H        2.2053530    -1.6017900    -0.4206070
  H        0.5514890    -2.1461630    -0.7366640
  H        1.2521310     1.6422800     1.2622420
  H        1.6225110     1.4777260    -0.4537380
  H        2.6197860     0.6362020     0.7540910
  H       -1.6800360    -1.7612670     0.2847220
  H       -2.7934900    -0.3633680     0.0910490
  H       -1.9015030    -0.6283060     1.6249380
units angstrom
no_reorient  #important for SAPT in psi4, default
symmetry c1  #important for SAPT in psi4, default
}

set PROPERTIES_ORIGIN ["COM"]
properties('MP2/aug-cc-pvtz', properties = ['dipole'])
--------------------------------------------------------------------------

    Molecular point group: c1
  Charge       = 0
  Multiplicity = 1
  Basis Set: AUG-CC-PVTZ
    Blend: AUG-CC-PVTZ
  Basis Set: (AUG-CC-PVTZ AUX)
    Blend: AUG-CC-PVTZ-JKFIT

    Orbital Energies [Eh]
    ---------------------

    Doubly Occupied:

       1A    -20.541321     2A    -11.328206     3A    -11.243333
       4A    -11.240411     5A    -11.229060     6A    -11.212422
       7A     -1.374758     8A     -1.091620     9A     -1.008283
      10A     -0.941755    11A     -0.848206    12A     -0.718064
      13A     -0.663936    14A     -0.635977    15A     -0.613363
      16A     -0.594775    17A     -0.573661    18A     -0.554654
      19A     -0.545661    20A     -0.518660    21A     -0.503379
      22A     -0.481400    23A     -0.464543    24A     -0.404978

  @DF-RHF Final Energy:  -270.12417014705693

   => Energetics <=

    Nuclear Repulsion Energy =            245.4784762365570998
    One-Electron Energy =                -852.5404442294200180
    Two-Electron Energy =                 336.9377978458060170
    Total Energy =                       -270.1241701470569296
  Basis Set: (AUG-CC-PVTZ AUX)
    Blend: AUG-CC-PVTZ-RI
    Molecular point group: c1

    Geometry (in Angstrom), charge = 0, multiplicity = 1:

       Center              X                  Y                   Z               Mass
    ------------   -----------------  -----------------  -----------------  -----------------
         O           -0.891482254127     1.125355402112    -0.704338413583    15.994914619570
         C            0.699104045873    -0.235117697888     0.368214486417    12.000000000000
         C            1.184197545873    -1.271898797888    -0.664155913583    12.000000000000
         C            1.592592545873     0.937874202112     0.501135086417    12.000000000000
         C           -0.730228454127     0.145434202112     0.018092086417    12.000000000000
         C           -1.863399454127    -0.708386797888     0.533944086417    12.000000000000
         H            0.640998545873    -0.792495797888     1.364326086417     1.007825032230
         H            1.210153545873    -0.788958797888    -1.643587913583     1.007825032230
         H            2.194863545873    -1.608590797888    -0.416183913583     1.007825032230
         H            0.540999545873    -2.152963797888    -0.732240913583     1.007825032230
         H            1.241641545873     1.635479202112     1.266665086417     1.007825032230
         H            1.612021545873     1.470925202112    -0.449314913583     1.007825032230
         H            2.609296545873     0.629401202112     0.758514086417     1.007825032230
         H           -1.690525454127    -1.768067797888     0.289145086417     1.007825032230
         H           -2.803979454127    -0.370168797888     0.095472086417     1.007825032230
         H           -1.911992454127    -0.635106797888     1.629361086417     1.007825032230

  Basis Set: AUG-CC-PVTZ
    Blend: AUG-CC-PVTZ
  Basis Set: (AUG-CC-PVTZ AUX)
    Blend: AUG-CC-PVTZ-JKFIT
	 Reference Energy          =    -270.1241701470569296 [Eh]
	 Singles Energy            =      -0.0000000000000000 [Eh]
	 Same-Spin Energy          =      -0.2745698795022637 [Eh]
	 Opposite-Spin Energy      =      -0.9495377886915246 [Eh]
	 Correlation Energy        =      -1.2241076681937884 [Eh]
	 Total Energy              =    -271.3482778152506967 [Eh]

	 ================> DF-SCS-MP2 Energies <==================
	-----------------------------------------------------------
	 SCS Same-Spin Scale       =       0.3333333333333333 [-]
	 SCS Opposite-Spin Scale   =       1.2000000000000000 [-]
	 SCS Same-Spin Energy      =      -0.0915232931674212 [Eh]
	 SCS Opposite-Spin Energy  =      -1.1394453464298295 [Eh]
	 SCS Correlation Energy    =      -1.2309686395972508 [Eh]
	 SCS Total Energy          =    -271.3551387866542086 [Eh]
	-----------------------------------------------------------

  Dipole Moment: [D]
     X:     0.4764      Y:    -2.2753      Z:     1.5580     Total:     2.7985

*** Psi4 exiting successfully. Buy a developer a beer!
