                               Psi4 1.3.2 release

  ==> Input File <==

--------------------------------------------------------------------------
#psi4
#
memory 32 gb

molecule  {
0 1
  O       -0.9233460     1.1259790    -0.7064150
  C        0.6908080    -0.2688650     0.3923890
  C        1.1946870    -1.2650980    -0.6685790
  C        1.6030820     0.9446750     0.4967120
  C       -0.7528979     0.3108163    -0.1036019
  C       -1.8529100    -0.7015860     0.5295210
  H        0.6514880    -0.7856950     1.3599030
  H        1.2206430    -0.7821580    -1.6480110
  H        2.2053530    -1.6017900    -0.4206070
  H        0.5514890    -2.1461630    -0.7366640
  H        1.2521310     1.6422800     1.2622420
  H        1.6225110     1.4777260    -0.4537380
  H        2.6197860     0.6362020     0.7540910
  H       -1.6800360    -1.7612670     0.2847220
  H       -2.7934900    -0.3633680     0.0910490
  H       -1.9015030    -0.6283060     1.6249380
units angstrom
no_reorient  #important for SAPT in psi4, default
symmetry c1  #important for SAPT in psi4, default
}

set PROPERTIES_ORIGIN ["COM"]
properties('MP2/aug-cc-pvtz', properties = ['dipole'])
--------------------------------------------------------------------------

    Molecular point group: c1
  Charge       = 0
  Multiplicity = 1
  Basis Set: AUG-CC-PVTZ
    Blend: AUG-CC-PVTZ
  Basis Set: (AUG-CC-PVTZ AUX)
    Blend: AUG-CC-PVTZ-JKFIT

    Orbital Energies [Eh]
    ---------------------

    Doubly Occupied:

       1A    -20.562819     2A    -11.314542     3A    -11.230696
       4A    -11.222042     5A    -11.221739     6A    -11.210389
       7A     -1.536138     8A     -1.071139     9A     -0.971234
      10A     -0.932678    11A     -0.823561    12A     -0.740536
      13A     -0.701559    14A     -0.653117    15A     -0.644964
      16A     -0.609116    17A     -0.559044    18A     -0.552380
      19A     -0.544497    20A     -0.540121    21A     -0.530385
      22A     -0.482559    23A     -0.478112    24A     -0.348620

  @DF-RHF Final Energy:  -270.05573614044408

   => Energetics <=

    Nuclear Repulsion Energy =            246.5553550665554781
    One-Electron Energy =                -854.2582081822696409
    Two-Electron Energy =                 337.6471169752700234
    Total Energy =                       -270.0557361404440826
  Basis Set: (AUG-CC-PVTZ AUX)
    Blend: AUG-CC-PVTZ-RI
    Molecular point group: c1

    Geometry (in Angstrom), charge = 0, multiplicity = 1:

       Center              X                  Y                   Z               Mass
    ------------   -----------------  -----------------  -----------------  -----------------
         O           -0.918723094558     1.103870357741    -0.690065460854    15.994914619570
         C            0.695430905442    -0.290973642259     0.408738539146    12.000000000000
         C            1.199309905442    -1.287206642259    -0.652229460854    12.000000000000
         C            1.607704905442     0.922566357741     0.513061539146    12.000000000000
         C           -0.748274994558     0.288707657741    -0.087252360854    12.000000000000
         C           -1.848287094558    -0.723694642259     0.545870539146    12.000000000000
         H            0.656110905442    -0.807803642259     1.376252539146     1.007825032230
         H            1.225265905442    -0.804266642259    -1.631661460854     1.007825032230
         H            2.209975905442    -1.623898642259    -0.404257460854     1.007825032230
         H            0.556111905442    -2.168271642259    -0.720314460854     1.007825032230
         H            1.256753905442     1.620171357741     1.278591539146     1.007825032230
         H            1.627133905442     1.455617357741    -0.437388460854     1.007825032230
         H            2.624408905442     0.614093357741     0.770440539146     1.007825032230
         H           -1.675413094558    -1.783375642259     0.301071539146     1.007825032230
         H           -2.788867094558    -0.385476642259     0.107398539146     1.007825032230
         H           -1.896880094558    -0.650414642259     1.641287539146     1.007825032230

  Basis Set: AUG-CC-PVTZ
    Blend: AUG-CC-PVTZ
  Basis Set: (AUG-CC-PVTZ AUX)
    Blend: AUG-CC-PVTZ-JKFIT
	 Reference Energy          =    -270.0557361404440826 [Eh]
	 Singles Energy            =      -0.0000000000000000 [Eh]
	 Same-Spin Energy          =      -0.2701337926485194 [Eh]
	 Opposite-Spin Energy      =      -0.9400697301419512 [Eh]
	 Correlation Energy        =      -1.2102035227904706 [Eh]
	 Total Energy              =    -271.2659396632345761 [Eh]

	 ================> DF-SCS-MP2 Energies <==================
	-----------------------------------------------------------
	 SCS Same-Spin Scale       =       0.3333333333333333 [-]
	 SCS Opposite-Spin Scale   =       1.2000000000000000 [-]
	 SCS Same-Spin Energy      =      -0.0900445975495065 [Eh]
	 SCS Opposite-Spin Energy  =      -1.1280836761703414 [Eh]
	 SCS Correlation Energy    =      -1.2181282737198480 [Eh]
	 SCS Total Energy          =    -271.2738644141639384 [Eh]
	-----------------------------------------------------------

  Dipole Moment: [D]
     X:     0.4227      Y:    -1.3038      Z:     0.9311     Total:     1.6570

*** Psi4 exiting successfully. Buy a developer a beer!
