                               Psi4 1.3.2 release

  ==> Input File <==

--------------------------------------------------------------------------
#psi4
#
memory 32 gb

molecule  {
0 1
  O       -0.9233460     1.1259790    -0.7064150
  C        0.6908080    -0.2688650     0.3923890
  C        1.1946870    -1.2650980    -0.6685790
  C        1.6030820     0.9446750     0.4967120
  C       -0.9053374     0.2076429    -0.0361626
  C       -1.8529100    -0.7015860     0.5295210
  H        0.6514880    -0.7856950     1.3599030
  H        1.2206430    -0.7821580    -1.6480110
  H        2.2053530    -1.6017900    -0.4206070
  H        0.5514890    -2.1461630    -0.7366640
  H        1.2521310     1.6422800     1.2622420
  H        1.6225110     1.4777260    -0.4537380
  H        2.6197860     0.6362020     0.7540910
  H       -1.6800360    -1.7612670     0.2847220
  H       -2.7934900    -0.3633680     0.0910490
  H       -1.9015030    -0.6283060     1.6249380
units angstrom
no_reorient  #important for SAPT in psi4, default
symmetry c1  #important for SAPT in psi4, default
}

set PROPERTIES_ORIGIN ["COM"]
properties('MP2/aug-cc-pvtz', properties = ['dipole'])
--------------------------------------------------------------------------

    Molecular point group: c1
  Charge       = 0
  Multiplicity = 1
  Basis Set: AUG-CC-PVTZ
    Blend: AUG-CC-PVTZ
  Basis Set: (AUG-CC-PVTZ AUX)
    Blend: AUG-CC-PVTZ-JKFIT

    Orbital Energies [Eh]
    ---------------------

    Doubly Occupied:

       1A    -20.555917     2A    -11.326163     3A    -11.241442
       4A    -11.228072     5A    -11.216699     6A    -11.205258
       7A     -1.444814     8A     -1.066889     9A     -1.028215
      10A     -0.926337    11A     -0.811187    12A     -0.731809
      13A     -0.673801    14A     -0.647535    15A     -0.627597
      16A     -0.608794    17A     -0.570943    18A     -0.548204
      19A     -0.540164    20A     -0.529425    21A     -0.517917
      22A     -0.475603    23A     -0.470465    24A     -0.360098

  @DF-RHF Final Energy:  -270.09653107379364

   => Energetics <=

    Nuclear Repulsion Energy =            244.6485412044112877
    One-Electron Energy =                -850.7834506220330013
    Two-Electron Energy =                 336.0383783438280147
    Total Energy =                       -270.0965310737936420
  Basis Set: (AUG-CC-PVTZ AUX)
    Blend: AUG-CC-PVTZ-RI
    Molecular point group: c1

    Geometry (in Angstrom), charge = 0, multiplicity = 1:

       Center              X                  Y                   Z               Mass
    ------------   -----------------  -----------------  -----------------  -----------------
         O           -0.897470547365     1.118254408808    -0.699467596823    15.994914619570
         C            0.716683452635    -0.276589591192     0.399336403177    12.000000000000
         C            1.220562452635    -1.272822591192    -0.661631596823    12.000000000000
         C            1.628957452635     0.936950408808     0.503659403177    12.000000000000
         C           -0.879461947365     0.199918308808    -0.029215196823    12.000000000000
         C           -1.827034547365    -0.709310591192     0.536468403177    12.000000000000
         H            0.677363452635    -0.793419591192     1.366850403177     1.007825032230
         H            1.246518452635    -0.789882591192    -1.641063596823     1.007825032230
         H            2.231228452635    -1.609514591192    -0.413659596823     1.007825032230
         H            0.577364452635    -2.153887591192    -0.729716596823     1.007825032230
         H            1.278006452635     1.634555408808     1.269189403177     1.007825032230
         H            1.648386452635     1.470001408808    -0.446790596823     1.007825032230
         H            2.645661452635     0.628477408808     0.761038403177     1.007825032230
         H           -1.654160547365    -1.768991591192     0.291669403177     1.007825032230
         H           -2.767614547365    -0.371092591192     0.097996403177     1.007825032230
         H           -1.875627547365    -0.636030591192     1.631885403177     1.007825032230

  Basis Set: AUG-CC-PVTZ
    Blend: AUG-CC-PVTZ
  Basis Set: (AUG-CC-PVTZ AUX)
    Blend: AUG-CC-PVTZ-JKFIT
	 Reference Energy          =    -270.0965310737936420 [Eh]
	 Singles Energy            =      -0.0000000000000000 [Eh]
	 Same-Spin Energy          =      -0.2732251849323973 [Eh]
	 Opposite-Spin Energy      =      -0.9464110781537804 [Eh]
	 Correlation Energy        =      -1.2196362630861777 [Eh]
	 Total Energy              =    -271.3161673368798006 [Eh]

	 ================> DF-SCS-MP2 Energies <==================
	-----------------------------------------------------------
	 SCS Same-Spin Scale       =       0.3333333333333333 [-]
	 SCS Opposite-Spin Scale   =       1.2000000000000000 [-]
	 SCS Same-Spin Energy      =      -0.0910750616441324 [Eh]
	 SCS Opposite-Spin Energy  =      -1.1356932937845365 [Eh]
	 SCS Correlation Energy    =      -1.2267683554286690 [Eh]
	 SCS Total Energy          =    -271.3232994292222884 [Eh]
	-----------------------------------------------------------

  Dipole Moment: [D]
     X:    -0.4771      Y:    -1.9891      Z:     1.4180     Total:     2.4889

*** Psi4 exiting successfully. Buy a developer a beer!
