                               Psi4 1.3.2 release

  ==> Input File <==

--------------------------------------------------------------------------
#psi4
#
memory 32 gb

molecule  {
0 1
  O       -0.9654511     1.1186154    -0.7031912
  C        0.6703040    -0.3089000     0.4205251
  C        1.1946870    -1.2650980    -0.6685790
  C        1.6030820     0.9446750     0.4967120
  C       -0.7197390     0.1522350     0.0136690
  C       -1.8529100    -0.7015860     0.5295210
  H        0.6514880    -0.7856950     1.3599030
  H        1.2206430    -0.7821580    -1.6480110
  H        2.2053530    -1.6017900    -0.4206070
  H        0.5514890    -2.1461630    -0.7366640
  H        1.2521310     1.6422800     1.2622420
  H        1.6225110     1.4777260    -0.4537380
  H        2.6197860     0.6362020     0.7540910
  H       -1.6800360    -1.7612670     0.2847220
  H       -2.7934900    -0.3633680     0.0910490
  H       -1.9015030    -0.6283060     1.6249380
units angstrom
no_reorient  #important for SAPT in psi4, default
symmetry c1  #important for SAPT in psi4, default
}

set PROPERTIES_ORIGIN ["COM"]
properties('MP2/aug-cc-pvtz', properties = ['dipole'])
--------------------------------------------------------------------------

    Molecular point group: c1
  Charge       = 0
  Multiplicity = 1
  Basis Set: AUG-CC-PVTZ
    Blend: AUG-CC-PVTZ
  Basis Set: (AUG-CC-PVTZ AUX)
    Blend: AUG-CC-PVTZ-JKFIT

    Orbital Energies [Eh]
    ---------------------

    Doubly Occupied:

       1A    -20.543064     2A    -11.328890     3A    -11.243674
       4A    -11.233316     5A    -11.231265     6A    -11.217989
       7A     -1.373982     8A     -1.090183     9A     -1.001846
      10A     -0.936297    11A     -0.853608    12A     -0.730062
      13A     -0.665442    14A     -0.629912    15A     -0.610927
      16A     -0.593040    17A     -0.570549    18A     -0.554491
      19A     -0.545684    20A     -0.516366    21A     -0.500906
      22A     -0.492111    23A     -0.467360    24A     -0.404500

  @DF-RHF Final Energy:  -270.12514137080115

   => Energetics <=

    Nuclear Repulsion Energy =            244.4606967723061928
    One-Electron Energy =                -850.5007478134009489
    Two-Electron Energy =                 335.9149096702936390
    Total Energy =                       -270.1251413708011455
  Basis Set: (AUG-CC-PVTZ AUX)
    Blend: AUG-CC-PVTZ-RI
    Molecular point group: c1

    Geometry (in Angstrom), charge = 0, multiplicity = 1:

       Center              X                  Y                   Z               Mass
    ------------   -----------------  -----------------  -----------------  -----------------
         O           -0.954768132983     1.125565474880    -0.707712839543    15.994914619570
         C            0.680986967017    -0.301949925120     0.416003460457    12.000000000000
         C            1.205369967017    -1.258147925120    -0.673100639543    12.000000000000
         C            1.613764967017     0.951625074880     0.492190360457    12.000000000000
         C           -0.709056032983     0.159185074880     0.009147360457    12.000000000000
         C           -1.842227032983    -0.694635925120     0.524999360457    12.000000000000
         H            0.662170967017    -0.778744925120     1.355381360457     1.007825032230
         H            1.231325967017    -0.775207925120    -1.652532639543     1.007825032230
         H            2.216035967017    -1.594839925120    -0.425128639543     1.007825032230
         H            0.562171967017    -2.139212925120    -0.741185639543     1.007825032230
         H            1.262813967017     1.649230074880     1.257720360457     1.007825032230
         H            1.633193967017     1.484676074880    -0.458259639543     1.007825032230
         H            2.630468967017     0.643152074880     0.749569360457     1.007825032230
         H           -1.669353032983    -1.754316925120     0.280200360457     1.007825032230
         H           -2.782807032983    -0.356417925120     0.086527360457     1.007825032230
         H           -1.890820032983    -0.621355925120     1.620416360457     1.007825032230

  Basis Set: AUG-CC-PVTZ
    Blend: AUG-CC-PVTZ
  Basis Set: (AUG-CC-PVTZ AUX)
    Blend: AUG-CC-PVTZ-JKFIT
	 Reference Energy          =    -270.1251413708011455 [Eh]
	 Singles Energy            =      -0.0000000000000000 [Eh]
	 Same-Spin Energy          =      -0.2740557864316002 [Eh]
	 Opposite-Spin Energy      =      -0.9490114979589064 [Eh]
	 Correlation Energy        =      -1.2230672843905066 [Eh]
	 Total Energy              =    -271.3482086551916268 [Eh]

	 ================> DF-SCS-MP2 Energies <==================
	-----------------------------------------------------------
	 SCS Same-Spin Scale       =       0.3333333333333333 [-]
	 SCS Opposite-Spin Scale   =       1.2000000000000000 [-]
	 SCS Same-Spin Energy      =      -0.0913519288105334 [Eh]
	 SCS Opposite-Spin Energy  =      -1.1388137975506876 [Eh]
	 SCS Correlation Energy    =      -1.2301657263612209 [Eh]
	 SCS Total Energy          =    -271.3553070971623811 [Eh]
	-----------------------------------------------------------

  Dipole Moment: [D]
     X:     0.7459      Y:    -2.2728      Z:     1.5609     Total:     2.8562

*** Psi4 exiting successfully. Buy a developer a beer!
