                               Psi4 1.3.2 release

  ==> Input File <==

--------------------------------------------------------------------------
#psi4
#
memory 32 gb

molecule  {
0 1
  O       -0.9233460     1.1259790    -0.7064150
  C        0.6908080    -0.2688650     0.3923890
  C        1.1946870    -1.2650980    -0.6685790
  C        1.6030820     0.9446750     0.4967120
  C       -0.7567244     0.2155227     0.0432301
  C       -1.8529100    -0.7015860     0.5295210
  H        0.6514880    -0.7856950     1.3599030
  H        1.2206430    -0.7821580    -1.6480110
  H        2.2053530    -1.6017900    -0.4206070
  H        0.5514890    -2.1461630    -0.7366640
  H        1.2521310     1.6422800     1.2622420
  H        1.6225110     1.4777260    -0.4537380
  H        2.6197860     0.6362020     0.7540910
  H       -1.7298471    -1.7738669     0.3108776
  H       -2.7934900    -0.3633680     0.0910490
  H       -1.9015030    -0.6283060     1.6249380
units angstrom
no_reorient  #important for SAPT in psi4, default
symmetry c1  #important for SAPT in psi4, default
}

set PROPERTIES_ORIGIN ["COM"]
properties('MP2/aug-cc-pvtz', properties = ['dipole'])
--------------------------------------------------------------------------

    Molecular point group: c1
  Charge       = 0
  Multiplicity = 1
  Basis Set: AUG-CC-PVTZ
    Blend: AUG-CC-PVTZ
  Basis Set: (AUG-CC-PVTZ AUX)
    Blend: AUG-CC-PVTZ-JKFIT

    Orbital Energies [Eh]
    ---------------------

    Doubly Occupied:

       1A    -20.547272     2A    -11.326768     3A    -11.240874
       4A    -11.235503     5A    -11.227322     6A    -11.212643
       7A     -1.401224     8A     -1.082345     9A     -1.004215
      10A     -0.936262    11A     -0.841234    12A     -0.725134
      13A     -0.667751    14A     -0.633425    15A     -0.613542
      16A     -0.601085    17A     -0.570814    18A     -0.550656
      19A     -0.543970    20A     -0.518524    21A     -0.504801
      22A     -0.483918    23A     -0.477480    24A     -0.396751

  @DF-RHF Final Energy:  -270.12628244153825

   => Energetics <=

    Nuclear Repulsion Energy =            244.7863787454684541
    One-Electron Energy =                -851.1382990562088935
    Two-Electron Energy =                 336.2256378692021599
    Total Energy =                       -270.1262824415382511
  Basis Set: (AUG-CC-PVTZ AUX)
    Blend: AUG-CC-PVTZ-RI
    Molecular point group: c1

    Geometry (in Angstrom), charge = 0, multiplicity = 1:

       Center              X                  Y                   Z               Mass
    ------------   -----------------  -----------------  -----------------  -----------------
         O           -0.917606383287     1.117303367849    -0.710842485489    15.994914619570
         C            0.696547616713    -0.277540632151     0.387961514511    12.000000000000
         C            1.200426616713    -1.273773632151    -0.673006485489    12.000000000000
         C            1.608821616713     0.935999367849     0.492284514511    12.000000000000
         C           -0.750984783287     0.206847067849     0.038802614511    12.000000000000
         C           -1.847170383287    -0.710261632151     0.525093514511    12.000000000000
         H            0.657227616713    -0.794370632151     1.355475514511     1.007825032230
         H            1.226382616713    -0.790833632151    -1.652438485489     1.007825032230
         H            2.211092616713    -1.610465632151    -0.425034485489     1.007825032230
         H            0.557228616713    -2.154838632151    -0.741091485489     1.007825032230
         H            1.257870616713     1.633604367849     1.257814514511     1.007825032230
         H            1.628250616713     1.469050367849    -0.458165485489     1.007825032230
         H            2.625525616713     0.627526367849     0.749663514511     1.007825032230
         H           -1.724107483287    -1.782542532151     0.306450114511     1.007825032230
         H           -2.787750383287    -0.372043632151     0.086621514511     1.007825032230
         H           -1.895763383287    -0.636981632151     1.620510514511     1.007825032230

  Basis Set: AUG-CC-PVTZ
    Blend: AUG-CC-PVTZ
  Basis Set: (AUG-CC-PVTZ AUX)
    Blend: AUG-CC-PVTZ-JKFIT
	 Reference Energy          =    -270.1262824415382511 [Eh]
	 Singles Energy            =      -0.0000000000000000 [Eh]
	 Same-Spin Energy          =      -0.2732332042227121 [Eh]
	 Opposite-Spin Energy      =      -0.9471855435719216 [Eh]
	 Correlation Energy        =      -1.2204187477946338 [Eh]
	 Total Energy              =    -271.3467011893328618 [Eh]

	 ================> DF-SCS-MP2 Energies <==================
	-----------------------------------------------------------
	 SCS Same-Spin Scale       =       0.3333333333333333 [-]
	 SCS Opposite-Spin Scale   =       1.2000000000000000 [-]
	 SCS Same-Spin Energy      =      -0.0910777347409040 [Eh]
	 SCS Opposite-Spin Energy  =      -1.1366226522863059 [Eh]
	 SCS Correlation Energy    =      -1.2277003870272098 [Eh]
	 SCS Total Energy          =    -271.3539828285654494 [Eh]
	-----------------------------------------------------------

  Dipole Moment: [D]
     X:     0.4174      Y:    -2.1498      Z:     1.4979     Total:     2.6532

*** Psi4 exiting successfully. Buy a developer a beer!
