                               Psi4 1.3.2 release

  ==> Input File <==

--------------------------------------------------------------------------
#psi4
#
memory 32 gb

molecule  {
0 1
  O       -0.8597394     1.1347975    -0.7096048
  C        0.7183346    -0.2078659     0.3493305
  C        1.1946870    -1.2650980    -0.6685790
  C        1.6030820     0.9446750     0.4967120
  C       -0.7197390     0.1522350     0.0136690
  C       -1.8529100    -0.7015860     0.5295210
  H        0.6514880    -0.7856950     1.3599030
  H        1.2206430    -0.7821580    -1.6480110
  H        2.2053530    -1.6017900    -0.4206070
  H        0.5514890    -2.1461630    -0.7366640
  H        1.2521310     1.6422800     1.2622420
  H        1.6225110     1.4777260    -0.4537380
  H        2.6197860     0.6362020     0.7540910
  H       -1.6800360    -1.7612670     0.2847220
  H       -2.7934900    -0.3633680     0.0910490
  H       -1.9015030    -0.6283060     1.6249380
units angstrom
no_reorient  #important for SAPT in psi4, default
symmetry c1  #important for SAPT in psi4, default
}

set PROPERTIES_ORIGIN ["COM"]
properties('MP2/aug-cc-pvtz', properties = ['dipole'])
--------------------------------------------------------------------------

    Molecular point group: c1
  Charge       = 0
  Multiplicity = 1
  Basis Set: AUG-CC-PVTZ
    Blend: AUG-CC-PVTZ
  Basis Set: (AUG-CC-PVTZ AUX)
    Blend: AUG-CC-PVTZ-JKFIT

    Orbital Energies [Eh]
    ---------------------

    Doubly Occupied:

       1A    -20.540937     2A    -11.328309     3A    -11.243745
       4A    -11.242154     5A    -11.228794     6A    -11.211103
       7A     -1.375266     8A     -1.092384     9A     -1.009978
      10A     -0.943177    11A     -0.847094    12A     -0.715918
      13A     -0.663714    14A     -0.637400    15A     -0.614176
      16A     -0.595399    17A     -0.574594    18A     -0.555202
      19A     -0.545647    20A     -0.521324    21A     -0.504039
      22A     -0.481744    23A     -0.457430    24A     -0.404150

  @DF-RHF Final Energy:  -270.11915046523546

   => Energetics <=

    Nuclear Repulsion Energy =            245.7551666712191150
    One-Electron Energy =                -853.0812778487317019
    Two-Electron Energy =                 337.2069607122770662
    Total Energy =                       -270.1191504652354638
  Basis Set: (AUG-CC-PVTZ AUX)
    Blend: AUG-CC-PVTZ-RI
    Molecular point group: c1

    Geometry (in Angstrom), charge = 0, multiplicity = 1:

       Center              X                  Y                   Z               Mass
    ------------   -----------------  -----------------  -----------------  -----------------
         O           -0.875397009832     1.124654668992    -0.703008918942    15.994914619570
         C            0.702676990168    -0.218008731008     0.355926381058    12.000000000000
         C            1.179029390168    -1.275240831008    -0.661983118942    12.000000000000
         C            1.587424390168     0.934532168992     0.503307881058    12.000000000000
         C           -0.735396609832     0.142092168992     0.020264881058    12.000000000000
         C           -1.868567609832    -0.711728831008     0.536116881058    12.000000000000
         H            0.635830390168    -0.795837831008     1.366498881058     1.007825032230
         H            1.204985390168    -0.792300831008    -1.641415118942     1.007825032230
         H            2.189695390168    -1.611932831008    -0.414011118942     1.007825032230
         H            0.535831390168    -2.156305831008    -0.730068118942     1.007825032230
         H            1.236473390168     1.632137168992     1.268837881058     1.007825032230
         H            1.606853390168     1.467583168992    -0.447142118942     1.007825032230
         H            2.604128390168     0.626059168992     0.760686881058     1.007825032230
         H           -1.695693609832    -1.771409831008     0.291317881058     1.007825032230
         H           -2.809147609832    -0.373510831008     0.097644881058     1.007825032230
         H           -1.917160609832    -0.638448831008     1.631533881058     1.007825032230

  Basis Set: AUG-CC-PVTZ
    Blend: AUG-CC-PVTZ
  Basis Set: (AUG-CC-PVTZ AUX)
    Blend: AUG-CC-PVTZ-JKFIT
	 Reference Energy          =    -270.1191504652354638 [Eh]
	 Singles Energy            =      -0.0000000000000000 [Eh]
	 Same-Spin Energy          =      -0.2748351669837557 [Eh]
	 Opposite-Spin Energy      =      -0.9499757322013171 [Eh]
	 Correlation Energy        =      -1.2248108991850728 [Eh]
	 Total Energy              =    -271.3439613644205224 [Eh]

	 ================> DF-SCS-MP2 Energies <==================
	-----------------------------------------------------------
	 SCS Same-Spin Scale       =       0.3333333333333333 [-]
	 SCS Opposite-Spin Scale   =       1.2000000000000000 [-]
	 SCS Same-Spin Energy      =      -0.0916117223279185 [Eh]
	 SCS Opposite-Spin Energy  =      -1.1399708786415805 [Eh]
	 SCS Correlation Energy    =      -1.2315826009694990 [Eh]
	 SCS Total Energy          =    -271.3507330662049526 [Eh]
	-----------------------------------------------------------

  Dipole Moment: [D]
     X:     0.4099      Y:    -2.2688      Z:     1.5491     Total:     2.7777

*** Psi4 exiting successfully. Buy a developer a beer!
