                               Psi4 1.4a3.dev225

  ==> Input File <==

--------------------------------------------------------------------------
#psi4
#
memory 32 gb

molecule  {
0 1
  O        0.8586560    -1.1799710    -0.8389030
  C       -0.6220090     0.2405930     0.4084700
  C       -1.1011690     1.3295070    -0.5625920
  C       -1.6147530    -0.9146890     0.4753170
  C        0.7440266    -0.2250135    -0.0419464
  C        1.9534160     0.5043800     0.4706610
  H       -0.5088060     0.6902670     1.4041320
  H       -1.2062520     0.9086330    -1.5670350
  H       -2.0743030     1.7168190    -0.2469230
  H       -0.4032100     2.1709140    -0.6131640
  H       -1.2799510    -1.6832910     1.1776610
  H       -1.7123230    -1.3800890    -0.5076340
  H       -2.5969660    -0.5569830     0.7981250
  H        1.8130240     1.5867940     0.3929810
  H        2.8429500     0.2000390    -0.0822420
  H        2.0885060     0.2697440     1.5324280
units angstrom
no_reorient  #important for SAPT in psi4, default
symmetry c1  #important for SAPT in psi4, default
}

set PROPERTIES_ORIGIN ["COM"]
properties('MP2/aug-cc-pvtz', properties = ['dipole'])
--------------------------------------------------------------------------

    Molecular point group: c1
  Charge       = 0
  Multiplicity = 1
  Basis Set: AUG-CC-PVTZ
    Blend: AUG-CC-PVTZ
  Basis Set: (AUG-CC-PVTZ AUX)
    Blend: AUG-CC-PVTZ-JKFIT

    Orbital Energies [Eh]
    ---------------------

    Doubly Occupied:

       1A    -20.540420     2A    -11.330705     3A    -11.244404
       4A    -11.237276     5A    -11.230723     6A    -11.216469
       7A     -1.360114     8A     -1.092490     9A     -1.008557
      10A     -0.938901    11A     -0.853838    12A     -0.723133
      13A     -0.662817    14A     -0.633213    15A     -0.611748
      16A     -0.592396    17A     -0.571803    18A     -0.555551
      19A     -0.544770    20A     -0.514806    21A     -0.498841
      22A     -0.485848    23A     -0.465843    24A     -0.408630

  @DF-RHF Final Energy:  -270.12571890136945

   => Energetics <=

    Nuclear Repulsion Energy =            244.6439294119535361
    One-Electron Energy =                -850.8927012574772561
    Two-Electron Energy =                 336.1230529441542672
    Total Energy =                       -270.1257189013694529
  Basis Set: (AUG-CC-PVTZ AUX)
    Blend: AUG-CC-PVTZ-RI
    Molecular point group: c1

    Geometry (in Angstrom), charge = 0, multiplicity = 1:

       Center              X                  Y                   Z               Mass
    ------------   -----------------  -----------------  -----------------  -----------------
         O            0.823950985997    -1.136953388218    -0.814353752713    15.994914619570
         C           -0.656714014003     0.283610611782     0.433019247287    12.000000000000
         C           -1.135874014003     1.372524611782    -0.538042752713    12.000000000000
         C           -1.649458014003    -0.871671388218     0.499866247287    12.000000000000
         C            0.709321585997    -0.181995888218    -0.017397152713    12.000000000000
         C            1.918710985997     0.547397611782     0.495210247287    12.000000000000
         H           -0.543511014003     0.733284611782     1.428681247287     1.007825032230
         H           -1.240957014003     0.951650611782    -1.542485752713     1.007825032230
         H           -2.109008014003     1.759836611782    -0.222373752713     1.007825032230
         H           -0.437915014003     2.213931611782    -0.588614752713     1.007825032230
         H           -1.314656014003    -1.640273388218     1.202210247287     1.007825032230
         H           -1.747028014003    -1.337071388218    -0.483084752713     1.007825032230
         H           -2.631671014003    -0.513965388218     0.822674247287     1.007825032230
         H            1.778318985997     1.629811611782     0.417530247287     1.007825032230
         H            2.808244985997     0.243056611782    -0.057692752713     1.007825032230
         H            2.053800985997     0.312761611782     1.556977247287     1.007825032230

  Basis Set: AUG-CC-PVTZ
    Blend: AUG-CC-PVTZ
  Basis Set: (AUG-CC-PVTZ AUX)
    Blend: AUG-CC-PVTZ-JKFIT
	 Reference Energy          =    -270.1257189013694529 [Eh]
	 Singles Energy            =      -0.0000000000000000 [Eh]
	 Same-Spin Energy          =      -0.2747871084800385 [Eh]
	 Opposite-Spin Energy      =      -0.9502834435742374 [Eh]
	 Correlation Energy        =      -1.2250705520542760 [Eh]
	 Total Energy              =    -271.3507894534237153 [Eh]

	 ================> DF-SCS-MP2 Energies <==================
	-----------------------------------------------------------
	 SCS Same-Spin Scale       =       0.3333333333333333 [-]
	 SCS Opposite-Spin Scale   =       1.2000000000000000 [-]
	 SCS Same-Spin Energy      =      -0.0915957028266795 [Eh]
	 SCS Opposite-Spin Energy  =      -1.1403401322890849 [Eh]
	 SCS Correlation Energy    =      -1.2319358351157643 [Eh]
	 SCS Total Energy          =    -271.3576547364852445 [Eh]
	-----------------------------------------------------------

  Dipole Moment: [D]
     X:    -0.4066      Y:     2.2680      Z:     1.7866     Total:     2.9156

*** Psi4 exiting successfully. Buy a developer a beer!
