                               Psi4 1.4a3.dev225

  ==> Input File <==

--------------------------------------------------------------------------
#psi4
#
memory 32 gb

molecule  {
0 1
  O        0.8586560    -1.1799710    -0.8389030
  C       -0.6220090     0.2405930     0.4084700
  C       -1.1011690     1.3295070    -0.5625920
  C       -1.6147530    -0.9146890     0.4753170
  C        0.7476974    -0.2555945    -0.0674676
  C        1.9534160     0.5043800     0.4706610
  H       -0.5088060     0.6902670     1.4041320
  H       -1.2062520     0.9086330    -1.5670350
  H       -2.0743030     1.7168190    -0.2469230
  H       -0.4032100     2.1709140    -0.6131640
  H       -1.2799510    -1.6832910     1.1776610
  H       -1.7123230    -1.3800890    -0.5076340
  H       -2.5969660    -0.5569830     0.7981250
  H        1.8130240     1.5867940     0.3929810
  H        2.8429500     0.2000390    -0.0822420
  H        2.0885060     0.2697440     1.5324280
units angstrom
no_reorient  #important for SAPT in psi4, default
symmetry c1  #important for SAPT in psi4, default
}

set PROPERTIES_ORIGIN ["COM"]
properties('MP2/aug-cc-pvtz', properties = ['dipole'])
--------------------------------------------------------------------------

    Molecular point group: c1
  Charge       = 0
  Multiplicity = 1
  Basis Set: AUG-CC-PVTZ
    Blend: AUG-CC-PVTZ
  Basis Set: (AUG-CC-PVTZ AUX)
    Blend: AUG-CC-PVTZ-JKFIT

    Orbital Energies [Eh]
    ---------------------

    Doubly Occupied:

       1A    -20.544008     2A    -11.327501     3A    -11.242539
       4A    -11.234988     5A    -11.229102     6A    -11.215455
       7A     -1.387126     8A     -1.088552     9A     -1.001940
      10A     -0.937738    11A     -0.848014    12A     -0.723869
      13A     -0.665766    14A     -0.633105    15A     -0.613036
      16A     -0.596057    17A     -0.571547    18A     -0.553827
      19A     -0.544643    20A     -0.518218    21A     -0.503031
      22A     -0.485208    23A     -0.475857    24A     -0.401435

  @DF-RHF Final Energy:  -270.13012667907367

   => Energetics <=

    Nuclear Repulsion Energy =            244.8453510149675481
    One-Electron Energy =                -851.2658363756370363
    Two-Electron Energy =                 336.2903586815958761
    Total Energy =                       -270.1301266790736690
  Basis Set: (AUG-CC-PVTZ AUX)
    Blend: AUG-CC-PVTZ-RI
    Molecular point group: c1

    Geometry (in Angstrom), charge = 0, multiplicity = 1:

       Center              X                  Y                   Z               Mass
    ------------   -----------------  -----------------  -----------------  -----------------
         O            0.823439216736    -1.132689899124    -0.810795682086    15.994914619570
         C           -0.657225783264     0.287874100876     0.436577317914    12.000000000000
         C           -1.136385783264     1.376788100876    -0.534484682086    12.000000000000
         C           -1.649969783264    -0.867407899124     0.503424317914    12.000000000000
         C            0.712480616736    -0.208313399124    -0.039360282086    12.000000000000
         C            1.918199216736     0.551661100876     0.498768317914    12.000000000000
         H           -0.544022783264     0.737548100876     1.432239317914     1.007825032230
         H           -1.241468783264     0.955914100876    -1.538927682086     1.007825032230
         H           -2.109519783264     1.764100100876    -0.218815682086     1.007825032230
         H           -0.438426783264     2.218195100876    -0.585056682086     1.007825032230
         H           -1.315167783264    -1.636009899124     1.205768317914     1.007825032230
         H           -1.747539783264    -1.332807899124    -0.479526682086     1.007825032230
         H           -2.632182783264    -0.509701899124     0.826232317914     1.007825032230
         H            1.777807216736     1.634075100876     0.421088317914     1.007825032230
         H            2.807733216736     0.247320100876    -0.054134682086     1.007825032230
         H            2.053289216736     0.317025100876     1.560535317914     1.007825032230

  Basis Set: AUG-CC-PVTZ
    Blend: AUG-CC-PVTZ
  Basis Set: (AUG-CC-PVTZ AUX)
    Blend: AUG-CC-PVTZ-JKFIT
	 Reference Energy          =    -270.1301266790736690 [Eh]
	 Singles Energy            =      -0.0000000000000000 [Eh]
	 Same-Spin Energy          =      -0.2736005949181658 [Eh]
	 Opposite-Spin Energy      =      -0.9478621990541986 [Eh]
	 Correlation Energy        =      -1.2214627939723643 [Eh]
	 Total Energy              =    -271.3515894730460332 [Eh]

	 ================> DF-SCS-MP2 Energies <==================
	-----------------------------------------------------------
	 SCS Same-Spin Scale       =       0.3333333333333333 [-]
	 SCS Opposite-Spin Scale   =       1.2000000000000000 [-]
	 SCS Same-Spin Energy      =      -0.0912001983060553 [Eh]
	 SCS Opposite-Spin Energy  =      -1.1374346388650383 [Eh]
	 SCS Correlation Energy    =      -1.2286348371710936 [Eh]
	 SCS Total Energy          =    -271.3587615162447833 [Eh]
	-----------------------------------------------------------

  Dipole Moment: [D]
     X:    -0.3878      Y:     2.1288      Z:     1.6838     Total:     2.7418

*** Psi4 exiting successfully. Buy a developer a beer!
