                               Psi4 1.3.2 release

  ==> Input File <==

--------------------------------------------------------------------------
#psi4
#
memory 32 gb

molecule  {
0 1
  O       -0.9233460     1.1259790    -0.7064150
  C        0.6908080    -0.2688650     0.3923890
  C        1.1476526    -1.2602062    -0.6941481
  C        1.6030820     0.9446750     0.4967120
  C       -0.7167362     0.1206845    -0.0288799
  C       -1.8529100    -0.7015860     0.5295210
  H        0.6514880    -0.7856950     1.3599030
  H        1.2206430    -0.7821580    -1.6480110
  H        2.2053530    -1.6017900    -0.4206070
  H        0.5514890    -2.1461630    -0.7366640
  H        1.2521310     1.6422800     1.2622420
  H        1.6225110     1.4777260    -0.4537380
  H        2.6197860     0.6362020     0.7540910
  H       -1.6800360    -1.7612670     0.2847220
  H       -2.7934900    -0.3633680     0.0910490
  H       -1.9015030    -0.6283060     1.6249380
units angstrom
no_reorient  #important for SAPT in psi4, default
symmetry c1  #important for SAPT in psi4, default
}

set PROPERTIES_ORIGIN ["COM"]
properties('MP2/aug-cc-pvtz', properties = ['dipole'])
--------------------------------------------------------------------------

    Molecular point group: c1
  Charge       = 0
  Multiplicity = 1
  Basis Set: AUG-CC-PVTZ
    Blend: AUG-CC-PVTZ
  Basis Set: (AUG-CC-PVTZ AUX)
    Blend: AUG-CC-PVTZ-JKFIT

    Orbital Energies [Eh]
    ---------------------

    Doubly Occupied:

       1A    -20.541009     2A    -11.327905     3A    -11.243653
       4A    -11.237010     5A    -11.230380     6A    -11.216034
       7A     -1.372363     8A     -1.091672     9A     -1.004636
      10A     -0.940458    11A     -0.849598    12A     -0.724384
      13A     -0.664343    14A     -0.635591    15A     -0.611699
      16A     -0.594410    17A     -0.570946    18A     -0.558180
      19A     -0.539452    20A     -0.511628    21A     -0.503435
      22A     -0.489110    23A     -0.470805    24A     -0.402350

  @DF-RHF Final Energy:  -270.12341516448708

   => Energetics <=

    Nuclear Repulsion Energy =            245.1918401765864246
    One-Electron Energy =                -851.9684076250689486
    Two-Electron Energy =                 336.6531522839954391
    Total Energy =                       -270.1234151644870849
  Basis Set: (AUG-CC-PVTZ AUX)
    Blend: AUG-CC-PVTZ-RI
    Molecular point group: c1

    Geometry (in Angstrom), charge = 0, multiplicity = 1:

       Center              X                  Y                   Z               Mass
    ------------   -----------------  -----------------  -----------------  -----------------
         O           -0.917207263229     1.129695828450    -0.696918175059    15.994914619570
         C            0.696946736771    -0.265148171550     0.401885824941    12.000000000000
         C            1.153791336771    -1.256489371550    -0.684651275059    12.000000000000
         C            1.609220736771     0.948391828450     0.506208824941    12.000000000000
         C           -0.710597463229     0.124401328450    -0.019383075059    12.000000000000
         C           -1.846771263229    -0.697869171550     0.539017824941    12.000000000000
         H            0.657626736771    -0.781978171550     1.369399824941     1.007825032230
         H            1.226781736771    -0.778441171550    -1.638514175059     1.007825032230
         H            2.211491736771    -1.598073171550    -0.411110175059     1.007825032230
         H            0.557627736771    -2.142446171550    -0.727167175059     1.007825032230
         H            1.258269736771     1.645996828450     1.271738824941     1.007825032230
         H            1.628649736771     1.481442828450    -0.444241175059     1.007825032230
         H            2.625924736771     0.639918828450     0.763587824941     1.007825032230
         H           -1.673897263229    -1.757550171550     0.294218824941     1.007825032230
         H           -2.787351263229    -0.359651171550     0.100545824941     1.007825032230
         H           -1.895364263229    -0.624589171550     1.634434824941     1.007825032230

  Basis Set: AUG-CC-PVTZ
    Blend: AUG-CC-PVTZ
  Basis Set: (AUG-CC-PVTZ AUX)
    Blend: AUG-CC-PVTZ-JKFIT
	 Reference Energy          =    -270.1234151644870849 [Eh]
	 Singles Energy            =      -0.0000000000000000 [Eh]
	 Same-Spin Energy          =      -0.2745061798710682 [Eh]
	 Opposite-Spin Energy      =      -0.9495227072582479 [Eh]
	 Correlation Energy        =      -1.2240288871293161 [Eh]
	 Total Energy              =    -271.3474440516163781 [Eh]

	 ================> DF-SCS-MP2 Energies <==================
	-----------------------------------------------------------
	 SCS Same-Spin Scale       =       0.3333333333333333 [-]
	 SCS Opposite-Spin Scale   =       1.2000000000000000 [-]
	 SCS Same-Spin Energy      =      -0.0915020599570227 [Eh]
	 SCS Opposite-Spin Energy  =      -1.1394272487098975 [Eh]
	 SCS Correlation Energy    =      -1.2309293086669202 [Eh]
	 SCS Total Energy          =    -271.3543444731540148 [Eh]
	-----------------------------------------------------------

  Dipole Moment: [D]
     X:     0.6134      Y:    -2.2857      Z:     1.5606     Total:     2.8349

*** Psi4 exiting successfully. Buy a developer a beer!
