                               Psi4 1.4a3.dev225

  ==> Input File <==

--------------------------------------------------------------------------
#psi4
#
memory 32 gb

molecule  {
0 1
  O        0.8586560    -1.1799710    -0.8389030
  C       -0.6220090     0.2405930     0.4084700
  C       -1.1011690     1.3295070    -0.5625920
  C       -1.6147530    -0.9146890     0.4753170
  C        0.7458620    -0.2403040    -0.0547070
  C        1.9135064     0.4797682     0.4532976
  H       -0.5088060     0.6902670     1.4041320
  H       -1.2062520     0.9086330    -1.5670350
  H       -2.0743030     1.7168190    -0.2469230
  H       -0.4032100     2.1709140    -0.6131640
  H       -1.2799510    -1.6832910     1.1776610
  H       -1.7123230    -1.3800890    -0.5076340
  H       -2.5969660    -0.5569830     0.7981250
  H        1.8130240     1.5867940     0.3929810
  H        2.8429500     0.2000390    -0.0822420
  H        2.0885060     0.2697440     1.5324280
units angstrom
no_reorient  #important for SAPT in psi4, default
symmetry c1  #important for SAPT in psi4, default
}

set PROPERTIES_ORIGIN ["COM"]
properties('MP2/aug-cc-pvtz', properties = ['dipole'])
--------------------------------------------------------------------------

    Molecular point group: c1
  Charge       = 0
  Multiplicity = 1
  Basis Set: AUG-CC-PVTZ
    Blend: AUG-CC-PVTZ
  Basis Set: (AUG-CC-PVTZ AUX)
    Blend: AUG-CC-PVTZ-JKFIT

    Orbital Energies [Eh]
    ---------------------

    Doubly Occupied:

       1A    -20.541086     2A    -11.326328     3A    -11.242961
       4A    -11.238488     5A    -11.229544     6A    -11.215622
       7A     -1.373843     8A     -1.091735     9A     -1.011245
      10A     -0.938022    11A     -0.849731    12A     -0.725922
      13A     -0.667931    14A     -0.634138    15A     -0.613013
      16A     -0.595852    17A     -0.567093    18A     -0.552238
      19A     -0.543782    20A     -0.512092    21A     -0.498312
      22A     -0.485093    23A     -0.469647    24A     -0.409184

  @DF-RHF Final Energy:  -270.12578320013245

   => Energetics <=

    Nuclear Repulsion Energy =            245.5354905348065699
    One-Electron Energy =                -852.6567444936282527
    Two-Electron Energy =                 336.9954707586891800
    Total Energy =                       -270.1257832001324459
  Basis Set: (AUG-CC-PVTZ AUX)
    Blend: AUG-CC-PVTZ-RI
    Molecular point group: c1

    Geometry (in Angstrom), charge = 0, multiplicity = 1:

       Center              X                  Y                   Z               Mass
    ------------   -----------------  -----------------  -----------------  -----------------
         O            0.829259149119    -1.131390358203    -0.810153976857    15.994914619570
         C           -0.651405850881     0.289173641797     0.437219023143    12.000000000000
         C           -1.130565850881     1.378087641797    -0.533842976857    12.000000000000
         C           -1.644149850881    -0.866108358203     0.504066023143    12.000000000000
         C            0.716465149119    -0.191723358203    -0.025957976857    12.000000000000
         C            1.884109549119     0.528348841797     0.482046623143    12.000000000000
         H           -0.538202850881     0.738847641797     1.432881023143     1.007825032230
         H           -1.235648850881     0.957213641797    -1.538285976857     1.007825032230
         H           -2.103699850881     1.765399641797    -0.218173976857     1.007825032230
         H           -0.432606850881     2.219494641797    -0.584414976857     1.007825032230
         H           -1.309347850881    -1.634710358203     1.206410023143     1.007825032230
         H           -1.741719850881    -1.331508358203    -0.478884976857     1.007825032230
         H           -2.626362850881    -0.508402358203     0.826874023143     1.007825032230
         H            1.783627149119     1.635374641797     0.421730023143     1.007825032230
         H            2.813553149119     0.248619641797    -0.053492976857     1.007825032230
         H            2.059109149119     0.318324641797     1.561177023143     1.007825032230

  Basis Set: AUG-CC-PVTZ
    Blend: AUG-CC-PVTZ
  Basis Set: (AUG-CC-PVTZ AUX)
    Blend: AUG-CC-PVTZ-JKFIT
	 Reference Energy          =    -270.1257832001324459 [Eh]
	 Singles Energy            =      -0.0000000000000000 [Eh]
	 Same-Spin Energy          =      -0.2745848875014453 [Eh]
	 Opposite-Spin Energy      =      -0.9494106003723805 [Eh]
	 Correlation Energy        =      -1.2239954878738257 [Eh]
	 Total Energy              =    -271.3497786880062677 [Eh]

	 ================> DF-SCS-MP2 Energies <==================
	-----------------------------------------------------------
	 SCS Same-Spin Scale       =       0.3333333333333333 [-]
	 SCS Opposite-Spin Scale   =       1.2000000000000000 [-]
	 SCS Same-Spin Energy      =      -0.0915282958338151 [Eh]
	 SCS Opposite-Spin Energy  =      -1.1392927204468566 [Eh]
	 SCS Correlation Energy    =      -1.2308210162806716 [Eh]
	 SCS Total Energy          =    -271.3566042164131318 [Eh]
	-----------------------------------------------------------

  Dipole Moment: [D]
     X:    -0.3188      Y:     2.2487      Z:     1.7798     Total:     2.8855

*** Psi4 exiting successfully. Buy a developer a beer!
