                               Psi4 1.4a3.dev225

  ==> Input File <==

--------------------------------------------------------------------------
#psi4
#
memory 32 gb

molecule  {
0 1
  O        0.8586560    -1.1799710    -0.8389030
  C       -0.6220090     0.2405930     0.4084700
  C       -1.1011690     1.3295070    -0.5625920
  C       -1.6147530    -0.9146890     0.4753170
  C        0.7412735    -0.2020778    -0.0228055
  C        1.9534160     0.5043800     0.4706610
  H       -0.5088060     0.6902670     1.4041320
  H       -1.2062520     0.9086330    -1.5670350
  H       -2.0743030     1.7168190    -0.2469230
  H       -0.4032100     2.1709140    -0.6131640
  H       -1.2799510    -1.6832910     1.1776610
  H       -1.7123230    -1.3800890    -0.5076340
  H       -2.5969660    -0.5569830     0.7981250
  H        1.8130240     1.5867940     0.3929810
  H        2.8429500     0.2000390    -0.0822420
  H        2.0885060     0.2697440     1.5324280
units angstrom
no_reorient  #important for SAPT in psi4, default
symmetry c1  #important for SAPT in psi4, default
}

set PROPERTIES_ORIGIN ["COM"]
properties('MP2/aug-cc-pvtz', properties = ['dipole'])
--------------------------------------------------------------------------

    Molecular point group: c1
  Charge       = 0
  Multiplicity = 1
  Basis Set: AUG-CC-PVTZ
    Blend: AUG-CC-PVTZ
  Basis Set: (AUG-CC-PVTZ AUX)
    Blend: AUG-CC-PVTZ-JKFIT

    Orbital Energies [Eh]
    ---------------------

    Doubly Occupied:

       1A    -20.537657     2A    -11.333121     3A    -11.245696
       4A    -11.238878     5A    -11.231958     6A    -11.217240
       7A     -1.341331     8A     -1.095411     9A     -1.013471
      10A     -0.939763    11A     -0.858242    12A     -0.722876
      13A     -0.661539    14A     -0.633581    15A     -0.612015
      16A     -0.590840    17A     -0.570185    18A     -0.556530
      19A     -0.544796    20A     -0.512934    21A     -0.497815
      22A     -0.486080    23A     -0.456373    24A     -0.412463

  @DF-RHF Final Energy:  -270.11922252469708

   => Energetics <=

    Nuclear Repulsion Energy =            244.5158487662284870
    One-Electron Energy =                -850.6485576852480790
    Two-Electron Energy =                 336.0134863943225128
    Total Energy =                       -270.1192225246970793
  Basis Set: (AUG-CC-PVTZ AUX)
    Blend: AUG-CC-PVTZ-RI
    Molecular point group: c1

    Geometry (in Angstrom), charge = 0, multiplicity = 1:

       Center              X                  Y                   Z               Mass
    ------------   -----------------  -----------------  -----------------  -----------------
         O            0.824334812942    -1.140150998067    -0.817022305684    15.994914619570
         C           -0.656330187058     0.280413001933     0.430350694316    12.000000000000
         C           -1.135490187058     1.369327001933    -0.540711305684    12.000000000000
         C           -1.649074187058    -0.874868998067     0.497197694316    12.000000000000
         C            0.706952312942    -0.162257798067    -0.000924805684    12.000000000000
         C            1.919094812942     0.544200001933     0.492541694316    12.000000000000
         H           -0.543127187058     0.730087001933     1.426012694316     1.007825032230
         H           -1.240573187058     0.948453001933    -1.545154305684     1.007825032230
         H           -2.108624187058     1.756639001933    -0.225042305684     1.007825032230
         H           -0.437531187058     2.210734001933    -0.591283305684     1.007825032230
         H           -1.314272187058    -1.643470998067     1.199541694316     1.007825032230
         H           -1.746644187058    -1.340268998067    -0.485753305684     1.007825032230
         H           -2.631287187058    -0.517162998067     0.820005694316     1.007825032230
         H            1.778702812942     1.626614001933     0.414861694316     1.007825032230
         H            2.808628812942     0.239859001933    -0.060361305684     1.007825032230
         H            2.054184812942     0.309564001933     1.554308694316     1.007825032230

  Basis Set: AUG-CC-PVTZ
    Blend: AUG-CC-PVTZ
  Basis Set: (AUG-CC-PVTZ AUX)
    Blend: AUG-CC-PVTZ-JKFIT
	 Reference Energy          =    -270.1192225246970793 [Eh]
	 Singles Energy            =      -0.0000000000000000 [Eh]
	 Same-Spin Energy          =      -0.2757769055026943 [Eh]
	 Opposite-Spin Energy      =      -0.9522579285553028 [Eh]
	 Correlation Energy        =      -1.2280348340579970 [Eh]
	 Total Energy              =    -271.3472573587550869 [Eh]

	 ================> DF-SCS-MP2 Energies <==================
	-----------------------------------------------------------
	 SCS Same-Spin Scale       =       0.3333333333333333 [-]
	 SCS Opposite-Spin Scale   =       1.2000000000000000 [-]
	 SCS Same-Spin Energy      =      -0.0919256351675648 [Eh]
	 SCS Opposite-Spin Energy  =      -1.1427095142663632 [Eh]
	 SCS Correlation Energy    =      -1.2346351494339280 [Eh]
	 SCS Total Energy          =    -271.3538576741310067 [Eh]
	-----------------------------------------------------------

  Dipole Moment: [D]
     X:    -0.4202      Y:     2.3605      Z:     1.8543     Total:     3.0310

*** Psi4 exiting successfully. Buy a developer a beer!
