                               Psi4 1.3.2 release

  ==> Input File <==

--------------------------------------------------------------------------
#psi4
#
memory 32 gb

molecule  {
0 1
  O       -0.8810666     1.1329259    -0.7076998
  C        0.6908080    -0.2688650     0.3923890
  C        1.1946870    -1.2650980    -0.6685790
  C        1.6030820     0.9446750     0.4967120
  C       -0.7197390     0.1522350     0.0136690
  C       -1.8176087    -0.7317786     0.5544020
  H        0.6514880    -0.7856950     1.3599030
  H        1.2206430    -0.7821580    -1.6480110
  H        2.2053530    -1.6017900    -0.4206070
  H        0.5514890    -2.1461630    -0.7366640
  H        1.2521310     1.6422800     1.2622420
  H        1.6225110     1.4777260    -0.4537380
  H        2.6197860     0.6362020     0.7540910
  H       -1.6800360    -1.7612670     0.2847220
  H       -2.7934900    -0.3633680     0.0910490
  H       -1.9015030    -0.6283060     1.6249380
units angstrom
no_reorient  #important for SAPT in psi4, default
symmetry c1  #important for SAPT in psi4, default
}

set PROPERTIES_ORIGIN ["COM"]
properties('MP2/aug-cc-pvtz', properties = ['dipole'])
--------------------------------------------------------------------------

    Molecular point group: c1
  Charge       = 0
  Multiplicity = 1
  Basis Set: AUG-CC-PVTZ
    Blend: AUG-CC-PVTZ
  Basis Set: (AUG-CC-PVTZ AUX)
    Blend: AUG-CC-PVTZ-JKFIT

    Orbital Energies [Eh]
    ---------------------

    Doubly Occupied:

       1A    -20.544301     2A    -11.329516     3A    -11.239950
       4A    -11.239421     5A    -11.228918     6A    -11.213314
       7A     -1.375238     8A     -1.089757     9A     -1.007709
      10A     -0.937647    11A     -0.849144    12A     -0.723778
      13A     -0.665763    14A     -0.630586    15A     -0.618515
      16A     -0.598846    17A     -0.563523    18A     -0.556832
      19A     -0.544575    20A     -0.511878    21A     -0.501460
      22A     -0.483179    23A     -0.471963    24A     -0.404908

  @DF-RHF Final Energy:  -270.12448134296915

   => Energetics <=

    Nuclear Repulsion Energy =            245.2865999839468714
    One-Electron Energy =                -852.1607213032614254
    Two-Electron Energy =                 336.7496399763454065
    Total Energy =                       -270.1244813429691476
  Basis Set: (AUG-CC-PVTZ AUX)
    Blend: AUG-CC-PVTZ-RI
    Molecular point group: c1

    Geometry (in Angstrom), charge = 0, multiplicity = 1:

       Center              X                  Y                   Z               Mass
    ------------   -----------------  -----------------  -----------------  -----------------
         O           -0.893844911234     1.135844474169    -0.710929795717    15.994914619570
         C            0.678029688766    -0.265946425831     0.389159004283    12.000000000000
         C            1.181908688766    -1.262179425831    -0.671808995717    12.000000000000
         C            1.590303688766     0.947593574169     0.493482004283    12.000000000000
         C           -0.732517311234     0.155153574169     0.010439004283    12.000000000000
         C           -1.830387011234    -0.728860025831     0.551172004283    12.000000000000
         H            0.638709688766    -0.782776425831     1.356673004283     1.007825032230
         H            1.207864688766    -0.779239425831    -1.651240995717     1.007825032230
         H            2.192574688766    -1.598871425831    -0.423836995717     1.007825032230
         H            0.538710688766    -2.143244425831    -0.739893995717     1.007825032230
         H            1.239352688766     1.645198574169     1.259012004283     1.007825032230
         H            1.609732688766     1.480644574169    -0.456967995717     1.007825032230
         H            2.607007688766     0.639120574169     0.750861004283     1.007825032230
         H           -1.692814311234    -1.758348425831     0.281492004283     1.007825032230
         H           -2.806268311234    -0.360449425831     0.087819004283     1.007825032230
         H           -1.914281311234    -0.625387425831     1.621708004283     1.007825032230

  Basis Set: AUG-CC-PVTZ
    Blend: AUG-CC-PVTZ
  Basis Set: (AUG-CC-PVTZ AUX)
    Blend: AUG-CC-PVTZ-JKFIT
	 Reference Energy          =    -270.1244813429691476 [Eh]
	 Singles Energy            =      -0.0000000000000000 [Eh]
	 Same-Spin Energy          =      -0.2744597138362711 [Eh]
	 Opposite-Spin Energy      =      -0.9495419546770891 [Eh]
	 Correlation Energy        =      -1.2240016685133601 [Eh]
	 Total Energy              =    -271.3484830114825286 [Eh]

	 ================> DF-SCS-MP2 Energies <==================
	-----------------------------------------------------------
	 SCS Same-Spin Scale       =       0.3333333333333333 [-]
	 SCS Opposite-Spin Scale   =       1.2000000000000000 [-]
	 SCS Same-Spin Energy      =      -0.0914865712787570 [Eh]
	 SCS Opposite-Spin Energy  =      -1.1394503456125069 [Eh]
	 SCS Correlation Energy    =      -1.2309369168912641 [Eh]
	 SCS Total Energy          =    -271.3554182598604143 [Eh]
	-----------------------------------------------------------

  Dipole Moment: [D]
     X:     0.4914      Y:    -2.2893      Z:     1.5665     Total:     2.8172

*** Psi4 exiting successfully. Buy a developer a beer!
