                               Psi4 1.3.2 release

  ==> Input File <==

--------------------------------------------------------------------------
#psi4
#
memory 32 gb

molecule  {
0 1
  O       -0.9233460     1.1259790    -0.7064150
  C        0.6908080    -0.2688650     0.3923890
  C        1.1946870    -1.2650980    -0.6685790
  C        1.6030820     0.9446750     0.4967120
  C       -0.6858596     0.0866071    -0.0144781
  C       -1.8529100    -0.7015860     0.5295210
  H        0.6514880    -0.7856950     1.3599030
  H        1.2206430    -0.7821580    -1.6480110
  H        2.2053530    -1.6017900    -0.4206070
  H        0.5514890    -2.1461630    -0.7366640
  H        1.2521310     1.6422800     1.2622420
  H        1.6225110     1.4777260    -0.4537380
  H        2.6197860     0.6362020     0.7540910
  H       -1.6306987    -1.7457626     0.2592373
  H       -2.7934900    -0.3633680     0.0910490
  H       -1.9015030    -0.6283060     1.6249380
units angstrom
no_reorient  #important for SAPT in psi4, default
symmetry c1  #important for SAPT in psi4, default
}

set PROPERTIES_ORIGIN ["COM"]
properties('MP2/aug-cc-pvtz', properties = ['dipole'])
--------------------------------------------------------------------------

    Molecular point group: c1
  Charge       = 0
  Multiplicity = 1
  Basis Set: AUG-CC-PVTZ
    Blend: AUG-CC-PVTZ
  Basis Set: (AUG-CC-PVTZ AUX)
    Blend: AUG-CC-PVTZ-JKFIT

    Orbital Energies [Eh]
    ---------------------

    Doubly Occupied:

       1A    -20.537438     2A    -11.331417     3A    -11.245084
       4A    -11.239113     5A    -11.232837     6A    -11.217592
       7A     -1.345921     8A     -1.099016     9A     -1.006564
      10A     -0.941699    11A     -0.859819    12A     -0.723145
      13A     -0.661243    14A     -0.634492    15A     -0.613232
      16A     -0.585210    17A     -0.569691    18A     -0.558088
      19A     -0.547224    20A     -0.514948    21A     -0.499996
      22A     -0.487196    23A     -0.457646    24A     -0.409892

  @DF-RHF Final Energy:  -270.11750410960866

   => Energetics <=

    Nuclear Repulsion Energy =            245.0399640298313386
    One-Electron Energy =                -851.6779309925479993
    Two-Electron Energy =                 336.5204628531079720
    Total Energy =                       -270.1175041096086602
  Basis Set: (AUG-CC-PVTZ AUX)
    Blend: AUG-CC-PVTZ-RI
    Molecular point group: c1

    Geometry (in Angstrom), charge = 0, multiplicity = 1:

       Center              X                  Y                   Z               Mass
    ------------   -----------------  -----------------  -----------------  -----------------
         O           -0.928647011804     1.134947229138    -0.702192370352    15.994914619570
         C            0.685506988196    -0.259896770862     0.396611629648    12.000000000000
         C            1.189385988196    -1.256129770862    -0.664356370352    12.000000000000
         C            1.597780988196     0.953643229138     0.500934629648    12.000000000000
         C           -0.691160611804     0.095575329138    -0.010255470352    12.000000000000
         C           -1.858211011804    -0.692617770862     0.533743629648    12.000000000000
         H            0.646186988196    -0.776726770862     1.364125629648     1.007825032230
         H            1.215341988196    -0.773189770862    -1.643788370352     1.007825032230
         H            2.200051988196    -1.592821770862    -0.416384370352     1.007825032230
         H            0.546187988196    -2.137194770862    -0.732441370352     1.007825032230
         H            1.246829988196     1.651248229138     1.266464629648     1.007825032230
         H            1.617209988196     1.486694229138    -0.449515370352     1.007825032230
         H            2.614484988196     0.645170229138     0.758313629648     1.007825032230
         H           -1.635999711804    -1.736794370862     0.263459929648     1.007825032230
         H           -2.798791011804    -0.354399770862     0.095271629648     1.007825032230
         H           -1.906804011804    -0.619337770862     1.629160629648     1.007825032230

  Basis Set: AUG-CC-PVTZ
    Blend: AUG-CC-PVTZ
  Basis Set: (AUG-CC-PVTZ AUX)
    Blend: AUG-CC-PVTZ-JKFIT
	 Reference Energy          =    -270.1175041096086602 [Eh]
	 Singles Energy            =      -0.0000000000000000 [Eh]
	 Same-Spin Energy          =      -0.2758121034823677 [Eh]
	 Opposite-Spin Energy      =      -0.9521846646587321 [Eh]
	 Correlation Energy        =      -1.2279967681410997 [Eh]
	 Total Energy              =    -271.3455008777497710 [Eh]

	 ================> DF-SCS-MP2 Energies <==================
	-----------------------------------------------------------
	 SCS Same-Spin Scale       =       0.3333333333333333 [-]
	 SCS Opposite-Spin Scale   =       1.2000000000000000 [-]
	 SCS Same-Spin Energy      =      -0.0919373678274559 [Eh]
	 SCS Opposite-Spin Energy  =      -1.1426215975904785 [Eh]
	 SCS Correlation Energy    =      -1.2345589654179345 [Eh]
	 SCS Total Energy          =    -271.3520630750265923 [Eh]
	-----------------------------------------------------------

  Dipole Moment: [D]
     X:     0.7818      Y:    -2.3900      Z:     1.6305     Total:     2.9970

*** Psi4 exiting successfully. Buy a developer a beer!
