                               Psi4 1.4a3.dev225

  ==> Input File <==

--------------------------------------------------------------------------
#psi4
#
memory 32 gb

molecule  {
0 1
  O        0.8586560    -1.1799710    -0.8389030
  C       -0.6220090     0.2405930     0.4084700
  C       -1.1011690     1.3295070    -0.5625920
  C       -1.6147530    -0.9146890     0.4753170
  C        0.7458620    -0.2403040    -0.0547070
  C        1.9374522     0.4945353     0.4637156
  H       -0.5088060     0.6902670     1.4041320
  H       -1.2062520     0.9086330    -1.5670350
  H       -2.0743030     1.7168190    -0.2469230
  H       -0.4032100     2.1709140    -0.6131640
  H       -1.2799510    -1.6832910     1.1776610
  H       -1.7123230    -1.3800890    -0.5076340
  H       -2.5969660    -0.5569830     0.7981250
  H        1.8130240     1.5867940     0.3929810
  H        2.8429500     0.2000390    -0.0822420
  H        2.0885060     0.2697440     1.5324280
units angstrom
no_reorient  #important for SAPT in psi4, default
symmetry c1  #important for SAPT in psi4, default
}

set PROPERTIES_ORIGIN ["COM"]
properties('MP2/aug-cc-pvtz', properties = ['dipole'])
--------------------------------------------------------------------------

    Molecular point group: c1
  Charge       = 0
  Multiplicity = 1
  Basis Set: AUG-CC-PVTZ
    Blend: AUG-CC-PVTZ
  Basis Set: (AUG-CC-PVTZ AUX)
    Blend: AUG-CC-PVTZ-JKFIT

    Orbital Energies [Eh]
    ---------------------

    Doubly Occupied:

       1A    -20.541776     2A    -11.328050     3A    -11.243283
       4A    -11.237019     5A    -11.229768     6A    -11.215829
       7A     -1.373523     8A     -1.090960     9A     -1.007535
      10A     -0.938205    11A     -0.850466    12A     -0.724356
      13A     -0.665593    14A     -0.633470    15A     -0.612387
      16A     -0.594905    17A     -0.569918    18A     -0.553763
      19A     -0.544366    20A     -0.514832    21A     -0.499590
      22A     -0.485405    23A     -0.470764    24A     -0.406967

  @DF-RHF Final Energy:  -270.12807751567982

   => Energetics <=

    Nuclear Repulsion Energy =            245.0545189038379306
    One-Electron Energy =                -851.6997333977673179
    Two-Electron Energy =                 336.5171369782495958
    Total Energy =                       -270.1280775156798200
  Basis Set: (AUG-CC-PVTZ AUX)
    Blend: AUG-CC-PVTZ-RI
    Molecular point group: c1

    Geometry (in Angstrom), charge = 0, multiplicity = 1:

       Center              X                  Y                   Z               Mass
    ------------   -----------------  -----------------  -----------------  -----------------
         O            0.825920714891    -1.133449132272    -0.811606415606    15.994914619570
         C           -0.654744285109     0.287114867728     0.435766584394    12.000000000000
         C           -1.133904285109     1.376028867728    -0.535295415606    12.000000000000
         C           -1.647488285109    -0.868167132272     0.502613584394    12.000000000000
         C            0.713126714891    -0.193782132272    -0.027410415606    12.000000000000
         C            1.904716914891     0.541057167728     0.491012184394    12.000000000000
         H           -0.541541285109     0.736788867728     1.431428584394     1.007825032230
         H           -1.238987285109     0.955154867728    -1.539738415606     1.007825032230
         H           -2.107038285109     1.763340867728    -0.219626415606     1.007825032230
         H           -0.435945285109     2.217435867728    -0.585867415606     1.007825032230
         H           -1.312686285109    -1.636769132272     1.204957584394     1.007825032230
         H           -1.745058285109    -1.333567132272    -0.480337415606     1.007825032230
         H           -2.629701285109    -0.510461132272     0.825421584394     1.007825032230
         H            1.780288714891     1.633315867728     0.420277584394     1.007825032230
         H            2.810214714891     0.246560867728    -0.054945415606     1.007825032230
         H            2.055770714891     0.316265867728     1.559724584394     1.007825032230

  Basis Set: AUG-CC-PVTZ
    Blend: AUG-CC-PVTZ
  Basis Set: (AUG-CC-PVTZ AUX)
    Blend: AUG-CC-PVTZ-JKFIT
	 Reference Energy          =    -270.1280775156798200 [Eh]
	 Singles Energy            =      -0.0000000000000000 [Eh]
	 Same-Spin Energy          =      -0.2743111800429757 [Eh]
	 Opposite-Spin Energy      =      -0.9491431469164654 [Eh]
	 Correlation Energy        =      -1.2234543269594411 [Eh]
	 Total Energy              =    -271.3515318426392469 [Eh]

	 ================> DF-SCS-MP2 Energies <==================
	-----------------------------------------------------------
	 SCS Same-Spin Scale       =       0.3333333333333333 [-]
	 SCS Opposite-Spin Scale   =       1.2000000000000000 [-]
	 SCS Same-Spin Energy      =      -0.0914370600143252 [Eh]
	 SCS Opposite-Spin Energy  =      -1.1389717762997584 [Eh]
	 SCS Correlation Energy    =      -1.2304088363140837 [Eh]
	 SCS Total Energy          =    -271.3584863519939177 [Eh]
	-----------------------------------------------------------

  Dipole Moment: [D]
     X:    -0.3658      Y:     2.2199      Z:     1.7539     Total:     2.8528

*** Psi4 exiting successfully. Buy a developer a beer!
