                               Psi4 1.3.2 release

  ==> Input File <==

--------------------------------------------------------------------------
#psi4
#
memory 32 gb

molecule  {
0 1
 Br       -1.8067700     0.0000000    -0.0000600
  C        0.0006220     0.0000502     0.0000025
  C        0.7815690     1.2175950     0.0000440
  C        0.7815260    -1.2175610     0.0000100
  C        2.1776820     1.2083560     0.0000890
  C        2.1776190    -1.2084040     0.0000560
  C        2.8781420    -0.0000300     0.0000940
  H        0.2284300     2.1526090     0.0000410
  H        0.2282920    -2.1525150    -0.0000210
  H        2.7160930     2.1530860     0.0001180
  H        2.7160100    -2.1531480     0.0000600
  H        3.9651640    -0.0000500     0.0001280
units angstrom
no_reorient  #important for SAPT in psi4, default
symmetry c1  #important for SAPT in psi4, default
}

set PROPERTIES_ORIGIN ["COM"]
properties('MP2/aug-cc-pvtz', properties = ['dipole'])
--------------------------------------------------------------------------

    Molecular point group: c1
  Charge       = 0
  Multiplicity = 1
  Basis Set: AUG-CC-PVTZ
    Blend: AUG-CC-PVTZ
  Basis Set: (AUG-CC-PVTZ AUX)
    Blend: AUG-CC-PVTZ-JKFIT

    Orbital Energies [Eh]
    ---------------------

    Doubly Occupied:

       1A   -490.033350     2A    -65.173582     3A    -58.528816
       4A    -58.527506     5A    -58.527471     6A    -11.306004
       7A    -11.257808     8A    -11.257785     9A    -11.250830
      10A    -11.250444    11A    -11.248595    12A     -9.847150
      13A     -7.459010    14A     -7.452013    15A     -7.451917
      16A     -3.202886    17A     -3.199086    18A     -3.198759
      19A     -3.190114    20A     -3.190107    21A     -1.164851
      22A     -1.085891    23A     -1.024397    24A     -0.972537
      25A     -0.835671    26A     -0.813474    27A     -0.704427
      28A     -0.644591    29A     -0.637718    30A     -0.595034
      31A     -0.578526    32A     -0.527251    33A     -0.510197
      34A     -0.504572    35A     -0.448456    36A     -0.420561
      37A     -0.349167    38A     -0.323333

  @DF-RHF Final Energy: -2802.64519540366200

   => Energetics <=

    Nuclear Repulsion Energy =            431.4726285061668705
    One-Electron Energy =               -4750.8478735042635890
    Two-Electron Energy =                1516.7300495944346039
    Total Energy =                      -2802.6451954036620009
  Basis Set: (AUG-CC-PVTZ AUX)
    Blend: AUG-CC-PVTZ-RI
    Molecular point group: c1

    Geometry (in Angstrom), charge = 0, multiplicity = 1:

       Center              X                  Y                   Z               Mass
    ------------   -----------------  -----------------  -----------------  -----------------
         BR          -1.633067071237    -0.000000360734    -0.000054482154    78.918337600000
         C            0.174324928763     0.000049839266     0.000008017846    12.000000000000
         C            0.955271928763     1.217594639266     0.000049517846    12.000000000000
         C            0.955228928763    -1.217561360734     0.000015517846    12.000000000000
         C            2.351384928763     1.208355639266     0.000094517846    12.000000000000
         C            2.351321928763    -1.208404360734     0.000061517846    12.000000000000
         C            3.051844928763    -0.000030360734     0.000099517846    12.000000000000
         H            0.402132928763     2.152608639266     0.000046517846     1.007825032230
         H            0.401994928763    -2.152515360734    -0.000015482154     1.007825032230
         H            2.889795928763     2.153085639266     0.000123517846     1.007825032230
         H            2.889712928763    -2.153148360734     0.000065517846     1.007825032230
         H            4.138866928763    -0.000050360734     0.000133517846     1.007825032230

  Basis Set: AUG-CC-PVTZ
    Blend: AUG-CC-PVTZ
  Basis Set: (AUG-CC-PVTZ AUX)
    Blend: AUG-CC-PVTZ-JKFIT
	 Reference Energy          =   -2802.6451954036620009 [Eh]
	 Singles Energy            =      -0.0000000000000000 [Eh]
	 Same-Spin Energy          =      -0.3509298774119606 [Eh]
	 Opposite-Spin Energy      =      -1.0153769303230036 [Eh]
	 Correlation Energy        =      -1.3663068077349640 [Eh]
	 Total Energy              =   -2804.0115022113968735 [Eh]

	 ================> DF-SCS-MP2 Energies <==================
	-----------------------------------------------------------
	 SCS Same-Spin Scale       =       0.3333333333333333 [-]
	 SCS Opposite-Spin Scale   =       1.2000000000000000 [-]
	 SCS Same-Spin Energy      =      -0.1169766258039869 [Eh]
	 SCS Opposite-Spin Energy  =      -1.2184523163876042 [Eh]
	 SCS Correlation Energy    =      -1.3354289421915910 [Eh]
	 SCS Total Energy          =   -2803.9806243458538120 [Eh]
	-----------------------------------------------------------

  Dipole Moment: [D]
     X:     1.3009      Y:    -0.0000      Z:     0.0000     Total:     1.3009

*** Psi4 exiting successfully. Buy a developer a beer!
