                               Psi4 1.3.2 release

  ==> Input File <==

--------------------------------------------------------------------------
#psi4
#
memory 32 gb

molecule  {
0 1
 Br       -1.8064786    -0.0332886    -0.0000604
  C        0.1006220     0.0000530     0.0000060
  C        0.7815690     1.2175950     0.0000440
  C        0.7815260    -1.2175610     0.0000100
  C        2.1776820     1.2083560     0.0000890
  C        2.1776190    -1.2084040     0.0000560
  C        2.8781420    -0.0000300     0.0000940
  H        0.2284300     2.1526090     0.0000410
  H        0.2282920    -2.1525150    -0.0000210
  H        2.7160930     2.1530860     0.0001180
  H        2.7160100    -2.1531480     0.0000600
  H        3.9651640    -0.0000500     0.0001280
units angstrom
no_reorient  #important for SAPT in psi4, default
symmetry c1  #important for SAPT in psi4, default
}

set PROPERTIES_ORIGIN ["COM"]
properties('MP2/aug-cc-pvtz', properties = ['dipole'])
--------------------------------------------------------------------------

    Molecular point group: c1
  Charge       = 0
  Multiplicity = 1
  Basis Set: AUG-CC-PVTZ
    Blend: AUG-CC-PVTZ
  Basis Set: (AUG-CC-PVTZ AUX)
    Blend: AUG-CC-PVTZ-JKFIT

    Orbital Energies [Eh]
    ---------------------

    Doubly Occupied:

       1A   -490.024738     2A    -65.164477     3A    -58.519787
       4A    -58.518406     5A    -58.518384     6A    -11.303596
       7A    -11.255914     8A    -11.255228     9A    -11.253542
      10A    -11.253130    11A    -11.250290    12A     -9.837209
      13A     -7.448783    14A     -7.442020    15A     -7.442001
      16A     -3.192533    17A     -3.189020    18A     -3.188830
      19A     -3.180194    20A     -3.180187    21A     -1.174567
      22A     -1.069860    23A     -1.032754    24A     -0.974099
      25A     -0.845412    26A     -0.817688    27A     -0.709707
      28A     -0.644629    29A     -0.643808    30A     -0.604823
      31A     -0.573843    32A     -0.532885    33A     -0.515898
      34A     -0.491288    35A     -0.438594    36A     -0.416431
      37A     -0.353310    38A     -0.335336

  @DF-RHF Final Energy: -2802.65706632757929

   => Energetics <=

    Nuclear Repulsion Energy =            430.0961744284242627
    One-Electron Energy =               -4748.3200797469507961
    Two-Electron Energy =                1515.5668389909476446
    Total Energy =                      -2802.6570663275788320
  Basis Set: (AUG-CC-PVTZ AUX)
    Blend: AUG-CC-PVTZ-RI
    Molecular point group: c1

    Geometry (in Angstrom), charge = 0, multiplicity = 1:

       Center              X                  Y                   Z               Mass
    ------------   -----------------  -----------------  -----------------  -----------------
         BR          -1.640617532613    -0.016444320365    -0.000054949048    78.918337600000
         C            0.266483067387     0.016897279635     0.000011450952    12.000000000000
         C            0.947430067387     1.234439279635     0.000049450952    12.000000000000
         C            0.947387067387    -1.200716720365     0.000015450952    12.000000000000
         C            2.343543067387     1.225200279635     0.000094450952    12.000000000000
         C            2.343480067387    -1.191559720365     0.000061450952    12.000000000000
         C            3.044003067387     0.016814279635     0.000099450952    12.000000000000
         H            0.394291067387     2.169453279635     0.000046450952     1.007825032230
         H            0.394153067387    -2.135670720365    -0.000015549048     1.007825032230
         H            2.881954067387     2.169930279635     0.000123450952     1.007825032230
         H            2.881871067387    -2.136303720365     0.000065450952     1.007825032230
         H            4.131025067387     0.016794279635     0.000133450952     1.007825032230

  Basis Set: AUG-CC-PVTZ
    Blend: AUG-CC-PVTZ
  Basis Set: (AUG-CC-PVTZ AUX)
    Blend: AUG-CC-PVTZ-JKFIT
	 Reference Energy          =   -2802.6570663275792867 [Eh]
	 Singles Energy            =      -0.0000000000000000 [Eh]
	 Same-Spin Energy          =      -0.3494870676430212 [Eh]
	 Opposite-Spin Energy      =      -1.0129260441927985 [Eh]
	 Correlation Energy        =      -1.3624131118358198 [Eh]
	 Total Energy              =   -2804.0194794394151359 [Eh]

	 ================> DF-SCS-MP2 Energies <==================
	-----------------------------------------------------------
	 SCS Same-Spin Scale       =       0.3333333333333333 [-]
	 SCS Opposite-Spin Scale   =       1.2000000000000000 [-]
	 SCS Same-Spin Energy      =      -0.1164956892143404 [Eh]
	 SCS Opposite-Spin Energy  =      -1.2155112530313581 [Eh]
	 SCS Correlation Energy    =      -1.3320069422456986 [Eh]
	 SCS Total Energy          =   -2803.9890732698249849 [Eh]
	-----------------------------------------------------------

  Dipole Moment: [D]
     X:     1.7745      Y:     0.0109      Z:     0.0001     Total:     1.7746

*** Psi4 exiting successfully. Buy a developer a beer!
