                               Psi4 1.3.2 release

  ==> Input File <==

--------------------------------------------------------------------------
#psi4
#
memory 32 gb

molecule  {
0 1
 Br       -1.8056099     0.0665671    -0.0000592
  C        0.1006220     0.0000530     0.0000060
  C        0.7815690     1.2175950     0.0000440
  C        0.7815260    -1.2175610     0.0000100
  C        2.1776820     1.2083560     0.0000890
  C        2.1776190    -1.2084040     0.0000560
  C        2.8781420    -0.0000300     0.0000940
  H        0.2284300     2.1526090     0.0000410
  H        0.2282920    -2.1525150    -0.0000210
  H        2.7160930     2.1530860     0.0001180
  H        2.7160100    -2.1531480     0.0000600
  H        3.9651640    -0.0000500     0.0001280
units angstrom
no_reorient  #important for SAPT in psi4, default
symmetry c1  #important for SAPT in psi4, default
}

set PROPERTIES_ORIGIN ["COM"]
properties('MP2/aug-cc-pvtz', properties = ['dipole'])
--------------------------------------------------------------------------

    Molecular point group: c1
  Charge       = 0
  Multiplicity = 1
  Basis Set: AUG-CC-PVTZ
    Blend: AUG-CC-PVTZ
  Basis Set: (AUG-CC-PVTZ AUX)
    Blend: AUG-CC-PVTZ-JKFIT

    Orbital Energies [Eh]
    ---------------------

    Doubly Occupied:

       1A   -490.024729     2A    -65.164470     3A    -58.519780
       4A    -58.518398     5A    -58.518376     6A    -11.303592
       7A    -11.256259     8A    -11.254886     9A    -11.253688
      10A    -11.252964    11A    -11.250285    12A     -9.837203
      13A     -7.448779    14A     -7.442014    15A     -7.441994
      16A     -3.192529    17A     -3.189016    18A     -3.188825
      19A     -3.180185    20A     -3.180178    21A     -1.174581
      22A     -1.069904    23A     -1.032747    24A     -0.974071
      25A     -0.845409    26A     -0.817688    27A     -0.709707
      28A     -0.644643    29A     -0.643813    30A     -0.604828
      31A     -0.573826    32A     -0.532894    33A     -0.515899
      34A     -0.491271    35A     -0.438598    36A     -0.416361
      37A     -0.353311    38A     -0.335322

  @DF-RHF Final Energy: -2802.65687680158044

   => Energetics <=

    Nuclear Repulsion Energy =            430.1248821960484747
    One-Electron Energy =               -4748.3774823303383528
    Two-Electron Energy =                1515.5957233327101221
    Total Energy =                      -2802.6568768015804380
  Basis Set: (AUG-CC-PVTZ AUX)
    Blend: AUG-CC-PVTZ-RI
    Molecular point group: c1

    Geometry (in Angstrom), charge = 0, multiplicity = 1:

       Center              X                  Y                   Z               Mass
    ------------   -----------------  -----------------  -----------------  -----------------
         BR          -1.640188416322     0.032881923049    -0.000054356278    78.918337600000
         C            0.266043483678    -0.033632176951     0.000010843722    12.000000000000
         C            0.946990483678     1.183909823049     0.000048843722    12.000000000000
         C            0.946947483678    -1.251246176951     0.000014843722    12.000000000000
         C            2.343103483678     1.174670823049     0.000093843722    12.000000000000
         C            2.343040483678    -1.242089176951     0.000060843722    12.000000000000
         C            3.043563483678    -0.033715176951     0.000098843722    12.000000000000
         H            0.393851483678     2.118923823049     0.000045843722     1.007825032230
         H            0.393713483678    -2.186200176951    -0.000016156278     1.007825032230
         H            2.881514483678     2.119400823049     0.000122843722     1.007825032230
         H            2.881431483678    -2.186833176951     0.000064843722     1.007825032230
         H            4.130585483678    -0.033735176951     0.000132843722     1.007825032230

  Basis Set: AUG-CC-PVTZ
    Blend: AUG-CC-PVTZ
  Basis Set: (AUG-CC-PVTZ AUX)
    Blend: AUG-CC-PVTZ-JKFIT
	 Reference Energy          =   -2802.6568768015804380 [Eh]
	 Singles Energy            =      -0.0000000000000000 [Eh]
	 Same-Spin Energy          =      -0.3494978204346748 [Eh]
	 Opposite-Spin Energy      =      -1.0129465103356150 [Eh]
	 Correlation Energy        =      -1.3624443307702898 [Eh]
	 Total Energy              =   -2804.0193211323507967 [Eh]

	 ================> DF-SCS-MP2 Energies <==================
	-----------------------------------------------------------
	 SCS Same-Spin Scale       =       0.3333333333333333 [-]
	 SCS Opposite-Spin Scale   =       1.2000000000000000 [-]
	 SCS Same-Spin Energy      =      -0.1164992734782249 [Eh]
	 SCS Opposite-Spin Energy  =      -1.2155358124027380 [Eh]
	 SCS Correlation Energy    =      -1.3320350858809629 [Eh]
	 SCS Total Energy          =   -2803.9889118874611995 [Eh]
	-----------------------------------------------------------

  Dipole Moment: [D]
     X:     1.7748      Y:    -0.0217      Z:     0.0001     Total:     1.7749

*** Psi4 exiting successfully. Buy a developer a beer!
