                               Psi4 1.3.2 release

  ==> Input File <==

--------------------------------------------------------------------------
#psi4
#
memory 32 gb

molecule  {
0 1
 Br       -1.7963266     0.1993770    -0.0000573
  C        0.1006220     0.0000530     0.0000060
  C        0.7815690     1.2175950     0.0000440
  C        0.7815260    -1.2175610     0.0000100
  C        2.1776820     1.2083560     0.0000890
  C        2.1776190    -1.2084040     0.0000560
  C        2.8781420    -0.0000300     0.0000940
  H        0.2284300     2.1526090     0.0000410
  H        0.2282920    -2.1525150    -0.0000210
  H        2.7160930     2.1530860     0.0001180
  H        2.7160100    -2.1531480     0.0000600
  H        3.9651640    -0.0000500     0.0001280
units angstrom
no_reorient  #important for SAPT in psi4, default
symmetry c1  #important for SAPT in psi4, default
}

set PROPERTIES_ORIGIN ["COM"]
properties('MP2/aug-cc-pvtz', properties = ['dipole'])
--------------------------------------------------------------------------

    Molecular point group: c1
  Charge       = 0
  Multiplicity = 1
  Basis Set: AUG-CC-PVTZ
    Blend: AUG-CC-PVTZ
  Basis Set: (AUG-CC-PVTZ AUX)
    Blend: AUG-CC-PVTZ-JKFIT

    Orbital Energies [Eh]
    ---------------------

    Doubly Occupied:

       1A   -490.024635     2A    -65.164391     3A    -58.519702
       4A    -58.518314     5A    -58.518289     6A    -11.303545
       7A    -11.257637     8A    -11.254273     9A    -11.253548
      10A    -11.252174    11A    -11.250227    12A     -9.837143
      13A     -7.448734    14A     -7.441941    15A     -7.441916
      16A     -3.192491    17A     -3.188972    18A     -3.188771
      19A     -3.180091    20A     -3.180083    21A     -1.174728
      22A     -1.070376    23A     -1.032671    24A     -0.973777
      25A     -0.845374    26A     -0.817685    27A     -0.709702
      28A     -0.644785    29A     -0.643872    30A     -0.604888
      31A     -0.573643    32A     -0.532988    33A     -0.515907
      34A     -0.491084    35A     -0.438639    36A     -0.415592
      37A     -0.353323    38A     -0.335164

  @DF-RHF Final Energy: -2802.65482661657416

   => Energetics <=

    Nuclear Repulsion Energy =            430.4333918187243739
    One-Electron Energy =               -4748.9942886742437622
    Two-Electron Energy =                1515.9060702389456310
    Total Energy =                      -2802.6548266165741552
  Basis Set: (AUG-CC-PVTZ AUX)
    Blend: AUG-CC-PVTZ-RI
    Molecular point group: c1

    Geometry (in Angstrom), charge = 0, multiplicity = 1:

       Center              X                  Y                   Z               Mass
    ------------   -----------------  -----------------  -----------------  -----------------
         BR          -1.635602695973     0.098486725330    -0.000053417725    78.918337600000
         C            0.261345904027    -0.100837274670     0.000009882275    12.000000000000
         C            0.942292904027     1.116704725330     0.000047882275    12.000000000000
         C            0.942249904027    -1.318451274670     0.000013882275    12.000000000000
         C            2.338405904027     1.107465725330     0.000092882275    12.000000000000
         C            2.338342904027    -1.309294274670     0.000059882275    12.000000000000
         C            3.038865904027    -0.100920274670     0.000097882275    12.000000000000
         H            0.389153904027     2.051718725330     0.000044882275     1.007825032230
         H            0.389015904027    -2.253405274670    -0.000017117725     1.007825032230
         H            2.876816904027     2.052195725330     0.000121882275     1.007825032230
         H            2.876733904027    -2.254038274670     0.000063882275     1.007825032230
         H            4.125887904027    -0.100940274670     0.000131882275     1.007825032230

  Basis Set: AUG-CC-PVTZ
    Blend: AUG-CC-PVTZ
  Basis Set: (AUG-CC-PVTZ AUX)
    Blend: AUG-CC-PVTZ-JKFIT
	 Reference Energy          =   -2802.6548266165741552 [Eh]
	 Singles Energy            =      -0.0000000000000000 [Eh]
	 Same-Spin Energy          =      -0.3496154141931677 [Eh]
	 Opposite-Spin Energy      =      -1.0131686333658876 [Eh]
	 Correlation Energy        =      -1.3627840475590554 [Eh]
	 Total Energy              =   -2804.0176106641333718 [Eh]

	 ================> DF-SCS-MP2 Energies <==================
	-----------------------------------------------------------
	 SCS Same-Spin Scale       =       0.3333333333333333 [-]
	 SCS Opposite-Spin Scale   =       1.2000000000000000 [-]
	 SCS Same-Spin Energy      =      -0.1165384713977226 [Eh]
	 SCS Opposite-Spin Energy  =      -1.2158023600390651 [Eh]
	 SCS Correlation Energy    =      -1.3323408314367877 [Eh]
	 SCS Total Energy          =   -2803.9871674480109505 [Eh]
	-----------------------------------------------------------

  Dipole Moment: [D]
     X:     1.7773      Y:    -0.0646      Z:     0.0001     Total:     1.7785

*** Psi4 exiting successfully. Buy a developer a beer!
