                               Psi4 1.3.2 release

  ==> Input File <==

--------------------------------------------------------------------------
#psi4
#
memory 32 gb

molecule  {
0 1
 Br       -1.8021200    -0.1330528    -0.0000614
  C        0.1006220     0.0000530     0.0000060
  C        0.7815690     1.2175950     0.0000440
  C        0.7815260    -1.2175610     0.0000100
  C        2.1776820     1.2083560     0.0000890
  C        2.1776190    -1.2084040     0.0000560
  C        2.8781420    -0.0000300     0.0000940
  H        0.2284300     2.1526090     0.0000410
  H        0.2282920    -2.1525150    -0.0000210
  H        2.7160930     2.1530860     0.0001180
  H        2.7160100    -2.1531480     0.0000600
  H        3.9651640    -0.0000500     0.0001280
units angstrom
no_reorient  #important for SAPT in psi4, default
symmetry c1  #important for SAPT in psi4, default
}

set PROPERTIES_ORIGIN ["COM"]
properties('MP2/aug-cc-pvtz', properties = ['dipole'])
--------------------------------------------------------------------------

    Molecular point group: c1
  Charge       = 0
  Multiplicity = 1
  Basis Set: AUG-CC-PVTZ
    Blend: AUG-CC-PVTZ
  Basis Set: (AUG-CC-PVTZ AUX)
    Blend: AUG-CC-PVTZ-JKFIT

    Orbital Energies [Eh]
    ---------------------

    Doubly Occupied:

       1A   -490.024694     2A    -65.164440     3A    -58.519751
       4A    -58.518366     5A    -58.518343     6A    -11.303574
       7A    -11.256947     8A    -11.254215     9A    -11.253982
      10A    -11.252590    11A    -11.250264    12A     -9.837180
      13A     -7.448762    14A     -7.441986    15A     -7.441965
      16A     -3.192515    17A     -3.188999    18A     -3.188805
      19A     -3.180150    20A     -3.180142    21A     -1.174635
      22A     -1.070080    23A     -1.032719    24A     -0.973961
      25A     -0.845396    26A     -0.817686    27A     -0.709705
      28A     -0.644697    29A     -0.643834    30A     -0.604850
      31A     -0.573757    32A     -0.532929    33A     -0.515900
      34A     -0.491200    35A     -0.438613    36A     -0.416075
      37A     -0.353316    38A     -0.335262

  @DF-RHF Final Energy: -2802.65610963116205

   => Energetics <=

    Nuclear Repulsion Energy =            430.2408979214733904
    One-Electron Energy =               -4748.6094438790523782
    Two-Electron Energy =                1515.7124363264167641
    Total Energy =                      -2802.6561096311625079
  Basis Set: (AUG-CC-PVTZ AUX)
    Blend: AUG-CC-PVTZ-RI
    Molecular point group: c1

    Geometry (in Angstrom), charge = 0, multiplicity = 1:

       Center              X                  Y                   Z               Mass
    ------------   -----------------  -----------------  -----------------  -----------------
         BR          -1.638464492131    -0.065725365045    -0.000055443023    78.918337600000
         C            0.264277507869     0.067380434955     0.000011956977    12.000000000000
         C            0.945224507869     1.284922434955     0.000049956977    12.000000000000
         C            0.945181507869    -1.150233565045     0.000015956977    12.000000000000
         C            2.341337507869     1.275683434955     0.000094956977    12.000000000000
         C            2.341274507869    -1.141076565045     0.000061956977    12.000000000000
         C            3.041797507869     0.067297434955     0.000099956977    12.000000000000
         H            0.392085507869     2.219936434955     0.000046956977     1.007825032230
         H            0.391947507869    -2.085187565045    -0.000015043023     1.007825032230
         H            2.879748507869     2.220413434955     0.000123956977     1.007825032230
         H            2.879665507869    -2.085820565045     0.000065956977     1.007825032230
         H            4.128819507869     0.067277434955     0.000133956977     1.007825032230

  Basis Set: AUG-CC-PVTZ
    Blend: AUG-CC-PVTZ
  Basis Set: (AUG-CC-PVTZ AUX)
    Blend: AUG-CC-PVTZ-JKFIT
	 Reference Energy          =   -2802.6561096311620531 [Eh]
	 Singles Energy            =      -0.0000000000000000 [Eh]
	 Same-Spin Energy          =      -0.3495415960304413 [Eh]
	 Opposite-Spin Energy      =      -1.0130295652699779 [Eh]
	 Correlation Energy        =      -1.3625711613004192 [Eh]
	 Total Energy              =   -2804.0186807924624190 [Eh]

	 ================> DF-SCS-MP2 Energies <==================
	-----------------------------------------------------------
	 SCS Same-Spin Scale       =       0.3333333333333333 [-]
	 SCS Opposite-Spin Scale   =       1.2000000000000000 [-]
	 SCS Same-Spin Energy      =      -0.1165138653434804 [Eh]
	 SCS Opposite-Spin Energy  =      -1.2156354783239733 [Eh]
	 SCS Correlation Energy    =      -1.3321493436674539 [Eh]
	 SCS Total Energy          =   -2803.9882589748294777 [Eh]
	-----------------------------------------------------------

  Dipole Moment: [D]
     X:     1.7757      Y:     0.0433      Z:     0.0001     Total:     1.7762

*** Psi4 exiting successfully. Buy a developer a beer!
