                               Psi4 1.3.2 release

  ==> Input File <==

--------------------------------------------------------------------------
#psi4
#
memory 32 gb

molecule  {
0 1
 Br       -1.8021274     0.1330531    -0.0000583
  C        0.1006220     0.0000530     0.0000060
  C        0.7815690     1.2175950     0.0000440
  C        0.7815260    -1.2175610     0.0000100
  C        2.1776820     1.2083560     0.0000890
  C        2.1776190    -1.2084040     0.0000560
  C        2.8781420    -0.0000300     0.0000940
  H        0.2284300     2.1526090     0.0000410
  H        0.2282920    -2.1525150    -0.0000210
  H        2.7160930     2.1530860     0.0001180
  H        2.7160100    -2.1531480     0.0000600
  H        3.9651640    -0.0000500     0.0001280
units angstrom
no_reorient  #important for SAPT in psi4, default
symmetry c1  #important for SAPT in psi4, default
}

set PROPERTIES_ORIGIN ["COM"]
properties('MP2/aug-cc-pvtz', properties = ['dipole'])
--------------------------------------------------------------------------

    Molecular point group: c1
  Charge       = 0
  Multiplicity = 1
  Basis Set: AUG-CC-PVTZ
    Blend: AUG-CC-PVTZ
  Basis Set: (AUG-CC-PVTZ AUX)
    Blend: AUG-CC-PVTZ-JKFIT

    Orbital Energies [Eh]
    ---------------------

    Doubly Occupied:

       1A   -490.024694     2A    -65.164440     3A    -58.519751
       4A    -58.518366     5A    -58.518343     6A    -11.303574
       7A    -11.256948     8A    -11.254215     9A    -11.253983
      10A    -11.252589    11A    -11.250264    12A     -9.837180
      13A     -7.448762    14A     -7.441986    15A     -7.441965
      16A     -3.192515    17A     -3.188999    18A     -3.188805
      19A     -3.180150    20A     -3.180142    21A     -1.174635
      22A     -1.070080    23A     -1.032718    24A     -0.973961
      25A     -0.845396    26A     -0.817687    27A     -0.709705
      28A     -0.644697    29A     -0.643833    30A     -0.604850
      31A     -0.573757    32A     -0.532929    33A     -0.515900
      34A     -0.491201    35A     -0.438613    36A     -0.416076
      37A     -0.353316    38A     -0.335263

  @DF-RHF Final Energy: -2802.65611227959289

   => Energetics <=

    Nuclear Repulsion Energy =            430.2404069517941139
    One-Electron Energy =               -4748.6084655411887070
    Two-Electron Energy =                1515.7119463098015331
    Total Energy =                      -2802.6561122795928895
  Basis Set: (AUG-CC-PVTZ AUX)
    Blend: AUG-CC-PVTZ-RI
    Molecular point group: c1

    Geometry (in Angstrom), charge = 0, multiplicity = 1:

       Center              X                  Y                   Z               Mass
    ------------   -----------------  -----------------  -----------------  -----------------
         BR          -1.638468147547     0.065724360882    -0.000053911700    78.918337600000
         C            0.264281252453    -0.067275739118     0.000010388300    12.000000000000
         C            0.945228252453     1.150266260882     0.000048388300    12.000000000000
         C            0.945185252453    -1.284889739118     0.000014388300    12.000000000000
         C            2.341341252453     1.141027260882     0.000093388300    12.000000000000
         C            2.341278252453    -1.275732739118     0.000060388300    12.000000000000
         C            3.041801252453    -0.067358739118     0.000098388300    12.000000000000
         H            0.392089252453     2.085280260882     0.000045388300     1.007825032230
         H            0.391951252453    -2.219843739118    -0.000016611700     1.007825032230
         H            2.879752252453     2.085757260882     0.000122388300     1.007825032230
         H            2.879669252453    -2.220476739118     0.000064388300     1.007825032230
         H            4.128823252453    -0.067378739118     0.000132388300     1.007825032230

  Basis Set: AUG-CC-PVTZ
    Blend: AUG-CC-PVTZ
  Basis Set: (AUG-CC-PVTZ AUX)
    Blend: AUG-CC-PVTZ-JKFIT
	 Reference Energy          =   -2802.6561122795928895 [Eh]
	 Singles Energy            =      -0.0000000000000000 [Eh]
	 Same-Spin Energy          =      -0.3495414233036008 [Eh]
	 Opposite-Spin Energy      =      -1.0130292282899229 [Eh]
	 Correlation Energy        =      -1.3625706515935239 [Eh]
	 Total Energy              =   -2804.0186829311865040 [Eh]

	 ================> DF-SCS-MP2 Energies <==================
	-----------------------------------------------------------
	 SCS Same-Spin Scale       =       0.3333333333333333 [-]
	 SCS Opposite-Spin Scale   =       1.2000000000000000 [-]
	 SCS Same-Spin Energy      =      -0.1165138077678669 [Eh]
	 SCS Opposite-Spin Energy  =      -1.2156350739479074 [Eh]
	 SCS Correlation Energy    =      -1.3321488817157743 [Eh]
	 SCS Total Energy          =   -2803.9882611613088557 [Eh]
	-----------------------------------------------------------

  Dipole Moment: [D]
     X:     1.7757      Y:    -0.0433      Z:     0.0001     Total:     1.7762

*** Psi4 exiting successfully. Buy a developer a beer!
