                               Psi4 1.4a3.dev225

  ==> Input File <==

--------------------------------------------------------------------------
#psi4
#
memory 32 gb

molecule  {
0 1
 Br       -1.8067610     0.0000000    -0.0000580
  C        0.0515240     0.0000000     0.0000014
  C        0.7813260     1.2178930     0.0000420
  C        0.7813280    -1.2178930     0.0000080
  C        2.1776290     1.2084050     0.0000870
  C        2.1776280    -1.2084060     0.0000540
  C        2.8777560     0.0000010     0.0000930
  H        0.2278800     2.1522740     0.0000370
  H        0.2278770    -2.1522720    -0.0000220
  H        2.7165890     2.1526430     0.0001170
  H        2.7165920    -2.1526410     0.0000580
  H        3.9645660    -0.0000010     0.0001280
units angstrom
no_reorient  #important for SAPT in psi4, default
symmetry c1  #important for SAPT in psi4, default
}

set PROPERTIES_ORIGIN ["COM"]
properties('MP2/aug-cc-pvtz', properties = ['dipole'])
--------------------------------------------------------------------------

    Molecular point group: c1
  Charge       = 0
  Multiplicity = 1
  Basis Set: AUG-CC-PVTZ
    Blend: AUG-CC-PVTZ
  Basis Set: (AUG-CC-PVTZ AUX)
    Blend: AUG-CC-PVTZ-JKFIT

    Orbital Energies [Eh]
    ---------------------

    Doubly Occupied:

       1A   -490.029234     2A    -65.169178     3A    -58.524460
       4A    -58.523104     5A    -58.523076     6A    -11.304473
       7A    -11.256496     8A    -11.256469     9A    -11.252042
      10A    -11.251748    11A    -11.249345    12A     -9.842268
      13A     -7.453981    14A     -7.447094    15A     -7.447042
      16A     -3.197798    17A     -3.194145    18A     -3.193896
      19A     -3.185222    20A     -3.185215    21A     -1.169087
      22A     -1.077028    23A     -1.028322    24A     -0.973959
      25A     -0.840639    26A     -0.815588    27A     -0.707059
      28A     -0.643915    29A     -0.640764    30A     -0.599991
      31A     -0.575909    32A     -0.529496    33A     -0.510249
      34A     -0.501485    35A     -0.443544    36A     -0.419118
      37A     -0.351084    38A     -0.329623

  @DF-RHF Final Energy: -2802.65385013912964

   => Energetics <=

    Nuclear Repulsion Energy =            430.7260384079149844
    One-Electron Energy =               -4749.4734759934135582
    Two-Electron Energy =                1516.0935874463684740
    Total Energy =                      -2802.6538501391296450
  Basis Set: (AUG-CC-PVTZ AUX)
    Blend: AUG-CC-PVTZ-RI
    Molecular point group: c1

    Geometry (in Angstrom), charge = 0, multiplicity = 1:

       Center              X                  Y                   Z               Mass
    ------------   -----------------  -----------------  -----------------  -----------------
         BR          -1.636909079450    -0.000000019387    -0.000052665371    78.918337600000
         C            0.221375920550    -0.000000019387     0.000006734629    12.000000000000
         C            0.951177920550     1.217892980613     0.000047334629    12.000000000000
         C            0.951179920550    -1.217893019387     0.000013334629    12.000000000000
         C            2.347480920550     1.208404980613     0.000092334629    12.000000000000
         C            2.347479920550    -1.208406019387     0.000059334629    12.000000000000
         C            3.047607920550     0.000000980613     0.000098334629    12.000000000000
         H            0.397731920550     2.152273980613     0.000042334629     1.007825032230
         H            0.397728920550    -2.152272019387    -0.000016665371     1.007825032230
         H            2.886440920550     2.152642980613     0.000122334629     1.007825032230
         H            2.886443920550    -2.152641019387     0.000063334629     1.007825032230
         H            4.134417920550    -0.000001019387     0.000133334629     1.007825032230

  Basis Set: AUG-CC-PVTZ
    Blend: AUG-CC-PVTZ
  Basis Set: (AUG-CC-PVTZ AUX)
    Blend: AUG-CC-PVTZ-JKFIT
	 Reference Energy          =   -2802.6538501391296450 [Eh]
	 Singles Energy            =      -0.0000000000000000 [Eh]
	 Same-Spin Energy          =      -0.3500672221952910 [Eh]
	 Opposite-Spin Energy      =      -1.0139344306381886 [Eh]
	 Correlation Energy        =      -1.3640016528334795 [Eh]
	 Total Energy              =   -2804.0178517919630394 [Eh]

	 ================> DF-SCS-MP2 Energies <==================
	-----------------------------------------------------------
	 SCS Same-Spin Scale       =       0.3333333333333333 [-]
	 SCS Opposite-Spin Scale   =       1.2000000000000000 [-]
	 SCS Same-Spin Energy      =      -0.1166890740650970 [Eh]
	 SCS Opposite-Spin Energy  =      -1.2167213167658262 [Eh]
	 SCS Correlation Energy    =      -1.3334103908309232 [Eh]
	 SCS Total Energy          =   -2803.9872605299606221 [Eh]
	-----------------------------------------------------------

  Dipole Moment: [D]
     X:     1.5374      Y:     0.0000      Z:     0.0000     Total:     1.5374

*** Psi4 exiting successfully. Buy a developer a beer!
