                               Psi4 1.4a3.dev225

  ==> Input File <==

--------------------------------------------------------------------------
#psi4
#
memory 32 gb

molecule  {
0 1
 Br       -1.8067610     0.0000000    -0.0000580
  C        0.0815240     0.0000000     0.0000024
  C        0.7813260     1.2178930     0.0000420
  C        0.7813280    -1.2178930     0.0000080
  C        2.1776290     1.2084050     0.0000870
  C        2.1776280    -1.2084060     0.0000540
  C        2.8777560     0.0000010     0.0000930
  H        0.2278800     2.1522740     0.0000370
  H        0.2278770    -2.1522720    -0.0000220
  H        2.7165890     2.1526430     0.0001170
  H        2.7165920    -2.1526410     0.0000580
  H        3.9645660    -0.0000010     0.0001280
units angstrom
no_reorient  #important for SAPT in psi4, default
symmetry c1  #important for SAPT in psi4, default
}

set PROPERTIES_ORIGIN ["COM"]
properties('MP2/aug-cc-pvtz', properties = ['dipole'])
--------------------------------------------------------------------------

    Molecular point group: c1
  Charge       = 0
  Multiplicity = 1
  Basis Set: AUG-CC-PVTZ
    Blend: AUG-CC-PVTZ
  Basis Set: (AUG-CC-PVTZ AUX)
    Blend: AUG-CC-PVTZ-JKFIT

    Orbital Energies [Eh]
    ---------------------

    Doubly Occupied:

       1A   -490.026550     2A    -65.166361     3A    -58.521662
       4A    -58.520288     5A    -58.520265     6A    -11.303872
       7A    -11.255887     8A    -11.255859     9A    -11.252881
      10A    -11.252629    11A    -11.249860    12A     -9.839221
      13A     -7.450849    14A     -7.444036    15A     -7.444005
      16A     -3.194626    17A     -3.191059    18A     -3.190847
      19A     -3.182190    20A     -3.182183    21A     -1.172272
      22A     -1.072470    23A     -1.030944    24A     -0.974197
      25A     -0.843600    26A     -0.816830    27A     -0.708694
      28A     -0.643842    29A     -0.642986    30A     -0.602991
      31A     -0.574577    32A     -0.531414    33A     -0.513743
      34A     -0.495446    35A     -0.440540    36A     -0.417612
      37A     -0.352385    38A     -0.333155

  @DF-RHF Final Energy: -2802.65642746949698

   => Energetics <=

    Nuclear Repulsion Energy =            430.3280364723116236
    One-Electron Energy =               -4748.7432669435875141
    Two-Electron Energy =                1515.7588030017791425
    Total Energy =                      -2802.6564274694969754
  Basis Set: (AUG-CC-PVTZ AUX)
    Blend: AUG-CC-PVTZ-RI
    Molecular point group: c1

    Geometry (in Angstrom), charge = 0, multiplicity = 1:

       Center              X                  Y                   Z               Mass
    ------------   -----------------  -----------------  -----------------  -----------------
         BR          -1.639217401178    -0.000000019387    -0.000052742315    78.918337600000
         C            0.249067598822    -0.000000019387     0.000007657685    12.000000000000
         C            0.948869598822     1.217892980613     0.000047257685    12.000000000000
         C            0.948871598822    -1.217893019387     0.000013257685    12.000000000000
         C            2.345172598822     1.208404980613     0.000092257685    12.000000000000
         C            2.345171598822    -1.208406019387     0.000059257685    12.000000000000
         C            3.045299598822     0.000000980613     0.000098257685    12.000000000000
         H            0.395423598822     2.152273980613     0.000042257685     1.007825032230
         H            0.395420598822    -2.152272019387    -0.000016742315     1.007825032230
         H            2.884132598822     2.152642980613     0.000122257685     1.007825032230
         H            2.884135598822    -2.152641019387     0.000063257685     1.007825032230
         H            4.132109598822    -0.000001019387     0.000133257685     1.007825032230

  Basis Set: AUG-CC-PVTZ
    Blend: AUG-CC-PVTZ
  Basis Set: (AUG-CC-PVTZ AUX)
    Blend: AUG-CC-PVTZ-JKFIT
	 Reference Energy          =   -2802.6564274694969754 [Eh]
	 Singles Energy            =      -0.0000000000000000 [Eh]
	 Same-Spin Energy          =      -0.3496824996634222 [Eh]
	 Opposite-Spin Energy      =      -1.0132714995223093 [Eh]
	 Correlation Energy        =      -1.3629539991857316 [Eh]
	 Total Energy              =   -2804.0193814686826954 [Eh]

	 ================> DF-SCS-MP2 Energies <==================
	-----------------------------------------------------------
	 SCS Same-Spin Scale       =       0.3333333333333333 [-]
	 SCS Opposite-Spin Scale   =       1.2000000000000000 [-]
	 SCS Same-Spin Energy      =      -0.1165608332211407 [Eh]
	 SCS Opposite-Spin Energy  =      -1.2159257994267711 [Eh]
	 SCS Correlation Energy    =      -1.3324866326479119 [Eh]
	 SCS Total Energy          =   -2803.9889141021449177 [Eh]
	-----------------------------------------------------------

  Dipole Moment: [D]
     X:     1.6811      Y:     0.0000      Z:     0.0001     Total:     1.6811

*** Psi4 exiting successfully. Buy a developer a beer!
