                               Psi4 1.4a3.dev225

  ==> Input File <==

--------------------------------------------------------------------------
#psi4
#
memory 32 gb

molecule  {
0 1
 Br       -1.8067610     0.0000000    -0.0000580
  C        0.1215240     0.0000000     0.0000036
  C        0.7813260     1.2178930     0.0000420
  C        0.7813280    -1.2178930     0.0000080
  C        2.1776290     1.2084050     0.0000870
  C        2.1776280    -1.2084060     0.0000540
  C        2.8777560     0.0000010     0.0000930
  H        0.2278800     2.1522740     0.0000370
  H        0.2278770    -2.1522720    -0.0000220
  H        2.7165890     2.1526430     0.0001170
  H        2.7165920    -2.1526410     0.0000580
  H        3.9645660    -0.0000010     0.0001280
units angstrom
no_reorient  #important for SAPT in psi4, default
symmetry c1  #important for SAPT in psi4, default
}

set PROPERTIES_ORIGIN ["COM"]
properties('MP2/aug-cc-pvtz', properties = ['dipole'])
--------------------------------------------------------------------------

    Molecular point group: c1
  Charge       = 0
  Multiplicity = 1
  Basis Set: AUG-CC-PVTZ
    Blend: AUG-CC-PVTZ
  Basis Set: (AUG-CC-PVTZ AUX)
    Blend: AUG-CC-PVTZ-JKFIT

    Orbital Energies [Eh]
    ---------------------

    Doubly Occupied:

       1A   -490.022599     2A    -65.162272     3A    -58.517588
       4A    -58.516203     5A    -58.516183     6A    -11.303491
       7A    -11.255427     8A    -11.255417     9A    -11.254043
      10A    -11.253861    11A    -11.250614    12A     -9.834879
      13A     -7.446391    14A     -7.439692    15A     -7.439685
      16A     -3.190108    17A     -3.186656    18A     -3.186489
      19A     -3.177894    20A     -3.177887    21A     -1.177174
      22A     -1.067280    23A     -1.034841    24A     -0.973753
      25A     -0.847672    26A     -0.818470    27A     -0.711041
      28A     -0.646545    29A     -0.644129    30A     -0.607013
      31A     -0.573155    32A     -0.534595    33A     -0.518452
      34A     -0.486422    35A     -0.436432    36A     -0.414985
      37A     -0.354320    38A     -0.337654

  @DF-RHF Final Energy: -2802.65713034030750

   => Energetics <=

    Nuclear Repulsion Energy =            429.8449426950959378
    One-Electron Energy =               -4747.8615201587499541
    Two-Electron Energy =                1515.3594471233468539
    Total Energy =                      -2802.6571303403075035
  Basis Set: (AUG-CC-PVTZ AUX)
    Blend: AUG-CC-PVTZ-RI
    Molecular point group: c1

    Geometry (in Angstrom), charge = 0, multiplicity = 1:

       Center              X                  Y                   Z               Mass
    ------------   -----------------  -----------------  -----------------  -----------------
         BR          -1.642295163483    -0.000000019387    -0.000052834648    78.918337600000
         C            0.285989836517    -0.000000019387     0.000008765352    12.000000000000
         C            0.945791836517     1.217892980613     0.000047165352    12.000000000000
         C            0.945793836517    -1.217893019387     0.000013165352    12.000000000000
         C            2.342094836517     1.208404980613     0.000092165352    12.000000000000
         C            2.342093836517    -1.208406019387     0.000059165352    12.000000000000
         C            3.042221836517     0.000000980613     0.000098165352    12.000000000000
         H            0.392345836517     2.152273980613     0.000042165352     1.007825032230
         H            0.392342836517    -2.152272019387    -0.000016834648     1.007825032230
         H            2.881054836517     2.152642980613     0.000122165352     1.007825032230
         H            2.881057836517    -2.152641019387     0.000063165352     1.007825032230
         H            4.129031836517    -0.000001019387     0.000133165352     1.007825032230

  Basis Set: AUG-CC-PVTZ
    Blend: AUG-CC-PVTZ
  Basis Set: (AUG-CC-PVTZ AUX)
    Blend: AUG-CC-PVTZ-JKFIT
	 Reference Energy          =   -2802.6571303403075035 [Eh]
	 Singles Energy            =      -0.0000000000000000 [Eh]
	 Same-Spin Energy          =      -0.3493015358371518 [Eh]
	 Opposite-Spin Energy      =      -1.0125823049980385 [Eh]
	 Correlation Energy        =      -1.3618838408351903 [Eh]
	 Total Energy              =   -2804.0190141811426656 [Eh]

	 ================> DF-SCS-MP2 Energies <==================
	-----------------------------------------------------------
	 SCS Same-Spin Scale       =       0.3333333333333333 [-]
	 SCS Opposite-Spin Scale   =       1.2000000000000000 [-]
	 SCS Same-Spin Energy      =      -0.1164338452790506 [Eh]
	 SCS Opposite-Spin Energy  =      -1.2150987659976462 [Eh]
	 SCS Correlation Energy    =      -1.3315326112766968 [Eh]
	 SCS Total Energy          =   -2803.9886629515840468 [Eh]
	-----------------------------------------------------------

  Dipole Moment: [D]
     X:     1.8808      Y:     0.0000      Z:     0.0001     Total:     1.8808

*** Psi4 exiting successfully. Buy a developer a beer!
