                               Psi4 1.4a3.dev225

  ==> Input File <==

--------------------------------------------------------------------------
#psi4
#
memory 32 gb

molecule  {
0 1
 Br       -1.8067610     0.0000000    -0.0000580
  C        0.1515240     0.0000000     0.0000046
  C        0.7813260     1.2178930     0.0000420
  C        0.7813280    -1.2178930     0.0000080
  C        2.1776290     1.2084050     0.0000870
  C        2.1776280    -1.2084060     0.0000540
  C        2.8777560     0.0000010     0.0000930
  H        0.2278800     2.1522740     0.0000370
  H        0.2278770    -2.1522720    -0.0000220
  H        2.7165890     2.1526430     0.0001170
  H        2.7165920    -2.1526410     0.0000580
  H        3.9645660    -0.0000010     0.0001280
units angstrom
no_reorient  #important for SAPT in psi4, default
symmetry c1  #important for SAPT in psi4, default
}

set PROPERTIES_ORIGIN ["COM"]
properties('MP2/aug-cc-pvtz', properties = ['dipole'])
--------------------------------------------------------------------------

    Molecular point group: c1
  Charge       = 0
  Multiplicity = 1
  Basis Set: AUG-CC-PVTZ
    Blend: AUG-CC-PVTZ
  Basis Set: (AUG-CC-PVTZ AUX)
    Blend: AUG-CC-PVTZ-JKFIT

    Orbital Energies [Eh]
    ---------------------

    Doubly Occupied:

       1A   -490.019320     2A    -65.158917     3A    -58.514236
       4A    -58.512851     5A    -58.512834     6A    -11.303555
       7A    -11.255865     8A    -11.255781     9A    -11.254500
      10A    -11.254444    11A    -11.251253    12A     -9.831372
      13A     -7.442794    14A     -7.436202    15A     -7.436195
      16A     -3.186459    17A     -3.183097    18A     -3.182958
      19A     -3.174443    20A     -3.174436    21A     -1.181303
      22A     -1.064082    23A     -1.038100    24A     -0.972821
      25A     -0.850816    26A     -0.819716    27A     -0.712938
      28A     -0.649725    29A     -0.644596    30A     -0.609967
      31A     -0.572391    32A     -0.537427    33A     -0.521950
      34A     -0.479006    35A     -0.433284    36A     -0.412613
      37A     -0.355940    38A     -0.340861

  @DF-RHF Final Energy: -2802.65571405315814

   => Energetics <=

    Nuclear Repulsion Energy =            429.5157505887208345
    One-Electron Energy =               -4747.2648288269219847
    Two-Electron Energy =                1515.0933641850429012
    Total Energy =                      -2802.6557140531581354
  Basis Set: (AUG-CC-PVTZ AUX)
    Blend: AUG-CC-PVTZ-RI
    Molecular point group: c1

    Geometry (in Angstrom), charge = 0, multiplicity = 1:

       Center              X                  Y                   Z               Mass
    ------------   -----------------  -----------------  -----------------  -----------------
         BR          -1.644603485211    -0.000000019387    -0.000052911592    78.918337600000
         C            0.313681514789    -0.000000019387     0.000009688408    12.000000000000
         C            0.943483514789     1.217892980613     0.000047088408    12.000000000000
         C            0.943485514789    -1.217893019387     0.000013088408    12.000000000000
         C            2.339786514789     1.208404980613     0.000092088408    12.000000000000
         C            2.339785514789    -1.208406019387     0.000059088408    12.000000000000
         C            3.039913514789     0.000000980613     0.000098088408    12.000000000000
         H            0.390037514789     2.152273980613     0.000042088408     1.007825032230
         H            0.390034514789    -2.152272019387    -0.000016911592     1.007825032230
         H            2.878746514789     2.152642980613     0.000122088408     1.007825032230
         H            2.878749514789    -2.152641019387     0.000063088408     1.007825032230
         H            4.126723514789    -0.000001019387     0.000133088408     1.007825032230

  Basis Set: AUG-CC-PVTZ
    Blend: AUG-CC-PVTZ
  Basis Set: (AUG-CC-PVTZ AUX)
    Blend: AUG-CC-PVTZ-JKFIT
	 Reference Energy          =   -2802.6557140531581354 [Eh]
	 Singles Energy            =      -0.0000000000000000 [Eh]
	 Same-Spin Energy          =      -0.3491080324495472 [Eh]
	 Opposite-Spin Energy      =      -1.0121975055521186 [Eh]
	 Correlation Energy        =      -1.3613055380016659 [Eh]
	 Total Energy              =   -2804.0170195911596238 [Eh]

	 ================> DF-SCS-MP2 Energies <==================
	-----------------------------------------------------------
	 SCS Same-Spin Scale       =       0.3333333333333333 [-]
	 SCS Opposite-Spin Scale   =       1.2000000000000000 [-]
	 SCS Same-Spin Energy      =      -0.1163693441498491 [Eh]
	 SCS Opposite-Spin Energy  =      -1.2146370066625423 [Eh]
	 SCS Correlation Energy    =      -1.3310063508123913 [Eh]
	 SCS Total Energy          =   -2803.9867204039705939 [Eh]
	-----------------------------------------------------------

  Dipole Moment: [D]
     X:     2.0384      Y:     0.0000      Z:     0.0001     Total:     2.0384

*** Psi4 exiting successfully. Buy a developer a beer!
