                               Psi4 1.3.2 release

  ==> Input File <==

--------------------------------------------------------------------------
#psi4
#
memory 32 gb

molecule  {
0 1
 Br       -1.8067700     0.0000000    -0.0000600
  C       -0.0993780     0.0000474    -0.0000009
  C        0.7815690     1.2175950     0.0000440
  C        0.7815260    -1.2175610     0.0000100
  C        2.1776820     1.2083560     0.0000890
  C        2.1776190    -1.2084040     0.0000560
  C        2.8781420    -0.0000300     0.0000940
  H        0.2284300     2.1526090     0.0000410
  H        0.2282920    -2.1525150    -0.0000210
  H        2.7160930     2.1530860     0.0001180
  H        2.7160100    -2.1531480     0.0000600
  H        3.9651640    -0.0000500     0.0001280
units angstrom
no_reorient  #important for SAPT in psi4, default
symmetry c1  #important for SAPT in psi4, default
}

set PROPERTIES_ORIGIN ["COM"]
properties('MP2/aug-cc-pvtz', properties = ['dipole'])
--------------------------------------------------------------------------

    Molecular point group: c1
  Charge       = 0
  Multiplicity = 1
  Basis Set: AUG-CC-PVTZ
    Blend: AUG-CC-PVTZ
  Basis Set: (AUG-CC-PVTZ AUX)
    Blend: AUG-CC-PVTZ-JKFIT

    Orbital Energies [Eh]
    ---------------------

    Doubly Occupied:

       1A   -490.040284     2A    -65.181343     3A    -58.536416
       4A    -58.535264     5A    -58.535206     6A    -11.310530
       7A    -11.260894     8A    -11.260877     9A    -11.248903
      10A    -11.248436    11A    -11.246903    12A     -9.856244
      13A     -7.468430    14A     -7.461227    15A     -7.461007
      16A     -3.212399    17A     -3.208271    18A     -3.207738
      19A     -3.199330    20A     -3.199320    21A     -1.162895
      22A     -1.105095    23A     -1.018082    24A     -0.966604
      25A     -0.826785    26A     -0.808565    27A     -0.700018
      28A     -0.649107    29A     -0.633580    30A     -0.586706
      31A     -0.583388    32A     -0.526952    33A     -0.521649
      34A     -0.497101    35A     -0.457083    36A     -0.417590
      37A     -0.346050    38A     -0.309884

  @DF-RHF Final Energy: -2802.61101334869727

   => Energetics <=

    Nuclear Repulsion Energy =            433.2643343086606933
    One-Electron Energy =               -4754.1583899534334705
    Two-Electron Energy =                1518.2830422960748820
    Total Energy =                      -2802.6110133486972700
  Basis Set: (AUG-CC-PVTZ AUX)
    Blend: AUG-CC-PVTZ-RI
    Molecular point group: c1

    Geometry (in Angstrom), charge = 0, multiplicity = 1:

       Center              X                  Y                   Z               Mass
    ------------   -----------------  -----------------  -----------------  -----------------
         BR          -1.625372665476    -0.000000145291    -0.000054220544    78.918337600000
         C            0.082019334524     0.000047254709     0.000004879456    12.000000000000
         C            0.962966334524     1.217594854709     0.000049779456    12.000000000000
         C            0.962923334524    -1.217561145291     0.000015779456    12.000000000000
         C            2.359079334524     1.208355854709     0.000094779456    12.000000000000
         C            2.359016334524    -1.208404145291     0.000061779456    12.000000000000
         C            3.059539334524    -0.000030145291     0.000099779456    12.000000000000
         H            0.409827334524     2.152608854709     0.000046779456     1.007825032230
         H            0.409689334524    -2.152515145291    -0.000015220544     1.007825032230
         H            2.897490334524     2.153085854709     0.000123779456     1.007825032230
         H            2.897407334524    -2.153148145291     0.000065779456     1.007825032230
         H            4.146561334524    -0.000050145291     0.000133779456     1.007825032230

  Basis Set: AUG-CC-PVTZ
    Blend: AUG-CC-PVTZ
  Basis Set: (AUG-CC-PVTZ AUX)
    Blend: AUG-CC-PVTZ-JKFIT
	 Reference Energy          =   -2802.6110133486972700 [Eh]
	 Singles Energy            =      -0.0000000000000000 [Eh]
	 Same-Spin Energy          =      -0.3534516690807513 [Eh]
	 Opposite-Spin Energy      =      -1.0194673333146902 [Eh]
	 Correlation Energy        =      -1.3729190023954414 [Eh]
	 Total Energy              =   -2803.9839323510927898 [Eh]

	 ================> DF-SCS-MP2 Energies <==================
	-----------------------------------------------------------
	 SCS Same-Spin Scale       =       0.3333333333333333 [-]
	 SCS Opposite-Spin Scale   =       1.2000000000000000 [-]
	 SCS Same-Spin Energy      =      -0.1178172230269171 [Eh]
	 SCS Opposite-Spin Energy  =      -1.2233607999776281 [Eh]
	 SCS Correlation Energy    =      -1.3411780230045451 [Eh]
	 SCS Total Energy          =   -2803.9521913717017014 [Eh]
	-----------------------------------------------------------

  Dipole Moment: [D]
     X:     0.8453      Y:    -0.0000      Z:     0.0000     Total:     0.8453

*** Psi4 exiting successfully. Buy a developer a beer!
