                               Psi4 1.3.2 release

  ==> Input File <==

--------------------------------------------------------------------------
#psi4
#
memory 32 gb

molecule  {
0 1
 Br       -1.8067700     0.0000000    -0.0000600
  C        0.2006220     0.0000558     0.0000095
  C        0.7815690     1.2175950     0.0000440
  C        0.7815260    -1.2175610     0.0000100
  C        2.1776820     1.2083560     0.0000890
  C        2.1776190    -1.2084040     0.0000560
  C        2.8781420    -0.0000300     0.0000940
  H        0.2284300     2.1526090     0.0000410
  H        0.2282920    -2.1525150    -0.0000210
  H        2.7160930     2.1530860     0.0001180
  H        2.7160100    -2.1531480     0.0000600
  H        3.9651640    -0.0000500     0.0001280
units angstrom
no_reorient  #important for SAPT in psi4, default
symmetry c1  #important for SAPT in psi4, default
}

set PROPERTIES_ORIGIN ["COM"]
properties('MP2/aug-cc-pvtz', properties = ['dipole'])
--------------------------------------------------------------------------

    Molecular point group: c1
  Charge       = 0
  Multiplicity = 1
  Basis Set: AUG-CC-PVTZ
    Blend: AUG-CC-PVTZ
  Basis Set: (AUG-CC-PVTZ AUX)
    Blend: AUG-CC-PVTZ-JKFIT

    Orbital Energies [Eh]
    ---------------------

    Doubly Occupied:

       1A   -490.013320     2A    -65.152840     3A    -58.508153
       4A    -58.506784     5A    -58.506769     6A    -11.304340
       7A    -11.257931     8A    -11.257815     9A    -11.254689
      10A    -11.254674    11A    -11.252565    12A     -9.825108
      13A     -7.436373    14A     -7.429995    15A     -7.429968
      16A     -3.179942    17A     -3.176736    18A     -3.176635
      19A     -3.168313    20A     -3.168306    21A     -1.188885
      22A     -1.060102    23A     -1.044135    24A     -0.970184
      25A     -0.856016    26A     -0.821916    27A     -0.716226
      28A     -0.656005    29A     -0.645649    30A     -0.614422
      31A     -0.571731    32A     -0.542904    33A     -0.527449
      34A     -0.465910    35A     -0.428041    36A     -0.408089
      37A     -0.358967    38A     -0.345778

  @DF-RHF Final Energy: -2802.65001687749509

   => Energetics <=

    Nuclear Repulsion Energy =            429.0291151117961022
    One-Electron Energy =               -4746.3909352849586867
    Two-Electron Energy =                1514.7118032956668685
    Total Energy =                      -2802.6500168774955455
  Basis Set: (AUG-CC-PVTZ AUX)
    Blend: AUG-CC-PVTZ-RI
    Molecular point group: c1

    Geometry (in Angstrom), charge = 0, multiplicity = 1:

       Center              X                  Y                   Z               Mass
    ------------   -----------------  -----------------  -----------------  -----------------
         BR          -1.648455882760    -0.000000791621    -0.000055020762    78.918337600000
         C            0.358936117240     0.000055008379     0.000014479238    12.000000000000
         C            0.939883117240     1.217594208379     0.000048979238    12.000000000000
         C            0.939840117240    -1.217561791621     0.000014979238    12.000000000000
         C            2.335996117240     1.208355208379     0.000093979238    12.000000000000
         C            2.335933117240    -1.208404791621     0.000060979238    12.000000000000
         C            3.036456117240    -0.000030791621     0.000098979238    12.000000000000
         H            0.386744117240     2.152608208379     0.000045979238     1.007825032230
         H            0.386606117240    -2.152515791621    -0.000016020762     1.007825032230
         H            2.874407117240     2.153085208379     0.000122979238     1.007825032230
         H            2.874324117240    -2.153148791621     0.000064979238     1.007825032230
         H            4.123478117240    -0.000050791621     0.000132979238     1.007825032230

  Basis Set: AUG-CC-PVTZ
    Blend: AUG-CC-PVTZ
  Basis Set: (AUG-CC-PVTZ AUX)
    Blend: AUG-CC-PVTZ-JKFIT
	 Reference Energy          =   -2802.6500168774950907 [Eh]
	 Singles Energy            =      -0.0000000000000000 [Eh]
	 Same-Spin Energy          =      -0.3489471403723359 [Eh]
	 Opposite-Spin Energy      =      -1.0117770477637762 [Eh]
	 Correlation Energy        =      -1.3607241881361121 [Eh]
	 Total Energy              =   -2804.0107410656310094 [Eh]

	 ================> DF-SCS-MP2 Energies <==================
	-----------------------------------------------------------
	 SCS Same-Spin Scale       =       0.3333333333333333 [-]
	 SCS Opposite-Spin Scale   =       1.2000000000000000 [-]
	 SCS Same-Spin Energy      =      -0.1163157134574453 [Eh]
	 SCS Opposite-Spin Energy  =      -1.2141324573165313 [Eh]
	 SCS Correlation Energy    =      -1.3304481707739766 [Eh]
	 SCS Total Energy          =   -2803.9804650482692523 [Eh]
	-----------------------------------------------------------

  Dipole Moment: [D]
     X:     2.3131      Y:     0.0000      Z:     0.0001     Total:     2.3131

*** Psi4 exiting successfully. Buy a developer a beer!
