                               Psi4 1.3.2 release

  ==> Input File <==

--------------------------------------------------------------------------
#psi4
#
memory 32 gb

molecule  {
0 1
 Br       -1.8067700     0.0000000    -0.0000600
  C        0.3006220     0.0000586     0.0000129
  C        0.7815690     1.2175950     0.0000440
  C        0.7815260    -1.2175610     0.0000100
  C        2.1776820     1.2083560     0.0000890
  C        2.1776190    -1.2084040     0.0000560
  C        2.8781420    -0.0000300     0.0000940
  H        0.2284300     2.1526090     0.0000410
  H        0.2282920    -2.1525150    -0.0000210
  H        2.7160930     2.1530860     0.0001180
  H        2.7160100    -2.1531480     0.0000600
  H        3.9651640    -0.0000500     0.0001280
units angstrom
no_reorient  #important for SAPT in psi4, default
symmetry c1  #important for SAPT in psi4, default
}

set PROPERTIES_ORIGIN ["COM"]
properties('MP2/aug-cc-pvtz', properties = ['dipole'])
--------------------------------------------------------------------------

    Molecular point group: c1
  Charge       = 0
  Multiplicity = 1
  Basis Set: AUG-CC-PVTZ
    Blend: AUG-CC-PVTZ
  Basis Set: (AUG-CC-PVTZ AUX)
    Blend: AUG-CC-PVTZ-JKFIT

    Orbital Energies [Eh]
    ---------------------

    Doubly Occupied:

       1A   -489.998219     2A    -65.137747     3A    -58.492999
       4A    -58.491721     5A    -58.491709     6A    -11.309120
       7A    -11.264029     8A    -11.263951     9A    -11.256769
      10A    -11.256731    11A    -11.256021    12A     -9.809840
      13A     -7.420733    14A     -7.414919    15A     -7.414866
      16A     -3.164054    17A     -3.161211    18A     -3.161163
      19A     -3.153498    20A     -3.153491    21A     -1.207050
      22A     -1.059426    23A     -1.056461    24A     -0.960676
      25A     -0.867282    26A     -0.826902    27A     -0.724234
      28A     -0.672562    29A     -0.649441    30A     -0.622312
      31A     -0.572576    32A     -0.556914    33A     -0.538272
      34A     -0.436660    35A     -0.417409    36A     -0.396547
      37A     -0.366582    38A     -0.354033

  @DF-RHF Final Energy: -2802.62710605741358

   => Energetics <=

    Nuclear Repulsion Energy =            428.2302986567785865
    One-Electron Energy =               -4744.9985522027873230
    Two-Electron Energy =                1514.1411474885956068
    Total Energy =                      -2802.6271060574135845
  Basis Set: (AUG-CC-PVTZ AUX)
    Blend: AUG-CC-PVTZ-RI
    Molecular point group: c1

    Geometry (in Angstrom), charge = 0, multiplicity = 1:

       Center              X                  Y                   Z               Mass
    ------------   -----------------  -----------------  -----------------  -----------------
         BR          -1.656150288521    -0.000001007064    -0.000055282372    78.918337600000
         C            0.451241711479     0.000057592936     0.000017617628    12.000000000000
         C            0.932188711479     1.217593992936     0.000048717628    12.000000000000
         C            0.932145711479    -1.217562007064     0.000014717628    12.000000000000
         C            2.328301711479     1.208354992936     0.000093717628    12.000000000000
         C            2.328238711479    -1.208405007064     0.000060717628    12.000000000000
         C            3.028761711479    -0.000031007064     0.000098717628    12.000000000000
         H            0.379049711479     2.152607992936     0.000045717628     1.007825032230
         H            0.378911711479    -2.152516007064    -0.000016282372     1.007825032230
         H            2.866712711479     2.153084992936     0.000122717628     1.007825032230
         H            2.866629711479    -2.153149007064     0.000064717628     1.007825032230
         H            4.115783711479    -0.000051007064     0.000132717628     1.007825032230

  Basis Set: AUG-CC-PVTZ
    Blend: AUG-CC-PVTZ
  Basis Set: (AUG-CC-PVTZ AUX)
    Blend: AUG-CC-PVTZ-JKFIT
	 Reference Energy          =   -2802.6271060574135845 [Eh]
	 Singles Energy            =      -0.0000000000000000 [Eh]
	 Same-Spin Energy          =      -0.3491104914090833 [Eh]
	 Opposite-Spin Energy      =      -1.0114533548278251 [Eh]
	 Correlation Energy        =      -1.3605638462369083 [Eh]
	 Total Energy              =   -2803.9876699036503851 [Eh]

	 ================> DF-SCS-MP2 Energies <==================
	-----------------------------------------------------------
	 SCS Same-Spin Scale       =       0.3333333333333333 [-]
	 SCS Opposite-Spin Scale   =       1.2000000000000000 [-]
	 SCS Same-Spin Energy      =      -0.1163701638030278 [Eh]
	 SCS Opposite-Spin Energy  =      -1.2137440257933900 [Eh]
	 SCS Correlation Energy    =      -1.3301141895964177 [Eh]
	 SCS Total Energy          =   -2803.9572202470099000 [Eh]
	-----------------------------------------------------------

  Dipole Moment: [D]
     X:     2.9602      Y:     0.0000      Z:     0.0001     Total:     2.9602

*** Psi4 exiting successfully. Buy a developer a beer!
