                               Psi4 1.3.2 release

  ==> Input File <==

--------------------------------------------------------------------------
#psi4
#
memory 32 gb

molecule  {
0 1
  O        1.4293010    -1.0173190    -0.5083850
  O        1.2616920     1.0439120     0.4876630
  N       -1.5094500     1.1665790    -0.0160500
  C       -0.7786912    -0.1083875    -0.2142432
  C       -1.3403730    -1.2419500     0.4105850
  C        0.7294260     0.0826320    -0.0646510
  H       -0.8593930    -0.2237720    -1.4273650
  H       -2.4052960    -1.3157140     0.1877600
  H       -0.8411410    -2.1737420     0.1227770
  H       -1.2225590    -1.1039570     1.4923070
  H       -1.0898030     1.9609300    -0.5079820
  H       -1.3695700     1.3697580     0.9773170
  H        2.3653570    -0.8358360    -0.2741470
units angstrom
no_reorient  #important for SAPT in psi4, default
symmetry c1  #important for SAPT in psi4, default
}

set PROPERTIES_ORIGIN ["COM"]
properties('MP2/aug-cc-pvtz', properties = ['dipole'])
--------------------------------------------------------------------------

    Molecular point group: c1
  Charge       = 0
  Multiplicity = 1
  Basis Set: AUG-CC-PVTZ
    Blend: AUG-CC-PVTZ
  Basis Set: (AUG-CC-PVTZ AUX)
    Blend: AUG-CC-PVTZ-JKFIT

    Orbital Energies [Eh]
    ---------------------

    Doubly Occupied:

       1A    -20.623337     2A    -20.561923     3A    -15.554440
       4A    -11.397380     5A    -11.293579     6A    -11.229003
       7A     -1.458175     8A     -1.360109     9A     -1.198682
      10A     -1.045081    11A     -0.908026    12A     -0.782518
      13A     -0.711326    14A     -0.697927    15A     -0.679304
      16A     -0.632342    17A     -0.607041    18A     -0.594973
      19A     -0.568190    20A     -0.545007    21A     -0.491818
      22A     -0.481900    23A     -0.455527    24A     -0.413407

  @DF-RHF Final Energy:  -321.96931609210310

   => Energetics <=

    Nuclear Repulsion Energy =            248.4861201909998556
    One-Electron Energy =                -932.3288403808779776
    Two-Electron Energy =                 361.8734040977750510
    Total Energy =                       -321.9693160921030994
  Basis Set: (AUG-CC-PVTZ AUX)
    Blend: AUG-CC-PVTZ-RI
    Molecular point group: c1

    Geometry (in Angstrom), charge = 0, multiplicity = 1:

       Center              X                  Y                   Z               Mass
    ------------   -----------------  -----------------  -----------------  -----------------
         O            1.431942626116    -1.008425713721    -0.526344211926    15.994914619570
         O            1.264333626116     1.052805286279     0.469703788074    15.994914619570
         N           -1.506808373884     1.175472286279    -0.034009211926    14.003074004430
         C           -0.776049573884    -0.099494213721    -0.232202411926    12.000000000000
         C           -1.337731373884    -1.233056713721     0.392625788074    12.000000000000
         C            0.732067626116     0.091525286279    -0.082610211926    12.000000000000
         H           -0.856751373884    -0.214878713721    -1.445324211926     1.007825032230
         H           -2.402654373884    -1.306820713721     0.169800788074     1.007825032230
         H           -0.838499373884    -2.164848713721     0.104817788074     1.007825032230
         H           -1.219917373884    -1.095063713721     1.474347788074     1.007825032230
         H           -1.087161373884     1.969823286279    -0.525941211926     1.007825032230
         H           -1.366928373884     1.378651286279     0.959357788074     1.007825032230
         H            2.367998626116    -0.826942713721    -0.292106211926     1.007825032230

  Basis Set: AUG-CC-PVTZ
    Blend: AUG-CC-PVTZ
  Basis Set: (AUG-CC-PVTZ AUX)
    Blend: AUG-CC-PVTZ-JKFIT
	 Reference Energy          =    -321.9693160921030994 [Eh]
	 Singles Energy            =      -0.0000000000000000 [Eh]
	 Same-Spin Energy          =      -0.3185316314228957 [Eh]
	 Opposite-Spin Energy      =      -1.0035195696668375 [Eh]
	 Correlation Energy        =      -1.3220512010897332 [Eh]
	 Total Energy              =    -323.2913672931928204 [Eh]

	 ================> DF-SCS-MP2 Energies <==================
	-----------------------------------------------------------
	 SCS Same-Spin Scale       =       0.3333333333333333 [-]
	 SCS Opposite-Spin Scale   =       1.2000000000000000 [-]
	 SCS Same-Spin Energy      =      -0.1061772104742986 [Eh]
	 SCS Opposite-Spin Energy  =      -1.2042234836002050 [Eh]
	 SCS Correlation Energy    =      -1.3104006940745037 [Eh]
	 SCS Total Energy          =    -323.2797167861776302 [Eh]
	-----------------------------------------------------------

  Dipole Moment: [D]
     X:     0.6021      Y:    -1.2510      Z:    -0.1684     Total:     1.3985

*** Psi4 exiting successfully. Buy a developer a beer!
