                               Psi4 1.3.2 release

  ==> Input File <==

--------------------------------------------------------------------------
#psi4
#
memory 32 gb

molecule  {
0 1
  O        1.4293010    -1.0173190    -0.5083850
  O        1.2616920     1.0439120     0.4876630
  N       -1.5094500     1.1665790    -0.0160500
  C       -0.7917599    -0.1523831    -0.1253973
  C       -1.3403730    -1.2419500     0.4105850
  C        0.7294260     0.0826320    -0.0646510
  H       -0.8593930    -0.2237720    -1.4273650
  H       -2.4052960    -1.3157140     0.1877600
  H       -0.8411410    -2.1737420     0.1227770
  H       -1.2225590    -1.1039570     1.4923070
  H       -1.0898030     1.9609300    -0.5079820
  H       -1.3695700     1.3697580     0.9773170
  H        2.3653570    -0.8358360    -0.2741470
units angstrom
no_reorient  #important for SAPT in psi4, default
symmetry c1  #important for SAPT in psi4, default
}

set PROPERTIES_ORIGIN ["COM"]
properties('MP2/aug-cc-pvtz', properties = ['dipole'])
--------------------------------------------------------------------------

    Molecular point group: c1
  Charge       = 0
  Multiplicity = 1
  Basis Set: AUG-CC-PVTZ
    Blend: AUG-CC-PVTZ
  Basis Set: (AUG-CC-PVTZ AUX)
    Blend: AUG-CC-PVTZ-JKFIT

    Orbital Energies [Eh]
    ---------------------

    Doubly Occupied:

       1A    -20.623308     2A    -20.562358     3A    -15.555998
       4A    -11.400577     5A    -11.300998     6A    -11.227069
       7A     -1.458286     8A     -1.360426     9A     -1.199243
      10A     -1.064674    11A     -0.907395    12A     -0.777886
      13A     -0.711834    14A     -0.697056    15A     -0.682520
      16A     -0.638939    17A     -0.607394    18A     -0.598332
      19A     -0.586246    20A     -0.545701    21A     -0.491580
      22A     -0.470144    23A     -0.441888    24A     -0.405850

  @DF-RHF Final Energy:  -321.92547654655135

   => Energetics <=

    Nuclear Repulsion Energy =            248.8523785470556788
    One-Electron Energy =                -932.9243060217023640
    Two-Electron Energy =                 362.1464509280953621
    Total Energy =                       -321.9254765465513515
  Basis Set: (AUG-CC-PVTZ AUX)
    Blend: AUG-CC-PVTZ-RI
    Molecular point group: c1

    Geometry (in Angstrom), charge = 0, multiplicity = 1:

       Center              X                  Y                   Z               Mass
    ------------   -----------------  -----------------  -----------------  -----------------
         O            1.433703754566    -1.002496898854    -0.538317020407    15.994914619570
         O            1.266094754566     1.058734101146     0.457730979593    15.994914619570
         N           -1.505047245434     1.181401101146    -0.045982020407    14.003074004430
         C           -0.787357145434    -0.137560998854    -0.155329320407    12.000000000000
         C           -1.335970245434    -1.227127898854     0.380652979593    12.000000000000
         C            0.733828754566     0.097454101146    -0.094583020407    12.000000000000
         H           -0.854990245434    -0.208949898854    -1.457297020407     1.007825032230
         H           -2.400893245434    -1.300891898854     0.157827979593     1.007825032230
         H           -0.836738245434    -2.158919898854     0.092844979593     1.007825032230
         H           -1.218156245434    -1.089134898854     1.462374979593     1.007825032230
         H           -1.085400245434     1.975752101146    -0.537914020407     1.007825032230
         H           -1.365167245434     1.384580101146     0.947384979593     1.007825032230
         H            2.369759754566    -0.821013898854    -0.304079020407     1.007825032230

  Basis Set: AUG-CC-PVTZ
    Blend: AUG-CC-PVTZ
  Basis Set: (AUG-CC-PVTZ AUX)
    Blend: AUG-CC-PVTZ-JKFIT
	 Reference Energy          =    -321.9254765465513515 [Eh]
	 Singles Energy            =      -0.0000000000000000 [Eh]
	 Same-Spin Energy          =      -0.3202788979131030 [Eh]
	 Opposite-Spin Energy      =      -1.0067200137224626 [Eh]
	 Correlation Energy        =      -1.3269989116355656 [Eh]
	 Total Energy              =    -323.2524754581868933 [Eh]

	 ================> DF-SCS-MP2 Energies <==================
	-----------------------------------------------------------
	 SCS Same-Spin Scale       =       0.3333333333333333 [-]
	 SCS Opposite-Spin Scale   =       1.2000000000000000 [-]
	 SCS Same-Spin Energy      =      -0.1067596326377010 [Eh]
	 SCS Opposite-Spin Energy  =      -1.2080640164669549 [Eh]
	 SCS Correlation Energy    =      -1.3148236491046559 [Eh]
	 SCS Total Energy          =    -323.2403001956560047 [Eh]
	-----------------------------------------------------------

  Dipole Moment: [D]
     X:     0.5843      Y:    -1.3517      Z:    -0.0223     Total:     1.4728

*** Psi4 exiting successfully. Buy a developer a beer!
