                               Psi4 1.3.2 release

  ==> Input File <==

--------------------------------------------------------------------------
#psi4
#
memory 32 gb

molecule  {
0 1
  O        1.4293010    -1.0173190    -0.5083850
  O        1.2616920     1.0439120     0.4876630
  N       -1.5094500     1.1665790    -0.0160500
  C       -0.7852255    -0.1303853    -0.1698202
  C       -1.3403730    -1.2419500     0.4105850
  C        0.7294260     0.0826320    -0.0646510
  H       -0.8593930    -0.2237720    -1.4273650
  H       -2.4052960    -1.3157140     0.1877600
  H       -0.8411410    -2.1737420     0.1227770
  H       -1.2225590    -1.1039570     1.4923070
  H       -1.0898030     1.9609300    -0.5079820
  H       -1.3695700     1.3697580     0.9773170
  H        2.3653570    -0.8358360    -0.2741470
units angstrom
no_reorient  #important for SAPT in psi4, default
symmetry c1  #important for SAPT in psi4, default
}

set PROPERTIES_ORIGIN ["COM"]
properties('MP2/aug-cc-pvtz', properties = ['dipole'])
--------------------------------------------------------------------------

    Molecular point group: c1
  Charge       = 0
  Multiplicity = 1
  Basis Set: AUG-CC-PVTZ
    Blend: AUG-CC-PVTZ
  Basis Set: (AUG-CC-PVTZ AUX)
    Blend: AUG-CC-PVTZ-JKFIT

    Orbital Energies [Eh]
    ---------------------

    Doubly Occupied:

       1A    -20.623350     2A    -20.562163     3A    -15.555157
       4A    -11.398830     5A    -11.297073     6A    -11.227917
       7A     -1.458258     8A     -1.360286     9A     -1.198757
      10A     -1.054522    11A     -0.907871    12A     -0.780043
      13A     -0.711556    14A     -0.697153    15A     -0.681057
      16A     -0.635298    17A     -0.606937    18A     -0.596250
      19A     -0.577711    20A     -0.545840    21A     -0.491361
      22A     -0.475028    23A     -0.449700    24A     -0.410510

  @DF-RHF Final Energy:  -321.95020663888937

   => Energetics <=

    Nuclear Repulsion Energy =            248.6765068357551911
    One-Electron Energy =                -932.6481727614838064
    Two-Electron Energy =                 362.0214592868392742
    Total Energy =                       -321.9502066388893695
  Basis Set: (AUG-CC-PVTZ AUX)
    Blend: AUG-CC-PVTZ-RI
    Molecular point group: c1

    Geometry (in Angstrom), charge = 0, multiplicity = 1:

       Center              X                  Y                   Z               Mass
    ------------   -----------------  -----------------  -----------------  -----------------
         O            1.432823183603    -1.005461306288    -0.532330622905    15.994914619570
         O            1.265214183603     1.055769693712     0.463717377095    15.994914619570
         N           -1.505927816397     1.178436693712    -0.039995622905    14.003074004430
         C           -0.781703316397    -0.118527606288    -0.193765822905    12.000000000000
         C           -1.336850816397    -1.230092306288     0.386639377095    12.000000000000
         C            0.732948183603     0.094489693712    -0.088596622905    12.000000000000
         H           -0.855870816397    -0.211914306288    -1.451310622905     1.007825032230
         H           -2.401773816397    -1.303856306288     0.163814377095     1.007825032230
         H           -0.837618816397    -2.161884306288     0.098831377095     1.007825032230
         H           -1.219036816397    -1.092099306288     1.468361377095     1.007825032230
         H           -1.086280816397     1.972787693712    -0.531927622905     1.007825032230
         H           -1.366047816397     1.381615693712     0.953371377095     1.007825032230
         H            2.368879183603    -0.823978306288    -0.298092622905     1.007825032230

  Basis Set: AUG-CC-PVTZ
    Blend: AUG-CC-PVTZ
  Basis Set: (AUG-CC-PVTZ AUX)
    Blend: AUG-CC-PVTZ-JKFIT
	 Reference Energy          =    -321.9502066388893695 [Eh]
	 Singles Energy            =      -0.0000000000000000 [Eh]
	 Same-Spin Energy          =      -0.3193181058154178 [Eh]
	 Opposite-Spin Energy      =      -1.0049621882015130 [Eh]
	 Correlation Energy        =      -1.3242802940169307 [Eh]
	 Total Energy              =    -323.2744869329063135 [Eh]

	 ================> DF-SCS-MP2 Energies <==================
	-----------------------------------------------------------
	 SCS Same-Spin Scale       =       0.3333333333333333 [-]
	 SCS Opposite-Spin Scale   =       1.2000000000000000 [-]
	 SCS Same-Spin Energy      =      -0.1064393686051393 [Eh]
	 SCS Opposite-Spin Energy  =      -1.2059546258418155 [Eh]
	 SCS Correlation Energy    =      -1.3123939944469547 [Eh]
	 SCS Total Energy          =    -323.2626006333363193 [Eh]
	-----------------------------------------------------------

  Dipole Moment: [D]
     X:     0.5958      Y:    -1.2974      Z:    -0.1011     Total:     1.4312

*** Psi4 exiting successfully. Buy a developer a beer!
