                               Psi4 1.3.2 release

  ==> Input File <==

--------------------------------------------------------------------------
#psi4
#
memory 32 gb

molecule  {
0 1
  O        1.4293010    -1.0173190    -0.5083850
  O        1.2616920     1.0439120     0.4876630
  N       -1.5094500     1.1665790    -0.0160500
  C       -0.7982943    -0.1743810    -0.0809744
  C       -1.3403730    -1.2419500     0.4105850
  C        0.7294260     0.0826320    -0.0646510
  H       -0.8593930    -0.2237720    -1.4273650
  H       -2.4052960    -1.3157140     0.1877600
  H       -0.8411410    -2.1737420     0.1227770
  H       -1.2225590    -1.1039570     1.4923070
  H       -1.0898030     1.9609300    -0.5079820
  H       -1.3695700     1.3697580     0.9773170
  H        2.3653570    -0.8358360    -0.2741470
units angstrom
no_reorient  #important for SAPT in psi4, default
symmetry c1  #important for SAPT in psi4, default
}

set PROPERTIES_ORIGIN ["COM"]
properties('MP2/aug-cc-pvtz', properties = ['dipole'])
--------------------------------------------------------------------------

    Molecular point group: c1
  Charge       = 0
  Multiplicity = 1
  Basis Set: AUG-CC-PVTZ
    Blend: AUG-CC-PVTZ
  Basis Set: (AUG-CC-PVTZ AUX)
    Blend: AUG-CC-PVTZ-JKFIT

    Orbital Energies [Eh]
    ---------------------

    Doubly Occupied:

       1A    -20.623203     2A    -20.562496     3A    -15.556936
       4A    -11.402598     5A    -11.305309     6A    -11.226552
       7A     -1.458251     8A     -1.360522     9A     -1.200419
      10A     -1.075258    11A     -0.906566    12A     -0.776006
      13A     -0.712171    14A     -0.697734    15A     -0.683812
      16A     -0.643440    17A     -0.608911    18A     -0.601109
      19A     -0.592646    20A     -0.544878    21A     -0.491933
      22A     -0.466838    23A     -0.434022    24A     -0.398670

  @DF-RHF Final Energy:  -321.89494000740279

   => Energetics <=

    Nuclear Repulsion Energy =            249.0153638904339459
    One-Electron Energy =                -933.1600467330137008
    Two-Electron Energy =                 362.2497428351769599
    Total Energy =                       -321.8949400074027949
  Basis Set: (AUG-CC-PVTZ AUX)
    Blend: AUG-CC-PVTZ-RI
    Molecular point group: c1

    Geometry (in Angstrom), charge = 0, multiplicity = 1:

       Center              X                  Y                   Z               Mass
    ------------   -----------------  -----------------  -----------------  -----------------
         O            1.434584325530    -0.999532477945    -0.544303417910    15.994914619570
         O            1.266975325530     1.061698522055     0.451744582090    15.994914619570
         N           -1.504166674470     1.184365522055    -0.051968417910    14.003074004430
         C           -0.793010974470    -0.156594477945    -0.116892817910    12.000000000000
         C           -1.335089674470    -1.224163477945     0.374666582090    12.000000000000
         C            0.734709325530     0.100418522055    -0.100569417910    12.000000000000
         H           -0.854109674470    -0.205985477945    -1.463283417910     1.007825032230
         H           -2.400012674470    -1.297927477945     0.151841582090     1.007825032230
         H           -0.835857674470    -2.155955477945     0.086858582090     1.007825032230
         H           -1.217275674470    -1.086170477945     1.456388582090     1.007825032230
         H           -1.084519674470     1.978716522055    -0.543900417910     1.007825032230
         H           -1.364286674470     1.387544522055     0.941398582090     1.007825032230
         H            2.370640325530    -0.818049477945    -0.310065417910     1.007825032230

  Basis Set: AUG-CC-PVTZ
    Blend: AUG-CC-PVTZ
  Basis Set: (AUG-CC-PVTZ AUX)
    Blend: AUG-CC-PVTZ-JKFIT
	 Reference Energy          =    -321.8949400074027949 [Eh]
	 Singles Energy            =      -0.0000000000000000 [Eh]
	 Same-Spin Energy          =      -0.3214171812784286 [Eh]
	 Opposite-Spin Energy      =      -1.0087863189680342 [Eh]
	 Correlation Energy        =      -1.3302035002464627 [Eh]
	 Total Energy              =    -323.2251435076492498 [Eh]

	 ================> DF-SCS-MP2 Energies <==================
	-----------------------------------------------------------
	 SCS Same-Spin Scale       =       0.3333333333333333 [-]
	 SCS Opposite-Spin Scale   =       1.2000000000000000 [-]
	 SCS Same-Spin Energy      =      -0.1071390604261429 [Eh]
	 SCS Opposite-Spin Energy  =      -1.2105435827616409 [Eh]
	 SCS Correlation Energy    =      -1.3176826431877837 [Eh]
	 SCS Total Energy          =    -323.2126226505905606 [Eh]
	-----------------------------------------------------------

  Dipole Moment: [D]
     X:     0.5665      Y:    -1.4158      Z:     0.0700     Total:     1.5266

*** Psi4 exiting successfully. Buy a developer a beer!
