                               Psi4 1.3.2 release

  ==> Input File <==

--------------------------------------------------------------------------
#psi4
#
memory 32 gb

molecule  {
0 1
  O        1.4293010    -1.0173190    -0.5083850
  O        1.2616920     1.0439120     0.4876630
  N       -1.5094500     1.1665790    -0.0160500
  C       -0.7721568    -0.0863897    -0.2586661
  C       -1.3403730    -1.2419500     0.4105850
  C        0.7294260     0.0826320    -0.0646510
  H       -0.8593930    -0.2237720    -1.4273650
  H       -2.4052960    -1.3157140     0.1877600
  H       -0.8411410    -2.1737420     0.1227770
  H       -1.2225590    -1.1039570     1.4923070
  H       -1.0898030     1.9609300    -0.5079820
  H       -1.3695700     1.3697580     0.9773170
  H        2.3653570    -0.8358360    -0.2741470
units angstrom
no_reorient  #important for SAPT in psi4, default
symmetry c1  #important for SAPT in psi4, default
}

set PROPERTIES_ORIGIN ["COM"]
properties('MP2/aug-cc-pvtz', properties = ['dipole'])
--------------------------------------------------------------------------

    Molecular point group: c1
  Charge       = 0
  Multiplicity = 1
  Basis Set: AUG-CC-PVTZ
    Blend: AUG-CC-PVTZ
  Basis Set: (AUG-CC-PVTZ AUX)
    Blend: AUG-CC-PVTZ-JKFIT

    Orbital Energies [Eh]
    ---------------------

    Doubly Occupied:

       1A    -20.623272     2A    -20.561647     3A    -15.553876
       4A    -11.396246     5A    -11.290560     6A    -11.230255
       7A     -1.458042     8A     -1.359904     9A     -1.198820
      10A     -1.036512    11A     -0.907907    12A     -0.785363
      13A     -0.711154    14A     -0.699184    15A     -0.677260
      16A     -0.629917    17A     -0.607469    18A     -0.594489
      19A     -0.559420    20A     -0.542301    21A     -0.496285
      22A     -0.486856    23A     -0.458960    24A     -0.415144

  @DF-RHF Final Energy:  -321.98296227712859

   => Energetics <=

    Nuclear Repulsion Energy =            248.2796488065706058
    One-Electron Energy =                -931.9635397008671589
    Two-Electron Energy =                 361.7009286171680174
    Total Energy =                       -321.9829622771285926
  Basis Set: (AUG-CC-PVTZ AUX)
    Blend: AUG-CC-PVTZ-RI
    Molecular point group: c1

    Geometry (in Angstrom), charge = 0, multiplicity = 1:

       Center              X                  Y                   Z               Mass
    ------------   -----------------  -----------------  -----------------  -----------------
         O            1.431062055153    -1.011390121155    -0.520357814423    15.994914619570
         O            1.263453055153     1.049840878845     0.475690185577    15.994914619570
         N           -1.507688944847     1.172507878845    -0.028022814423    14.003074004430
         C           -0.770395744847    -0.080460821155    -0.270638914423    12.000000000000
         C           -1.338611944847    -1.236021121155     0.398612185577    12.000000000000
         C            0.731187055153     0.088560878845    -0.076623814423    12.000000000000
         H           -0.857631944847    -0.217843121155    -1.439337814423     1.007825032230
         H           -2.403534944847    -1.309785121155     0.175787185577     1.007825032230
         H           -0.839379944847    -2.167813121155     0.110804185577     1.007825032230
         H           -1.220797944847    -1.098028121155     1.480334185577     1.007825032230
         H           -1.088041944847     1.966858878845    -0.519954814423     1.007825032230
         H           -1.367808944847     1.375686878845     0.965344185577     1.007825032230
         H            2.367118055153    -0.829907121155    -0.286119814423     1.007825032230

  Basis Set: AUG-CC-PVTZ
    Blend: AUG-CC-PVTZ
  Basis Set: (AUG-CC-PVTZ AUX)
    Blend: AUG-CC-PVTZ-JKFIT
	 Reference Energy          =    -321.9829622771285926 [Eh]
	 Singles Energy            =      -0.0000000000000000 [Eh]
	 Same-Spin Energy          =      -0.3179140000156907 [Eh]
	 Opposite-Spin Energy      =      -1.0023986128503608 [Eh]
	 Correlation Energy        =      -1.3203126128660516 [Eh]
	 Total Energy              =    -323.3032748899946682 [Eh]

	 ================> DF-SCS-MP2 Energies <==================
	-----------------------------------------------------------
	 SCS Same-Spin Scale       =       0.3333333333333333 [-]
	 SCS Opposite-Spin Scale   =       1.2000000000000000 [-]
	 SCS Same-Spin Energy      =      -0.1059713333385636 [Eh]
	 SCS Opposite-Spin Energy  =      -1.2028783354204329 [Eh]
	 SCS Correlation Energy    =      -1.3088496687589966 [Eh]
	 SCS Total Energy          =    -323.2918119458876163 [Eh]
	-----------------------------------------------------------

  Dipole Moment: [D]
     X:     0.6039      Y:    -1.2110      Z:    -0.2257     Total:     1.3719

*** Psi4 exiting successfully. Buy a developer a beer!
