                               Psi4 1.3.2 release

  ==> Input File <==

--------------------------------------------------------------------------
#psi4
#
memory 32 gb

molecule  {
0 1
  O        1.4293010    -1.0173190    -0.5083850
  O        1.2616920     1.0439120     0.4876630
  N       -1.5094500     1.1665790    -0.0160500
  C       -0.7656224    -0.0643918    -0.3030891
  C       -1.3403730    -1.2419500     0.4105850
  C        0.7294260     0.0826320    -0.0646510
  H       -0.8593930    -0.2237720    -1.4273650
  H       -2.4052960    -1.3157140     0.1877600
  H       -0.8411410    -2.1737420     0.1227770
  H       -1.2225590    -1.1039570     1.4923070
  H       -1.0898030     1.9609300    -0.5079820
  H       -1.3695700     1.3697580     0.9773170
  H        2.3653570    -0.8358360    -0.2741470
units angstrom
no_reorient  #important for SAPT in psi4, default
symmetry c1  #important for SAPT in psi4, default
}

set PROPERTIES_ORIGIN ["COM"]
properties('MP2/aug-cc-pvtz', properties = ['dipole'])
--------------------------------------------------------------------------

    Molecular point group: c1
  Charge       = 0
  Multiplicity = 1
  Basis Set: AUG-CC-PVTZ
    Blend: AUG-CC-PVTZ
  Basis Set: (AUG-CC-PVTZ AUX)
    Blend: AUG-CC-PVTZ-JKFIT

    Orbital Energies [Eh]
    ---------------------

    Doubly Occupied:

       1A    -20.623158     2A    -20.561342     3A    -15.553489
       4A    -11.395443     5A    -11.288054     6A    -11.231615
       7A     -1.457864     8A     -1.359677     9A     -1.199032
      10A     -1.028891    11A     -0.907573    12A     -0.788639
      13A     -0.711068    14A     -0.700703    15A     -0.674964
      16A     -0.627933    17A     -0.608074    18A     -0.594889
      19A     -0.553724    20A     -0.536348    21A     -0.505382
      22A     -0.487365    23A     -0.460798    24A     -0.416052

  @DF-RHF Final Energy:  -321.99126214064074

   => Energetics <=

    Nuclear Repulsion Energy =            248.0556380043009881
    One-Electron Energy =                -931.5496463112042420
    Two-Electron Energy =                 361.5027461662624546
    Total Energy =                       -321.9912621406407425
  Basis Set: (AUG-CC-PVTZ AUX)
    Blend: AUG-CC-PVTZ-RI
    Molecular point group: c1

    Geometry (in Angstrom), charge = 0, multiplicity = 1:

       Center              X                  Y                   Z               Mass
    ------------   -----------------  -----------------  -----------------  -----------------
         O            1.430181484190    -1.014354542064    -0.514371403445    15.994914619570
         O            1.262572484190     1.046876457936     0.481676596555    15.994914619570
         N           -1.508569515810     1.169543457936    -0.022036403445    14.003074004430
         C           -0.764741915810    -0.061427342064    -0.309075503445    12.000000000000
         C           -1.339492515810    -1.238985542064     0.404598596555    12.000000000000
         C            0.730306484190     0.085596457936    -0.070637403445    12.000000000000
         H           -0.858512515810    -0.220807542064    -1.433351403445     1.007825032230
         H           -2.404415515810    -1.312749542064     0.181773596555     1.007825032230
         H           -0.840260515810    -2.170777542064     0.116790596555     1.007825032230
         H           -1.221678515810    -1.100992542064     1.486320596555     1.007825032230
         H           -1.088922515810     1.963894457936    -0.513968403445     1.007825032230
         H           -1.368689515810     1.372722457936     0.971330596555     1.007825032230
         H            2.366237484190    -0.832871542064    -0.280133403445     1.007825032230

  Basis Set: AUG-CC-PVTZ
    Blend: AUG-CC-PVTZ
  Basis Set: (AUG-CC-PVTZ AUX)
    Blend: AUG-CC-PVTZ-JKFIT
	 Reference Energy          =    -321.9912621406407425 [Eh]
	 Singles Energy            =      -0.0000000000000000 [Eh]
	 Same-Spin Energy          =      -0.3174589112860933 [Eh]
	 Opposite-Spin Energy      =      -1.0016065028867376 [Eh]
	 Correlation Energy        =      -1.3190654141728309 [Eh]
	 Total Energy              =    -323.3103275548135684 [Eh]

	 ================> DF-SCS-MP2 Energies <==================
	-----------------------------------------------------------
	 SCS Same-Spin Scale       =       0.3333333333333333 [-]
	 SCS Opposite-Spin Scale   =       1.2000000000000000 [-]
	 SCS Same-Spin Energy      =      -0.1058196370953644 [Eh]
	 SCS Opposite-Spin Energy  =      -1.2019278034640850 [Eh]
	 SCS Correlation Energy    =      -1.3077474405594494 [Eh]
	 SCS Total Energy          =    -323.2990095812002096 [Eh]
	-----------------------------------------------------------

  Dipole Moment: [D]
     X:     0.6018      Y:    -1.1761      Z:    -0.2745     Total:     1.3493

*** Psi4 exiting successfully. Buy a developer a beer!
