                               Psi4 1.4a2.dev612

  ==> Input File <==

--------------------------------------------------------------------------
#psi4
#
memory 32 gb

molecule  {
1 1
  N       -3.3283680     0.1942120    -0.0000200
  N       -0.5495980    -0.2948890     0.0000300
  C       -2.6173460    -0.2537290    -1.2573450
  C       -2.6173490    -0.2534950     1.2573910
  C       -1.1824450     0.2377860    -1.2003860
  C       -1.1824500     0.2380150     1.2003390
  C        0.8881070    -0.1264310     0.0000120
  C        1.4779170     1.1432740    -0.0000950
  C        1.6780489    -1.2778639    -0.1498870
  C        2.8695240     1.2540050    -0.0001090
  C        3.0687920    -1.1592000     0.0000980
  C        3.6642520     0.1047860    -0.0000090
  H       -3.3852960     1.2227380    -0.0001140
  H       -4.2988450    -0.1479970     0.0000100
  H       -3.1713790     0.1478040    -2.1095990
  H       -2.6546500    -1.3444640    -1.2649060
  H       -2.6546490    -1.3442280     1.2651520
  H       -3.1713850     0.1481950     2.1095680
  H       -0.6521860    -0.1397250    -2.0793070
  H       -1.1612660     1.3434560    -1.2528060
  H       -1.1612790     1.3436960     1.2525480
  H       -0.6521900    -0.1393200     2.0793360
  H        0.8654370     2.0434980    -0.0001730
  H        1.1935250    -2.2508840     0.0001950
  H        3.3333780     2.2368900    -0.0001920
  H        3.6871730    -2.0528130     0.0001780
  H        4.7470650     0.1949390    -0.0000240
units angstrom
no_reorient  #important for SAPT in psi4, default
symmetry c1  #important for SAPT in psi4, default
}

set PROPERTIES_ORIGIN ["COM"]
properties('MP2/aug-cc-pvtz', properties = ['dipole'])
--------------------------------------------------------------------------

    Molecular point group: c1
  Charge       = 1
  Multiplicity = 1
  Basis Set: AUG-CC-PVTZ
    Blend: AUG-CC-PVTZ
  Basis Set: (AUG-CC-PVTZ AUX)
    Blend: AUG-CC-PVTZ-JKFIT

    Orbital Energies [Eh]
    ---------------------

    Doubly Occupied:

       1A    -15.866736     2A    -15.705069     3A    -11.456984
       4A    -11.456718     5A    -11.417644     6A    -11.417343
       7A    -11.381084     8A    -11.344121     9A    -11.340635
      10A    -11.340067    11A    -11.338516    12A    -11.333393
      13A     -1.497640    14A     -1.390192    15A     -1.248999
      16A     -1.221695    17A     -1.154641    18A     -1.118563
      19A     -1.086304    20A     -1.053211    21A     -0.997114
      22A     -0.938227    23A     -0.927056    24A     -0.922873
      25A     -0.869366    26A     -0.823520    27A     -0.817444
      28A     -0.792713    29A     -0.788114    30A     -0.768073
      31A     -0.737572    32A     -0.735245    33A     -0.717322
      34A     -0.704849    35A     -0.688175    36A     -0.686876
      37A     -0.661014    38A     -0.659568    39A     -0.607758
      40A     -0.601459    41A     -0.598769    42A     -0.520610
      43A     -0.439953    44A     -0.437678

  @DF-RHF Final Energy:  -496.25384895826824

   => Energetics <=

    Nuclear Repulsion Energy =            706.3936536708922631
    One-Electron Energy =               -2060.0732033710296491
    Two-Electron Energy =                 857.4257007418691501
    Total Energy =                       -496.2538489582682359
  Basis Set: (AUG-CC-PVTZ AUX)
    Blend: AUG-CC-PVTZ-RI
    Molecular point group: c1

    Geometry (in Angstrom), charge = 1, multiplicity = 1:

       Center              X                  Y                   Z               Mass
    ------------   -----------------  -----------------  -----------------  -----------------
         N           -3.383866587492     0.201889395304     0.011013890020    14.003074004430
         N           -0.605096587492    -0.287211604696     0.011063890020    14.003074004430
         C           -2.672844587492    -0.246051604696    -1.246311109980    12.000000000000
         C           -2.672847587492    -0.245817604696     1.268424890020    12.000000000000
         C           -1.237943587492     0.245463395304    -1.189352109980    12.000000000000
         C           -1.237948587492     0.245692395304     1.211372890020    12.000000000000
         C            0.832608412508    -0.118753604696     0.011045890020    12.000000000000
         C            1.422418412508     1.150951395304     0.010938890020    12.000000000000
         C            1.622550312508    -1.270186504696    -0.138853109980    12.000000000000
         C            2.814025412508     1.261682395304     0.010924890020    12.000000000000
         C            3.013293412508    -1.151522604696     0.011131890020    12.000000000000
         C            3.608753412508     0.112463395304     0.011024890020    12.000000000000
         H           -3.440794587492     1.230415395304     0.010919890020     1.007825032230
         H           -4.354343587492    -0.140319604696     0.011043890020     1.007825032230
         H           -3.226877587492     0.155481395304    -2.098565109980     1.007825032230
         H           -2.710148587492    -1.336786604696    -1.253872109980     1.007825032230
         H           -2.710147587492    -1.336550604696     1.276185890020     1.007825032230
         H           -3.226883587492     0.155872395304     2.120601890020     1.007825032230
         H           -0.707684587492    -0.132047604696    -2.068273109980     1.007825032230
         H           -1.216764587492     1.351133395304    -1.241772109980     1.007825032230
         H           -1.216777587492     1.351373395304     1.263581890020     1.007825032230
         H           -0.707688587492    -0.131642604696     2.090369890020     1.007825032230
         H            0.809938412508     2.051175395304     0.010860890020     1.007825032230
         H            1.138026412508    -2.243206604696     0.011228890020     1.007825032230
         H            3.277879412508     2.244567395304     0.010841890020     1.007825032230
         H            3.631674412508    -2.045135604696     0.011211890020     1.007825032230
         H            4.691566412508     0.202616395304     0.011009890020     1.007825032230

  Basis Set: AUG-CC-PVTZ
    Blend: AUG-CC-PVTZ
  Basis Set: (AUG-CC-PVTZ AUX)
    Blend: AUG-CC-PVTZ-JKFIT
	 Reference Energy          =    -496.2538489582682359 [Eh]
	 Singles Energy            =      -0.0000000000000000 [Eh]
	 Same-Spin Energy          =      -0.5398169953109173 [Eh]
	 Opposite-Spin Energy      =      -1.7594052902818702 [Eh]
	 Correlation Energy        =      -2.2992222855927875 [Eh]
	 Total Energy              =    -498.5530712438610408 [Eh]

	 ================> DF-SCS-MP2 Energies <==================
	-----------------------------------------------------------
	 SCS Same-Spin Scale       =       0.3333333333333333 [-]
	 SCS Opposite-Spin Scale   =       1.2000000000000000 [-]
	 SCS Same-Spin Energy      =      -0.1799389984369724 [Eh]
	 SCS Opposite-Spin Energy  =      -2.1112863483382442 [Eh]
	 SCS Correlation Energy    =      -2.2912253467752168 [Eh]
	 SCS Total Energy          =    -498.5450743050434426 [Eh]
	-----------------------------------------------------------

  Dipole Moment: [D]
     X:   -11.4650      Y:     1.1299      Z:     0.1248     Total:    11.5212

*** Psi4 exiting successfully. Buy a developer a beer!
