                               Psi4 1.4a2.dev612

  ==> Input File <==

--------------------------------------------------------------------------
#psi4
#
memory 32 gb

molecule  {
1 1
  N       -3.3283680     0.1942120    -0.0000200
  N       -0.5495980    -0.2948890     0.0000300
  C       -2.6173460    -0.2537290    -1.2573450
  C       -2.6173490    -0.2534950     1.2573910
  C       -1.1824450     0.2377860    -1.2003860
  C       -1.1824500     0.2380150     1.2003390
  C        0.8881070    -0.1264310     0.0000120
  C        1.4779170     1.1432740    -0.0000950
  C        1.6780489    -1.2778596    -0.0998870
  C        2.8695240     1.2540050    -0.0001090
  C        3.0687920    -1.1592000     0.0000980
  C        3.6642520     0.1047860    -0.0000090
  H       -3.3852960     1.2227380    -0.0001140
  H       -4.2988450    -0.1479970     0.0000100
  H       -3.1713790     0.1478040    -2.1095990
  H       -2.6546500    -1.3444640    -1.2649060
  H       -2.6546490    -1.3442280     1.2651520
  H       -3.1713850     0.1481950     2.1095680
  H       -0.6521860    -0.1397250    -2.0793070
  H       -1.1612660     1.3434560    -1.2528060
  H       -1.1612790     1.3436960     1.2525480
  H       -0.6521900    -0.1393200     2.0793360
  H        0.8654370     2.0434980    -0.0001730
  H        1.1935250    -2.2508840     0.0001950
  H        3.3333780     2.2368900    -0.0001920
  H        3.6871730    -2.0528130     0.0001780
  H        4.7470650     0.1949390    -0.0000240
units angstrom
no_reorient  #important for SAPT in psi4, default
symmetry c1  #important for SAPT in psi4, default
}

set PROPERTIES_ORIGIN ["COM"]
properties('MP2/aug-cc-pvtz', properties = ['dipole'])
--------------------------------------------------------------------------

    Molecular point group: c1
  Charge       = 1
  Multiplicity = 1
  Basis Set: AUG-CC-PVTZ
    Blend: AUG-CC-PVTZ
  Basis Set: (AUG-CC-PVTZ AUX)
    Blend: AUG-CC-PVTZ-JKFIT

    Orbital Energies [Eh]
    ---------------------

    Doubly Occupied:

       1A    -15.866721     2A    -15.705006     3A    -11.456916
       4A    -11.456742     5A    -11.417531     6A    -11.417335
       7A    -11.380011     8A    -11.344204     9A    -11.339611
      10A    -11.339447    11A    -11.337414    12A    -11.333482
      13A     -1.497620    14A     -1.390130    15A     -1.249374
      16A     -1.221667    17A     -1.154648    18A     -1.119052
      19A     -1.086462    20A     -1.053175    21A     -0.997134
      22A     -0.938519    23A     -0.927115    24A     -0.923156
      25A     -0.869527    26A     -0.823502    27A     -0.817801
      28A     -0.792787    29A     -0.788058    30A     -0.768571
      31A     -0.737964    32A     -0.735365    33A     -0.717328
      34A     -0.705341    35A     -0.688171    36A     -0.687876
      37A     -0.660774    38A     -0.659800    39A     -0.607554
      40A     -0.601776    41A     -0.600272    42A     -0.520566
      43A     -0.440049    44A     -0.438010

  @DF-RHF Final Energy:  -496.25776439470837

   => Energetics <=

    Nuclear Repulsion Energy =            706.5376410078762319
    One-Electron Energy =               -2060.3636848851069772
    Two-Electron Energy =                 857.5682794825224846
    Total Energy =                       -496.2577643947083743
  Basis Set: (AUG-CC-PVTZ AUX)
    Blend: AUG-CC-PVTZ-RI
    Molecular point group: c1

    Geometry (in Angstrom), charge = 1, multiplicity = 1:

       Center              X                  Y                   Z               Mass
    ------------   -----------------  -----------------  -----------------  -----------------
         N           -3.383866587492     0.201889078979     0.007335695807    14.003074004430
         N           -0.605096587492    -0.287211921021     0.007385695807    14.003074004430
         C           -2.672844587492    -0.246051921021    -1.249989304193    12.000000000000
         C           -2.672847587492    -0.245817921021     1.264746695807    12.000000000000
         C           -1.237943587492     0.245463078979    -1.193030304193    12.000000000000
         C           -1.237948587492     0.245692078979     1.207694695807    12.000000000000
         C            0.832608412508    -0.118753921021     0.007367695807    12.000000000000
         C            1.422418412508     1.150951078979     0.007260695807    12.000000000000
         C            1.622550312508    -1.270182521021    -0.092531304193    12.000000000000
         C            2.814025412508     1.261682078979     0.007246695807    12.000000000000
         C            3.013293412508    -1.151522921021     0.007453695807    12.000000000000
         C            3.608753412508     0.112463078979     0.007346695807    12.000000000000
         H           -3.440794587492     1.230415078979     0.007241695807     1.007825032230
         H           -4.354343587492    -0.140319921021     0.007365695807     1.007825032230
         H           -3.226877587492     0.155481078979    -2.102243304193     1.007825032230
         H           -2.710148587492    -1.336786921021    -1.257550304193     1.007825032230
         H           -2.710147587492    -1.336550921021     1.272507695807     1.007825032230
         H           -3.226883587492     0.155872078979     2.116923695807     1.007825032230
         H           -0.707684587492    -0.132047921021    -2.071951304193     1.007825032230
         H           -1.216764587492     1.351133078979    -1.245450304193     1.007825032230
         H           -1.216777587492     1.351373078979     1.259903695807     1.007825032230
         H           -0.707688587492    -0.131642921021     2.086691695807     1.007825032230
         H            0.809938412508     2.051175078979     0.007182695807     1.007825032230
         H            1.138026412508    -2.243206921021     0.007550695807     1.007825032230
         H            3.277879412508     2.244567078979     0.007163695807     1.007825032230
         H            3.631674412508    -2.045135921021     0.007533695807     1.007825032230
         H            4.691566412508     0.202616078979     0.007331695807     1.007825032230

  Basis Set: AUG-CC-PVTZ
    Blend: AUG-CC-PVTZ
  Basis Set: (AUG-CC-PVTZ AUX)
    Blend: AUG-CC-PVTZ-JKFIT
	 Reference Energy          =    -496.2577643947083743 [Eh]
	 Singles Energy            =      -0.0000000000000000 [Eh]
	 Same-Spin Energy          =      -0.5396131456988341 [Eh]
	 Opposite-Spin Energy      =      -1.7588366785558949 [Eh]
	 Correlation Energy        =      -2.2984498242547291 [Eh]
	 Total Energy              =    -498.5562142189630777 [Eh]

	 ================> DF-SCS-MP2 Energies <==================
	-----------------------------------------------------------
	 SCS Same-Spin Scale       =       0.3333333333333333 [-]
	 SCS Opposite-Spin Scale   =       1.2000000000000000 [-]
	 SCS Same-Spin Energy      =      -0.1798710485662780 [Eh]
	 SCS Opposite-Spin Energy  =      -2.1106040142670737 [Eh]
	 SCS Correlation Energy    =      -2.2904750628333517 [Eh]
	 SCS Total Energy          =    -498.5482394575417402 [Eh]
	-----------------------------------------------------------

  Dipole Moment: [D]
     X:   -11.4747      Y:     1.1078      Z:     0.0825     Total:    11.5283

*** Psi4 exiting successfully. Buy a developer a beer!
