                               Psi4 1.4a2.dev612

  ==> Input File <==

--------------------------------------------------------------------------
#psi4
#
memory 32 gb

molecule  {
1 1
  N       -3.3283680     0.1942120    -0.0000200
  N       -0.5495980    -0.2948890     0.0000300
  C       -2.6173460    -0.2537290    -1.2573450
  C       -2.6173490    -0.2534950     1.2573910
  C       -1.1824450     0.2377860    -1.2003860
  C       -1.1824500     0.2380150     1.2003390
  C        0.8881070    -0.1264310     0.0000120
  C        1.4779170     1.1432740    -0.0000950
  C        1.6780489    -1.2778682    -0.1998870
  C        2.8695240     1.2540050    -0.0001090
  C        3.0687920    -1.1592000     0.0000980
  C        3.6642520     0.1047860    -0.0000090
  H       -3.3852960     1.2227380    -0.0001140
  H       -4.2988450    -0.1479970     0.0000100
  H       -3.1713790     0.1478040    -2.1095990
  H       -2.6546500    -1.3444640    -1.2649060
  H       -2.6546490    -1.3442280     1.2651520
  H       -3.1713850     0.1481950     2.1095680
  H       -0.6521860    -0.1397250    -2.0793070
  H       -1.1612660     1.3434560    -1.2528060
  H       -1.1612790     1.3436960     1.2525480
  H       -0.6521900    -0.1393200     2.0793360
  H        0.8654370     2.0434980    -0.0001730
  H        1.1935250    -2.2508840     0.0001950
  H        3.3333780     2.2368900    -0.0001920
  H        3.6871730    -2.0528130     0.0001780
  H        4.7470650     0.1949390    -0.0000240
units angstrom
no_reorient  #important for SAPT in psi4, default
symmetry c1  #important for SAPT in psi4, default
}

set PROPERTIES_ORIGIN ["COM"]
properties('MP2/aug-cc-pvtz', properties = ['dipole'])
--------------------------------------------------------------------------

    Molecular point group: c1
  Charge       = 1
  Multiplicity = 1
  Basis Set: AUG-CC-PVTZ
    Blend: AUG-CC-PVTZ
  Basis Set: (AUG-CC-PVTZ AUX)
    Blend: AUG-CC-PVTZ-JKFIT

    Orbital Energies [Eh]
    ---------------------

    Doubly Occupied:

       1A    -15.866757     2A    -15.705157     3A    -11.457063
       4A    -11.456699     5A    -11.417784     6A    -11.417369
       7A    -11.382564     8A    -11.344030     9A    -11.342037
      10A    -11.340937    11A    -11.340048    12A    -11.333267
      13A     -1.497667    14A     -1.390278    15A     -1.248492
      16A     -1.221735    17A     -1.154637    18A     -1.117885
      19A     -1.086078    20A     -1.053260    21A     -0.997089
      22A     -0.937849    23A     -0.926974    24A     -0.922485
      25A     -0.869151    26A     -0.823544    27A     -0.816998
      28A     -0.792621    29A     -0.788190    30A     -0.767416
      31A     -0.737142    32A     -0.734993    33A     -0.717342
      34A     -0.704147    35A     -0.688200    36A     -0.685470
      37A     -0.661257    38A     -0.659332    39A     -0.607867
      40A     -0.600993    41A     -0.596815    42A     -0.520665
      43A     -0.439904    44A     -0.437168

  @DF-RHF Final Energy:  -496.24832744736352

   => Energetics <=

    Nuclear Repulsion Energy =            706.1940094372439489
    One-Electron Energy =               -2059.6699665806081612
    Two-Electron Energy =                 857.2276296960006903
    Total Energy =                       -496.2483274473635220
  Basis Set: (AUG-CC-PVTZ AUX)
    Blend: AUG-CC-PVTZ-RI
    Molecular point group: c1

    Geometry (in Angstrom), charge = 1, multiplicity = 1:

       Center              X                  Y                   Z               Mass
    ------------   -----------------  -----------------  -----------------  -----------------
         N           -3.383866587492     0.201889711629     0.014692084232    14.003074004430
         N           -0.605096587492    -0.287211288371     0.014742084232    14.003074004430
         C           -2.672844587492    -0.246051288371    -1.242632915768    12.000000000000
         C           -2.672847587492    -0.245817288371     1.272103084232    12.000000000000
         C           -1.237943587492     0.245463711629    -1.185673915768    12.000000000000
         C           -1.237948587492     0.245692711629     1.215051084232    12.000000000000
         C            0.832608412508    -0.118753288371     0.014724084232    12.000000000000
         C            1.422418412508     1.150951711629     0.014617084232    12.000000000000
         C            1.622550312508    -1.270190488371    -0.185174915768    12.000000000000
         C            2.814025412508     1.261682711629     0.014603084232    12.000000000000
         C            3.013293412508    -1.151522288371     0.014810084232    12.000000000000
         C            3.608753412508     0.112463711629     0.014703084232    12.000000000000
         H           -3.440794587492     1.230415711629     0.014598084232     1.007825032230
         H           -4.354343587492    -0.140319288371     0.014722084232     1.007825032230
         H           -3.226877587492     0.155481711629    -2.094886915768     1.007825032230
         H           -2.710148587492    -1.336786288371    -1.250193915768     1.007825032230
         H           -2.710147587492    -1.336550288371     1.279864084232     1.007825032230
         H           -3.226883587492     0.155872711629     2.124280084232     1.007825032230
         H           -0.707684587492    -0.132047288371    -2.064594915768     1.007825032230
         H           -1.216764587492     1.351133711629    -1.238093915768     1.007825032230
         H           -1.216777587492     1.351373711629     1.267260084232     1.007825032230
         H           -0.707688587492    -0.131642288371     2.094048084232     1.007825032230
         H            0.809938412508     2.051175711629     0.014539084232     1.007825032230
         H            1.138026412508    -2.243206288371     0.014907084232     1.007825032230
         H            3.277879412508     2.244567711629     0.014520084232     1.007825032230
         H            3.631674412508    -2.045135288371     0.014890084232     1.007825032230
         H            4.691566412508     0.202616711629     0.014688084232     1.007825032230

  Basis Set: AUG-CC-PVTZ
    Blend: AUG-CC-PVTZ
  Basis Set: (AUG-CC-PVTZ AUX)
    Blend: AUG-CC-PVTZ-JKFIT
	 Reference Energy          =    -496.2483274473635220 [Eh]
	 Singles Energy            =      -0.0000000000000000 [Eh]
	 Same-Spin Energy          =      -0.5400965149340413 [Eh]
	 Opposite-Spin Energy      =      -1.7602183264631823 [Eh]
	 Correlation Energy        =      -2.3003148413972236 [Eh]
	 Total Energy              =    -498.5486422887607318 [Eh]

	 ================> DF-SCS-MP2 Energies <==================
	-----------------------------------------------------------
	 SCS Same-Spin Scale       =       0.3333333333333333 [-]
	 SCS Opposite-Spin Scale   =       1.2000000000000000 [-]
	 SCS Same-Spin Energy      =      -0.1800321716446804 [Eh]
	 SCS Opposite-Spin Energy  =      -2.1122619917558185 [Eh]
	 SCS Correlation Energy    =      -2.2922941634004990 [Eh]
	 SCS Total Energy          =    -498.5406216107640489 [Eh]
	-----------------------------------------------------------

  Dipole Moment: [D]
     X:   -11.4514      Y:     1.1606      Z:     0.1681     Total:    11.5113

*** Psi4 exiting successfully. Buy a developer a beer!
