                               Psi4 1.4a2.dev612

  ==> Input File <==

--------------------------------------------------------------------------
#psi4
#
memory 32 gb

molecule  {
1 1
  N       -3.3283680     0.1942120    -0.0000200
  N       -0.5495980    -0.2948890     0.0000300
  C       -2.6173460    -0.2537290    -1.2573450
  C       -2.6173490    -0.2534950     1.2573910
  C       -1.1824450     0.2377860    -1.2003860
  C       -1.1824500     0.2380150     1.2003390
  C        0.8881070    -0.1264310     0.0000120
  C        1.4779170     1.1432740    -0.0000950
  C        1.6780490    -1.2778553    -0.0498870
  C        2.8695240     1.2540050    -0.0001090
  C        3.0687920    -1.1592000     0.0000980
  C        3.6642520     0.1047860    -0.0000090
  H       -3.3852960     1.2227380    -0.0001140
  H       -4.2988450    -0.1479970     0.0000100
  H       -3.1713790     0.1478040    -2.1095990
  H       -2.6546500    -1.3444640    -1.2649060
  H       -2.6546490    -1.3442280     1.2651520
  H       -3.1713850     0.1481950     2.1095680
  H       -0.6521860    -0.1397250    -2.0793070
  H       -1.1612660     1.3434560    -1.2528060
  H       -1.1612790     1.3436960     1.2525480
  H       -0.6521900    -0.1393200     2.0793360
  H        0.8654370     2.0434980    -0.0001730
  H        1.1935250    -2.2508840     0.0001950
  H        3.3333780     2.2368900    -0.0001920
  H        3.6871730    -2.0528130     0.0001780
  H        4.7470650     0.1949390    -0.0000240
units angstrom
no_reorient  #important for SAPT in psi4, default
symmetry c1  #important for SAPT in psi4, default
}

set PROPERTIES_ORIGIN ["COM"]
properties('MP2/aug-cc-pvtz', properties = ['dipole'])
--------------------------------------------------------------------------

    Molecular point group: c1
  Charge       = 1
  Multiplicity = 1
  Basis Set: AUG-CC-PVTZ
    Blend: AUG-CC-PVTZ
  Basis Set: (AUG-CC-PVTZ AUX)
    Blend: AUG-CC-PVTZ-JKFIT

    Orbital Energies [Eh]
    ---------------------

    Doubly Occupied:

       1A    -15.866712     2A    -15.704969     3A    -11.456859
       4A    -11.456772     5A    -11.417446     6A    -11.417349
       7A    -11.379361     8A    -11.344260     9A    -11.339079
      10A    -11.338987    11A    -11.336756    12A    -11.333532
      13A     -1.497608    14A     -1.390093    15A     -1.249605
      16A     -1.221650    17A     -1.154654    18A     -1.119348
      19A     -1.086556    20A     -1.053153    21A     -0.997146
      22A     -0.938703    23A     -0.927152    24A     -0.923328
      25A     -0.869628    26A     -0.823492    27A     -0.818033
      28A     -0.792836    29A     -0.788024    30A     -0.768881
      31A     -0.738231    32A     -0.735417    33A     -0.717341
      34A     -0.705633    35A     -0.688523    36A     -0.688125
      37A     -0.660543    38A     -0.660026    39A     -0.607344
      40A     -0.601952    41A     -0.601265    42A     -0.520538
      43A     -0.440139    44A     -0.438191

  @DF-RHF Final Energy:  -496.26010037229611

   => Energetics <=

    Nuclear Repulsion Energy =            706.6245952403609181
    One-Electron Energy =               -2060.5389121510856967
    Two-Electron Energy =                 857.6542165384284999
    Total Energy =                       -496.2601003722961650
  Basis Set: (AUG-CC-PVTZ AUX)
    Blend: AUG-CC-PVTZ-RI
    Molecular point group: c1

    Geometry (in Angstrom), charge = 1, multiplicity = 1:

       Center              X                  Y                   Z               Mass
    ------------   -----------------  -----------------  -----------------  -----------------
         N           -3.383866594849     0.201888762655     0.003657501595    14.003074004430
         N           -0.605096594849    -0.287212237345     0.003707501595    14.003074004430
         C           -2.672844594849    -0.246052237345    -1.253667498405    12.000000000000
         C           -2.672847594849    -0.245818237345     1.261068501595    12.000000000000
         C           -1.237943594849     0.245462762655    -1.196708498405    12.000000000000
         C           -1.237948594849     0.245691762655     1.204016501595    12.000000000000
         C            0.832608405151    -0.118754237345     0.003689501595    12.000000000000
         C            1.422418405151     1.150950762655     0.003582501595    12.000000000000
         C            1.622550405151    -1.270178537345    -0.046209498405    12.000000000000
         C            2.814025405151     1.261681762655     0.003568501595    12.000000000000
         C            3.013293405151    -1.151523237345     0.003775501595    12.000000000000
         C            3.608753405151     0.112462762655     0.003668501595    12.000000000000
         H           -3.440794594849     1.230414762655     0.003563501595     1.007825032230
         H           -4.354343594849    -0.140320237345     0.003687501595     1.007825032230
         H           -3.226877594849     0.155480762655    -2.105921498405     1.007825032230
         H           -2.710148594849    -1.336787237345    -1.261228498405     1.007825032230
         H           -2.710147594849    -1.336551237345     1.268829501595     1.007825032230
         H           -3.226883594849     0.155871762655     2.113245501595     1.007825032230
         H           -0.707684594849    -0.132048237345    -2.075629498405     1.007825032230
         H           -1.216764594849     1.351132762655    -1.249128498405     1.007825032230
         H           -1.216777594849     1.351372762655     1.256225501595     1.007825032230
         H           -0.707688594849    -0.131643237345     2.083013501595     1.007825032230
         H            0.809938405151     2.051174762655     0.003504501595     1.007825032230
         H            1.138026405151    -2.243207237345     0.003872501595     1.007825032230
         H            3.277879405151     2.244566762655     0.003485501595     1.007825032230
         H            3.631674405151    -2.045136237345     0.003855501595     1.007825032230
         H            4.691566405151     0.202615762655     0.003653501595     1.007825032230

  Basis Set: AUG-CC-PVTZ
    Blend: AUG-CC-PVTZ
  Basis Set: (AUG-CC-PVTZ AUX)
    Blend: AUG-CC-PVTZ-JKFIT
	 Reference Energy          =    -496.2601003722961082 [Eh]
	 Singles Energy            =      -0.0000000000000000 [Eh]
	 Same-Spin Energy          =      -0.5394891716441059 [Eh]
	 Opposite-Spin Energy      =      -1.7585118139670901 [Eh]
	 Correlation Energy        =      -2.2980009856111963 [Eh]
	 Total Energy              =    -498.5581013579072760 [Eh]

	 ================> DF-SCS-MP2 Energies <==================
	-----------------------------------------------------------
	 SCS Same-Spin Scale       =       0.3333333333333333 [-]
	 SCS Opposite-Spin Scale   =       1.2000000000000000 [-]
	 SCS Same-Spin Energy      =      -0.1798297238813686 [Eh]
	 SCS Opposite-Spin Energy  =      -2.1102141767605080 [Eh]
	 SCS Correlation Energy    =      -2.2900439006418765 [Eh]
	 SCS Total Energy          =    -498.5501442729379846 [Eh]
	-----------------------------------------------------------

  Dipole Moment: [D]
     X:   -11.4805      Y:     1.0945      Z:     0.0410     Total:    11.5326

*** Psi4 exiting successfully. Buy a developer a beer!
