                               Psi4 1.4a2.dev612

  ==> Input File <==

--------------------------------------------------------------------------
#psi4
#
memory 32 gb

molecule  {
1 1
  N       -3.3283680     0.1942120    -0.0000200
  N       -0.5495980    -0.2948890     0.0000300
  C       -2.6173460    -0.2537290    -1.2573450
  C       -2.6173490    -0.2534950     1.2573910
  C       -1.1824450     0.2377860    -1.2003860
  C       -1.1824500     0.2380150     1.2003390
  C        0.8881070    -0.1264310     0.0000120
  C        1.4779170     1.1432740    -0.0000950
  C        1.6780490    -1.2778510     0.0001130
  C        2.8695240     1.2540050    -0.0001090
  C        3.0687920    -1.1592000     0.0000980
  C        3.6642520     0.1047860    -0.0000090
  H       -3.3852960     1.2227380    -0.0001140
  H       -4.2988450    -0.1479970     0.0000100
  H       -3.1713790     0.1478040    -2.1095990
  H       -2.6546500    -1.3444640    -1.2649060
  H       -2.6546490    -1.3442280     1.2651520
  H       -3.1713850     0.1481950     2.1095680
  H       -0.6521860    -0.1397250    -2.0793070
  H       -1.1612660     1.3434560    -1.2528060
  H       -1.1612790     1.3436960     1.2525480
  H       -0.6521900    -0.1393200     2.0793360
  H        0.8654370     2.0434980    -0.0001730
  H        1.1935250    -2.2508840     0.0001950
  H        3.3333780     2.2368900    -0.0001920
  H        3.6871730    -2.0528130     0.0001780
  H        4.7470650     0.1949390    -0.0000240
units angstrom
no_reorient  #important for SAPT in psi4, default
symmetry c1  #important for SAPT in psi4, default
}

set PROPERTIES_ORIGIN ["COM"]
properties('MP2/aug-cc-pvtz', properties = ['dipole'])
--------------------------------------------------------------------------

    Molecular point group: c1
  Charge       = 1
  Multiplicity = 1
  Basis Set: AUG-CC-PVTZ
    Blend: AUG-CC-PVTZ
  Basis Set: (AUG-CC-PVTZ AUX)
    Blend: AUG-CC-PVTZ-JKFIT

    Orbital Energies [Eh]
    ---------------------

    Doubly Occupied:

       1A    -15.866709     2A    -15.704956     3A    -11.456816
       4A    -11.456806     5A    -11.417393     6A    -11.417378
       7A    -11.379144     8A    -11.344281     9A    -11.338956
      10A    -11.338780    11A    -11.336538    12A    -11.333548
      13A     -1.497604    14A     -1.390081    15A     -1.249683
      16A     -1.221644    17A     -1.154657    18A     -1.119448
      19A     -1.086588    20A     -1.053146    21A     -0.997151
      22A     -0.938767    23A     -0.927165    24A     -0.923386
      25A     -0.869663    26A     -0.823489    27A     -0.818114
      28A     -0.792853    29A     -0.788013    30A     -0.768987
      31A     -0.738325    32A     -0.735432    33A     -0.717348
      34A     -0.705730    35A     -0.688724    36A     -0.688126
      37A     -0.660385    38A     -0.660184    39A     -0.607251
      40A     -0.601996    41A     -0.601633    42A     -0.520528
      43A     -0.440175    44A     -0.438247

  @DF-RHF Final Energy:  -496.26087624223516

   => Energetics <=

    Nuclear Repulsion Energy =            706.6536723985883555
    One-Electron Energy =               -2060.5974435704233656
    Two-Electron Energy =                 857.6828949295999109
    Total Energy =                       -496.2608762422352129
  Basis Set: (AUG-CC-PVTZ AUX)
    Blend: AUG-CC-PVTZ-RI
    Molecular point group: c1

    Geometry (in Angstrom), charge = 1, multiplicity = 1:

       Center              X                  Y                   Z               Mass
    ------------   -----------------  -----------------  -----------------  -----------------
         N           -3.383866594849     0.201888446330    -0.000020692617    14.003074004430
         N           -0.605096594849    -0.287212553670     0.000029307383    14.003074004430
         C           -2.672844594849    -0.246052553670    -1.257345692617    12.000000000000
         C           -2.672847594849    -0.245818553670     1.257390307383    12.000000000000
         C           -1.237943594849     0.245462446330    -1.200386692617    12.000000000000
         C           -1.237948594849     0.245691446330     1.200338307383    12.000000000000
         C            0.832608405151    -0.118754553670     0.000011307383    12.000000000000
         C            1.422418405151     1.150950446330    -0.000095692617    12.000000000000
         C            1.622550405151    -1.270174553670     0.000112307383    12.000000000000
         C            2.814025405151     1.261681446330    -0.000109692617    12.000000000000
         C            3.013293405151    -1.151523553670     0.000097307383    12.000000000000
         C            3.608753405151     0.112462446330    -0.000009692617    12.000000000000
         H           -3.440794594849     1.230414446330    -0.000114692617     1.007825032230
         H           -4.354343594849    -0.140320553670     0.000009307383     1.007825032230
         H           -3.226877594849     0.155480446330    -2.109599692617     1.007825032230
         H           -2.710148594849    -1.336787553670    -1.264906692617     1.007825032230
         H           -2.710147594849    -1.336551553670     1.265151307383     1.007825032230
         H           -3.226883594849     0.155871446330     2.109567307383     1.007825032230
         H           -0.707684594849    -0.132048553670    -2.079307692617     1.007825032230
         H           -1.216764594849     1.351132446330    -1.252806692617     1.007825032230
         H           -1.216777594849     1.351372446330     1.252547307383     1.007825032230
         H           -0.707688594849    -0.131643553670     2.079335307383     1.007825032230
         H            0.809938405151     2.051174446330    -0.000173692617     1.007825032230
         H            1.138026405151    -2.243207553670     0.000194307383     1.007825032230
         H            3.277879405151     2.244566446330    -0.000192692617     1.007825032230
         H            3.631674405151    -2.045136553670     0.000177307383     1.007825032230
         H            4.691566405151     0.202615446330    -0.000024692617     1.007825032230

  Basis Set: AUG-CC-PVTZ
    Blend: AUG-CC-PVTZ
  Basis Set: (AUG-CC-PVTZ AUX)
    Blend: AUG-CC-PVTZ-JKFIT
	 Reference Energy          =    -496.2608762422351560 [Eh]
	 Singles Energy            =      -0.0000000000000000 [Eh]
	 Same-Spin Energy          =      -0.5394474931356241 [Eh]
	 Opposite-Spin Energy      =      -1.7584104076571525 [Eh]
	 Correlation Energy        =      -2.2978579007927769 [Eh]
	 Total Energy              =    -498.5587341430279480 [Eh]

	 ================> DF-SCS-MP2 Energies <==================
	-----------------------------------------------------------
	 SCS Same-Spin Scale       =       0.3333333333333333 [-]
	 SCS Opposite-Spin Scale   =       1.2000000000000000 [-]
	 SCS Same-Spin Energy      =      -0.1798158310452080 [Eh]
	 SCS Opposite-Spin Energy  =      -2.1100924891885828 [Eh]
	 SCS Correlation Energy    =      -2.2899083202337911 [Eh]
	 SCS Total Energy          =    -498.5507845624689480 [Eh]
	-----------------------------------------------------------

  Dipole Moment: [D]
     X:   -11.4824      Y:     1.0900      Z:    -0.0001     Total:    11.5340

*** Psi4 exiting successfully. Buy a developer a beer!
