                               Psi4 1.4a2.dev612

  ==> Input File <==

--------------------------------------------------------------------------
#psi4
#
memory 32 gb

molecule  {
1 1
  N       -3.3283680     0.1942120    -0.0000200
  N       -0.5495980    -0.2948890     0.0000300
  C       -2.6173460    -0.2537290    -1.2573450
  C       -2.6173490    -0.2534950     1.2573910
  C       -1.1824450     0.2377860    -1.2003860
  C       -1.1824500     0.2380150     1.2003390
  C        0.8881070    -0.1264310     0.0000120
  C        1.4779170     1.1432740    -0.0000950
  C        1.6780488    -1.2778725    -0.2498870
  C        2.8695240     1.2540050    -0.0001090
  C        3.0687920    -1.1592000     0.0000980
  C        3.6642520     0.1047860    -0.0000090
  H       -3.3852960     1.2227380    -0.0001140
  H       -4.2988450    -0.1479970     0.0000100
  H       -3.1713790     0.1478040    -2.1095990
  H       -2.6546500    -1.3444640    -1.2649060
  H       -2.6546490    -1.3442280     1.2651520
  H       -3.1713850     0.1481950     2.1095680
  H       -0.6521860    -0.1397250    -2.0793070
  H       -1.1612660     1.3434560    -1.2528060
  H       -1.1612790     1.3436960     1.2525480
  H       -0.6521900    -0.1393200     2.0793360
  H        0.8654370     2.0434980    -0.0001730
  H        1.1935250    -2.2508840     0.0001950
  H        3.3333780     2.2368900    -0.0001920
  H        3.6871730    -2.0528130     0.0001780
  H        4.7470650     0.1949390    -0.0000240
units angstrom
no_reorient  #important for SAPT in psi4, default
symmetry c1  #important for SAPT in psi4, default
}

set PROPERTIES_ORIGIN ["COM"]
properties('MP2/aug-cc-pvtz', properties = ['dipole'])
--------------------------------------------------------------------------

    Molecular point group: c1
  Charge       = 1
  Multiplicity = 1
  Basis Set: AUG-CC-PVTZ
    Blend: AUG-CC-PVTZ
  Basis Set: (AUG-CC-PVTZ AUX)
    Blend: AUG-CC-PVTZ-JKFIT

    Orbital Energies [Eh]
    ---------------------

    Doubly Occupied:

       1A    -15.866782     2A    -15.705269     3A    -11.457154
       4A    -11.456684     5A    -11.417952     6A    -11.417411
       7A    -11.384425     8A    -11.343980     9A    -11.343785
      10A    -11.342047    11A    -11.341964    12A    -11.333114
      13A     -1.497700    14A     -1.390387    15A     -1.247871
      16A     -1.221783    17A     -1.154638    18A     -1.117025
      19A     -1.085774    20A     -1.053321    21A     -0.997057
      22A     -0.937407    23A     -0.926867    24A     -0.922001
      25A     -0.868892    26A     -0.823573    27A     -0.816510
      28A     -0.792522    29A     -0.788284    30A     -0.766639
      31A     -0.736794    32A     -0.734529    33A     -0.717403
      34A     -0.703227    35A     -0.688232    36A     -0.683702
      37A     -0.661499    38A     -0.659089    39A     -0.607832
      40A     -0.600358    41A     -0.594423    42A     -0.520723
      43A     -0.439938    44A     -0.436484

  @DF-RHF Final Energy:  -496.24117055576090

   => Energetics <=

    Nuclear Repulsion Energy =            705.9405710945219425
    One-Electron Energy =               -2059.1573777581943432
    Two-Electron Energy =                 856.9756361079114413
    Total Energy =                       -496.2411705557608457
  Basis Set: (AUG-CC-PVTZ AUX)
    Blend: AUG-CC-PVTZ-RI
    Molecular point group: c1

    Geometry (in Angstrom), charge = 1, multiplicity = 1:

       Center              X                  Y                   Z               Mass
    ------------   -----------------  -----------------  -----------------  -----------------
         N           -3.383866580136     0.201890027954     0.018370278444    14.003074004430
         N           -0.605096580136    -0.287210972046     0.018420278444    14.003074004430
         C           -2.672844580136    -0.246050972046    -1.238954721556    12.000000000000
         C           -2.672847580136    -0.245816972046     1.275781278444    12.000000000000
         C           -1.237943580136     0.245464027954    -1.181995721556    12.000000000000
         C           -1.237948580136     0.245693027954     1.218729278444    12.000000000000
         C            0.832608419864    -0.118752972046     0.018402278444    12.000000000000
         C            1.422418419864     1.150952027954     0.018295278444    12.000000000000
         C            1.622550219864    -1.270194472046    -0.231496721556    12.000000000000
         C            2.814025419864     1.261683027954     0.018281278444    12.000000000000
         C            3.013293419864    -1.151521972046     0.018488278444    12.000000000000
         C            3.608753419864     0.112464027954     0.018381278444    12.000000000000
         H           -3.440794580136     1.230416027954     0.018276278444     1.007825032230
         H           -4.354343580136    -0.140318972046     0.018400278444     1.007825032230
         H           -3.226877580136     0.155482027954    -2.091208721556     1.007825032230
         H           -2.710148580136    -1.336785972046    -1.246515721556     1.007825032230
         H           -2.710147580136    -1.336549972046     1.283542278444     1.007825032230
         H           -3.226883580136     0.155873027954     2.127958278444     1.007825032230
         H           -0.707684580136    -0.132046972046    -2.060916721556     1.007825032230
         H           -1.216764580136     1.351134027954    -1.234415721556     1.007825032230
         H           -1.216777580136     1.351374027954     1.270938278444     1.007825032230
         H           -0.707688580136    -0.131641972046     2.097726278444     1.007825032230
         H            0.809938419864     2.051176027954     0.018217278444     1.007825032230
         H            1.138026419864    -2.243205972046     0.018585278444     1.007825032230
         H            3.277879419864     2.244568027954     0.018198278444     1.007825032230
         H            3.631674419864    -2.045134972046     0.018568278444     1.007825032230
         H            4.691566419864     0.202617027954     0.018366278444     1.007825032230

  Basis Set: AUG-CC-PVTZ
    Blend: AUG-CC-PVTZ
  Basis Set: (AUG-CC-PVTZ AUX)
    Blend: AUG-CC-PVTZ-JKFIT
	 Reference Energy          =    -496.2411705557609025 [Eh]
	 Singles Energy            =      -0.0000000000000000 [Eh]
	 Same-Spin Energy          =      -0.5404464730552604 [Eh]
	 Opposite-Spin Energy      =      -1.7612648354297793 [Eh]
	 Correlation Energy        =      -2.3017113084850398 [Eh]
	 Total Energy              =    -498.5428818642459419 [Eh]

	 ================> DF-SCS-MP2 Energies <==================
	-----------------------------------------------------------
	 SCS Same-Spin Scale       =       0.3333333333333333 [-]
	 SCS Opposite-Spin Scale   =       1.2000000000000000 [-]
	 SCS Same-Spin Energy      =      -0.1801488243517534 [Eh]
	 SCS Opposite-Spin Energy  =      -2.1135178025157351 [Eh]
	 SCS Correlation Energy    =      -2.2936666268674886 [Eh]
	 SCS Total Energy          =    -498.5348371826283937 [Eh]
	-----------------------------------------------------------

  Dipole Moment: [D]
     X:   -11.4340      Y:     1.1995      Z:     0.2124     Total:    11.4987

*** Psi4 exiting successfully. Buy a developer a beer!
