                               Psi4 1.4a3.dev225

  ==> Input File <==

--------------------------------------------------------------------------
#psi4
#
memory 32 gb

molecule  {
0 1
  O       -2.2454114     0.9619867    -0.1679707
  N        0.4211910     1.5299470     0.0903790
  C        0.0817250     0.2107030     0.0159890
  C        2.4145630    -0.5010270    -0.0428790
  C       -1.3460660    -0.1139160     0.0206840
  C        1.0420520    -0.8182650    -0.0594370
  C        2.7641530     0.8636850     0.0360660
  C       -2.0477590    -1.2949740     0.1722820
  C        3.4684270    -1.5756500    -0.0824610
  C        1.7493340     1.8260270     0.0926910
  C       -3.4286880    -0.9658200     0.0768380
  C       -3.4828100     0.3886030    -0.1245500
  H        0.7225460    -1.8551450    -0.1446860
  H        3.8080070     1.1710760     0.0438400
  H       -1.6259220    -2.2752860     0.3500510
  H        3.8398640    -1.7937090     0.9244500
  H        3.0687740    -2.5034170    -0.5007000
  H        4.3228250    -1.2652800    -0.6906580
  H        1.9977040     2.8869120     0.1452960
  H       -4.2730300    -1.6376780     0.1527080
  H       -4.2894270     1.0948070    -0.2563320
units angstrom
no_reorient  #important for SAPT in psi4, default
symmetry c1  #important for SAPT in psi4, default
}

set PROPERTIES_ORIGIN ["COM"]
properties('MP2/aug-cc-pvtz', properties = ['dipole'])
--------------------------------------------------------------------------

    Molecular point group: c1
  Charge       = 0
  Multiplicity = 1
  Basis Set: AUG-CC-PVTZ
    Blend: AUG-CC-PVTZ
  Basis Set: (AUG-CC-PVTZ AUX)
    Blend: AUG-CC-PVTZ-JKFIT

    Orbital Energies [Eh]
    ---------------------

    Doubly Occupied:

       1A    -20.621871     2A    -15.563088     3A    -11.299841
       4A    -11.295270     5A    -11.294815     6A    -11.278435
       7A    -11.271725     8A    -11.244419     9A    -11.242279
      10A    -11.239418    11A    -11.237965    12A    -11.234093
      13A     -1.439347    14A     -1.243822    15A     -1.104007
      16A     -1.091909    17A     -1.055391    18A     -0.980732
      19A     -0.967433    20A     -0.863054    21A     -0.835547
      22A     -0.796332    23A     -0.766288    24A     -0.724984
      25A     -0.672395    26A     -0.668175    27A     -0.636219
      28A     -0.625737    29A     -0.596483    30A     -0.590446
      31A     -0.580806    32A     -0.566525    33A     -0.559067
      34A     -0.546374    35A     -0.543159    36A     -0.525283
      37A     -0.509944    38A     -0.417204    39A     -0.406868
      40A     -0.375359    41A     -0.362249    42A     -0.287528

  @DF-RHF Final Energy:  -513.37286512238438

   => Energetics <=

    Nuclear Repulsion Energy =            627.6119855870438187
    One-Electron Energy =               -1941.6459275806387268
    Two-Electron Energy =                 800.6610768712105255
    Total Energy =                       -513.3728651223843826
  Basis Set: (AUG-CC-PVTZ AUX)
    Blend: AUG-CC-PVTZ-RI
    Molecular point group: c1

    Geometry (in Angstrom), charge = 0, multiplicity = 1:

       Center              X                  Y                   Z               Mass
    ------------   -----------------  -----------------  -----------------  -----------------
         O           -2.196329148494     0.919129748267    -0.167126656748    15.994914619570
         N            0.470273251506     1.487090048267     0.091223043252    14.003074004430
         C            0.130807251506     0.167846048267     0.016833043252    12.000000000000
         C            2.463645251506    -0.543883951733    -0.042034956748    12.000000000000
         C           -1.296983748494    -0.156772951733     0.021528043252    12.000000000000
         C            1.091134251506    -0.861121951733    -0.058592956748    12.000000000000
         C            2.813235251506     0.820828048267     0.036910043252    12.000000000000
         C           -1.998676748494    -1.337830951733     0.173126043252    12.000000000000
         C            3.517509251506    -1.618506951733    -0.081616956748    12.000000000000
         C            1.798416251506     1.783170048267     0.093535043252    12.000000000000
         C           -3.379605748494    -1.008676951733     0.077682043252    12.000000000000
         C           -3.433727748494     0.345746048267    -0.123705956748    12.000000000000
         H            0.771628251506    -1.898001951733    -0.143841956748     1.007825032230
         H            3.857089251506     1.128219048267     0.044684043252     1.007825032230
         H           -1.576839748494    -2.318142951733     0.350895043252     1.007825032230
         H            3.888946251506    -1.836565951733     0.925294043252     1.007825032230
         H            3.117856251506    -2.546273951733    -0.499855956748     1.007825032230
         H            4.371907251506    -1.308136951733    -0.689813956748     1.007825032230
         H            2.046786251506     2.844055048267     0.146140043252     1.007825032230
         H           -4.223947748494    -1.680534951733     0.153552043252     1.007825032230
         H           -4.240344748494     1.051950048267    -0.255487956748     1.007825032230

  Basis Set: AUG-CC-PVTZ
    Blend: AUG-CC-PVTZ
  Basis Set: (AUG-CC-PVTZ AUX)
    Blend: AUG-CC-PVTZ-JKFIT
	 Reference Energy          =    -513.3728651223843826 [Eh]
	 Singles Energy            =      -0.0000000000000000 [Eh]
	 Same-Spin Energy          =      -0.5592560762973675 [Eh]
	 Opposite-Spin Energy      =      -1.7151327085516590 [Eh]
	 Correlation Energy        =      -2.2743887848490267 [Eh]
	 Total Energy              =    -515.6472539072334484 [Eh]

	 ================> DF-SCS-MP2 Energies <==================
	-----------------------------------------------------------
	 SCS Same-Spin Scale       =       0.3333333333333333 [-]
	 SCS Opposite-Spin Scale   =       1.2000000000000000 [-]
	 SCS Same-Spin Energy      =      -0.1864186920991225 [Eh]
	 SCS Opposite-Spin Energy  =      -2.0581592502619905 [Eh]
	 SCS Correlation Energy    =      -2.2445779423611132 [Eh]
	 SCS Total Energy          =    -515.6174430647455438 [Eh]
	-----------------------------------------------------------

  Dipole Moment: [D]
     X:     1.5207      Y:    -2.4886      Z:     0.0156     Total:     2.9165

*** Psi4 exiting successfully. Buy a developer a beer!
