                               Psi4 1.4a3.dev225

  ==> Input File <==

--------------------------------------------------------------------------
#psi4
#
memory 32 gb

molecule  {
0 1
  O       -2.2261580     0.9189870    -0.1609950
  N        0.4211910     1.5299470     0.0903790
  C        0.0817250     0.2107030     0.0159890
  C        2.4145630    -0.5010270    -0.0428790
  C       -1.3460660    -0.1139160     0.0206840
  C        1.0420520    -0.8182650    -0.0594370
  C        2.7641530     0.8636850     0.0360660
  C       -2.0477590    -1.2949740     0.1722820
  C        3.4684270    -1.5756500    -0.0824610
  C        1.7493340     1.8260270     0.0926910
  C       -3.4286880    -0.9658200     0.0768380
  C       -3.4828100     0.3886030    -0.1245500
  H        0.7225460    -1.8551450    -0.1446860
  H        3.8080070     1.1710760     0.0438400
  H       -1.6259220    -2.2752860     0.3500510
  H        3.8398640    -1.7937090     0.9244500
  H        3.0687740    -2.5034170    -0.5007000
  H        4.3228250    -1.2652800    -0.6906580
  H        1.9977040     2.8869120     0.1452960
  H       -4.2730300    -1.6376780     0.1527080
  H       -4.2520888     1.0621169    -0.2502318
units angstrom
no_reorient  #important for SAPT in psi4, default
symmetry c1  #important for SAPT in psi4, default
}

set PROPERTIES_ORIGIN ["COM"]
properties('MP2/aug-cc-pvtz', properties = ['dipole'])
--------------------------------------------------------------------------

    Molecular point group: c1
  Charge       = 0
  Multiplicity = 1
  Basis Set: AUG-CC-PVTZ
    Blend: AUG-CC-PVTZ
  Basis Set: (AUG-CC-PVTZ AUX)
    Blend: AUG-CC-PVTZ-JKFIT

    Orbital Energies [Eh]
    ---------------------

    Doubly Occupied:

       1A    -20.621528     2A    -15.563730     3A    -11.297238
       4A    -11.294406     5A    -11.287702     6A    -11.278737
       7A    -11.271852     8A    -11.242523     9A    -11.239491
      10A    -11.238764    11A    -11.238495    12A    -11.233717
      13A     -1.453692    14A     -1.244185    15A     -1.104293
      16A     -1.087649    17A     -1.058281    18A     -0.986073
      19A     -0.968314    20A     -0.864094    21A     -0.837644
      22A     -0.801788    23A     -0.765515    24A     -0.731633
      25A     -0.674006    26A     -0.669375    27A     -0.641660
      28A     -0.633482    29A     -0.601527    30A     -0.590616
      31A     -0.579527    32A     -0.566275    33A     -0.559268
      34A     -0.548212    35A     -0.541701    36A     -0.525391
      37A     -0.509826    38A     -0.417667    39A     -0.402307
      40A     -0.375929    41A     -0.362515    42A     -0.287959

  @DF-RHF Final Energy:  -513.37635892927642

   => Energetics <=

    Nuclear Repulsion Energy =            629.2065242267078702
    One-Electron Energy =               -1944.7685946348219659
    Two-Electron Energy =                 802.1857114788376748
    Total Energy =                       -513.3763589292764209
  Basis Set: (AUG-CC-PVTZ AUX)
    Blend: AUG-CC-PVTZ-RI
    Molecular point group: c1

    Geometry (in Angstrom), charge = 0, multiplicity = 1:

       Center              X                  Y                   Z               Mass
    ------------   -----------------  -----------------  -----------------  -----------------
         O           -2.179248315965     0.880660944210    -0.160891038686    15.994914619570
         N            0.468100684035     1.491620944210     0.090482961314    14.003074004430
         C            0.128634684035     0.172376944210     0.016092961314    12.000000000000
         C            2.461472684035    -0.539353055790    -0.042775038686    12.000000000000
         C           -1.299156315965    -0.152242055790     0.020787961314    12.000000000000
         C            1.088961684035    -0.856591055790    -0.059333038686    12.000000000000
         C            2.811062684035     0.825358944210     0.036169961314    12.000000000000
         C           -2.000849315965    -1.333300055790     0.172385961314    12.000000000000
         C            3.515336684035    -1.613976055790    -0.082357038686    12.000000000000
         C            1.796243684035     1.787700944210     0.092794961314    12.000000000000
         C           -3.381778315965    -1.004146055790     0.076941961314    12.000000000000
         C           -3.435900315965     0.350276944210    -0.124446038686    12.000000000000
         H            0.769455684035    -1.893471055790    -0.144582038686     1.007825032230
         H            3.854916684035     1.132749944210     0.043943961314     1.007825032230
         H           -1.579012315965    -2.313612055790     0.350154961314     1.007825032230
         H            3.886773684035    -1.832035055790     0.924553961314     1.007825032230
         H            3.115683684035    -2.541743055790    -0.500596038686     1.007825032230
         H            4.369734684035    -1.303606055790    -0.690554038686     1.007825032230
         H            2.044613684035     2.848585944210     0.145399961314     1.007825032230
         H           -4.226120315965    -1.676004055790     0.152811961314     1.007825032230
         H           -4.205179115965     1.023790844210    -0.250127838686     1.007825032230

  Basis Set: AUG-CC-PVTZ
    Blend: AUG-CC-PVTZ
  Basis Set: (AUG-CC-PVTZ AUX)
    Blend: AUG-CC-PVTZ-JKFIT
	 Reference Energy          =    -513.3763589292764209 [Eh]
	 Singles Energy            =      -0.0000000000000000 [Eh]
	 Same-Spin Energy          =      -0.5589738238231146 [Eh]
	 Opposite-Spin Energy      =      -1.7132849269728050 [Eh]
	 Correlation Energy        =      -2.2722587507959195 [Eh]
	 Total Energy              =    -515.6486176800723342 [Eh]

	 ================> DF-SCS-MP2 Energies <==================
	-----------------------------------------------------------
	 SCS Same-Spin Scale       =       0.3333333333333333 [-]
	 SCS Opposite-Spin Scale   =       1.2000000000000000 [-]
	 SCS Same-Spin Energy      =      -0.1863246079410382 [Eh]
	 SCS Opposite-Spin Energy  =      -2.0559419123673659 [Eh]
	 SCS Correlation Energy    =      -2.2422665203084042 [Eh]
	 SCS Total Energy          =    -515.6186254495847834 [Eh]
	-----------------------------------------------------------

  Dipole Moment: [D]
     X:     1.4868      Y:    -2.3788      Z:    -0.0037     Total:     2.8053

*** Psi4 exiting successfully. Buy a developer a beer!
