                               Psi4 1.4a3.dev225

  ==> Input File <==

--------------------------------------------------------------------------
#psi4
#
memory 32 gb

molecule  {
0 1
  O       -2.2261580     0.9189870    -0.1609950
  N        0.4211910     1.5299470     0.0903790
  C        0.0817250     0.2107030     0.0159890
  C        2.4145630    -0.5010270    -0.0428790
  C       -1.3460660    -0.1139160     0.0206840
  C        1.0420520    -0.8182650    -0.0594370
  C        2.7641530     0.8636850     0.0360660
  C       -2.0477590    -1.2949740     0.1722820
  C        3.4684270    -1.5756500    -0.0824610
  C        1.7493340     1.8260270     0.0926910
  C       -3.4286880    -0.9658200     0.0768380
  C       -3.4828100     0.3886030    -0.1245500
  H        0.7225460    -1.8551450    -0.1446860
  H        3.8080070     1.1710760     0.0438400
  H       -1.5479430    -2.4565024     0.3829126
  H        3.8398640    -1.7937090     0.9244500
  H        3.0687740    -2.5034170    -0.5007000
  H        4.3228250    -1.2652800    -0.6906580
  H        1.9977040     2.8869120     0.1452960
  H       -4.2730300    -1.6376780     0.1527080
  H       -4.2894270     1.0948070    -0.2563320
units angstrom
no_reorient  #important for SAPT in psi4, default
symmetry c1  #important for SAPT in psi4, default
}

set PROPERTIES_ORIGIN ["COM"]
properties('MP2/aug-cc-pvtz', properties = ['dipole'])
--------------------------------------------------------------------------

    Molecular point group: c1
  Charge       = 0
  Multiplicity = 1
  Basis Set: AUG-CC-PVTZ
    Blend: AUG-CC-PVTZ
  Basis Set: (AUG-CC-PVTZ AUX)
    Blend: AUG-CC-PVTZ-JKFIT

    Orbital Energies [Eh]
    ---------------------

    Doubly Occupied:

       1A    -20.623607     2A    -15.563806     3A    -11.299078
       4A    -11.294805     5A    -11.294476     6A    -11.278610
       7A    -11.271563     8A    -11.259733     9A    -11.242118
      10A    -11.239322    11A    -11.238436    12A    -11.236276
      13A     -1.455568    14A     -1.244171    15A     -1.104098
      16A     -1.086259    17A     -1.058339    18A     -0.983972
      19A     -0.967876    20A     -0.861532    21A     -0.836280
      22A     -0.795205    23A     -0.755580    24A     -0.721751
      25A     -0.673047    26A     -0.667736    27A     -0.639498
      28A     -0.635111    29A     -0.598676    30A     -0.590464
      31A     -0.574862    32A     -0.560576    33A     -0.547859
      34A     -0.542288    35A     -0.535525    36A     -0.525410
      37A     -0.509213    38A     -0.417692    39A     -0.403912
      40A     -0.376396    41A     -0.362372    42A     -0.288779

  @DF-RHF Final Energy:  -513.35418511992259

   => Energetics <=

    Nuclear Repulsion Energy =            628.0466470330611628
    One-Electron Energy =               -1942.4779103884327469
    Two-Electron Energy =                 801.0770782354489938
    Total Energy =                       -513.3541851199225903
  Basis Set: (AUG-CC-PVTZ AUX)
    Blend: AUG-CC-PVTZ-RI
    Molecular point group: c1

    Geometry (in Angstrom), charge = 0, multiplicity = 1:

       Center              X                  Y                   Z               Mass
    ------------   -----------------  -----------------  -----------------  -----------------
         O           -2.179505807786     0.881601976558    -0.161060593459    15.994914619570
         N            0.467843192214     1.492561976558     0.090313406541    14.003074004430
         C            0.128377192214     0.173317976558     0.015923406541    12.000000000000
         C            2.461215192214    -0.538412023442    -0.042944593459    12.000000000000
         C           -1.299413807786    -0.151301023442     0.020618406541    12.000000000000
         C            1.088704192214    -0.855650023442    -0.059502593459    12.000000000000
         C            2.810805192214     0.826299976558     0.036000406541    12.000000000000
         C           -2.001106807786    -1.332359023442     0.172216406541    12.000000000000
         C            3.515079192214    -1.613035023442    -0.082526593459    12.000000000000
         C            1.795986192214     1.788641976558     0.092625406541    12.000000000000
         C           -3.382035807786    -1.003205023442     0.076772406541    12.000000000000
         C           -3.436157807786     0.351217976558    -0.124615593459    12.000000000000
         H            0.769198192214    -1.892530023442    -0.144751593459     1.007825032230
         H            3.854659192214     1.133690976558     0.043774406541     1.007825032230
         H           -1.501290807786    -2.493887423442     0.382847006541     1.007825032230
         H            3.886516192214    -1.831094023442     0.924384406541     1.007825032230
         H            3.115426192214    -2.540802023442    -0.500765593459     1.007825032230
         H            4.369477192214    -1.302665023442    -0.690723593459     1.007825032230
         H            2.044356192214     2.849526976558     0.145230406541     1.007825032230
         H           -4.226377807786    -1.675063023442     0.152642406541     1.007825032230
         H           -4.242774807786     1.057421976558    -0.256397593459     1.007825032230

  Basis Set: AUG-CC-PVTZ
    Blend: AUG-CC-PVTZ
  Basis Set: (AUG-CC-PVTZ AUX)
    Blend: AUG-CC-PVTZ-JKFIT
	 Reference Energy          =    -513.3541851199225903 [Eh]
	 Singles Energy            =      -0.0000000000000000 [Eh]
	 Same-Spin Energy          =      -0.5595930597099288 [Eh]
	 Opposite-Spin Energy      =      -1.7158331356804657 [Eh]
	 Correlation Energy        =      -2.2754261953903945 [Eh]
	 Total Energy              =    -515.6296113153130136 [Eh]

	 ================> DF-SCS-MP2 Energies <==================
	-----------------------------------------------------------
	 SCS Same-Spin Scale       =       0.3333333333333333 [-]
	 SCS Opposite-Spin Scale   =       1.2000000000000000 [-]
	 SCS Same-Spin Energy      =      -0.1865310199033096 [Eh]
	 SCS Opposite-Spin Energy  =      -2.0589997628165588 [Eh]
	 SCS Correlation Energy    =      -2.2455307827198685 [Eh]
	 SCS Total Energy          =    -515.5997159026425152 [Eh]
	-----------------------------------------------------------

  Dipole Moment: [D]
     X:     1.4397      Y:    -2.3517      Z:    -0.0088     Total:     2.7574

*** Psi4 exiting successfully. Buy a developer a beer!
