                               Psi4 1.4a3.dev225

  ==> Input File <==

--------------------------------------------------------------------------
#psi4
#
memory 32 gb

molecule  {
0 1
  O       -2.2261580     0.9189870    -0.1609950
  N        0.4211910     1.5299470     0.0903790
  C        0.0817250     0.2107030     0.0159890
  C        2.4145630    -0.5010270    -0.0428790
  C       -1.3460660    -0.1139160     0.0206840
  C        1.0420520    -0.8182650    -0.0594370
  C        2.7641530     0.8636850     0.0360660
  C       -2.0477590    -1.2949740     0.1722820
  C        3.4684270    -1.5756500    -0.0824610
  C        1.7855852     1.7916503     0.0906682
  C       -3.4286880    -0.9658200     0.0768380
  C       -3.4828100     0.3886030    -0.1245500
  H        0.7225460    -1.8551450    -0.1446860
  H        3.8080070     1.1710760     0.0438400
  H       -1.6259220    -2.2752860     0.3500510
  H        3.8398640    -1.7937090     0.9244500
  H        3.0687740    -2.5034170    -0.5007000
  H        4.3228250    -1.2652800    -0.6906580
  H        1.9977040     2.8869120     0.1452960
  H       -4.2730300    -1.6376780     0.1527080
  H       -4.2894270     1.0948070    -0.2563320
units angstrom
no_reorient  #important for SAPT in psi4, default
symmetry c1  #important for SAPT in psi4, default
}

set PROPERTIES_ORIGIN ["COM"]
properties('MP2/aug-cc-pvtz', properties = ['dipole'])
--------------------------------------------------------------------------

    Molecular point group: c1
  Charge       = 0
  Multiplicity = 1
  Basis Set: AUG-CC-PVTZ
    Blend: AUG-CC-PVTZ
  Basis Set: (AUG-CC-PVTZ AUX)
    Blend: AUG-CC-PVTZ-JKFIT

    Orbital Energies [Eh]
    ---------------------

    Doubly Occupied:

       1A    -20.622231     2A    -15.564574     3A    -11.297351
       4A    -11.294461     5A    -11.293939     6A    -11.275374
       7A    -11.273299     8A    -11.242041     9A    -11.240222
      10A    -11.239775    11A    -11.234244    12A    -11.233609
      13A     -1.454256    14A     -1.240011    15A     -1.105184
      16A     -1.088556    17A     -1.058598    18A     -0.989583
      19A     -0.969346    20A     -0.860427    21A     -0.836653
      22A     -0.800100    23A     -0.765193    24A     -0.727161
      25A     -0.675585    26A     -0.670178    27A     -0.635518
      28A     -0.632371    29A     -0.598442    30A     -0.591548
      31A     -0.580054    32A     -0.566650    33A     -0.558957
      34A     -0.546694    35A     -0.540937    36A     -0.524896
      37A     -0.503104    38A     -0.421942    39A     -0.403641
      40A     -0.380573    41A     -0.358269    42A     -0.291164

  @DF-RHF Final Energy:  -513.37352047080958

   => Energetics <=

    Nuclear Repulsion Energy =            629.2544014992383836
    One-Electron Energy =               -1944.8824263962708301
    Two-Electron Energy =                 802.2545044262228657
    Total Energy =                       -513.3735204708095807
  Basis Set: (AUG-CC-PVTZ AUX)
    Blend: AUG-CC-PVTZ-RI
    Molecular point group: c1

    Geometry (in Angstrom), charge = 0, multiplicity = 1:

       Center              X                  Y                   Z               Mass
    ------------   -----------------  -----------------  -----------------  -----------------
         O           -2.181746511663     0.883047178469    -0.160699790572    15.994914619570
         N            0.465602488337     1.494007178469     0.090674209428    14.003074004430
         C            0.126136488337     0.174763178469     0.016284209428    12.000000000000
         C            2.458974488337    -0.536966821531    -0.042583790572    12.000000000000
         C           -1.301654511663    -0.149855821531     0.020979209428    12.000000000000
         C            1.086463488337    -0.854204821531    -0.059141790572    12.000000000000
         C            2.808564488337     0.827745178469     0.036361209428    12.000000000000
         C           -2.003347511663    -1.330913821531     0.172577209428    12.000000000000
         C            3.512838488337    -1.611589821531    -0.082165790572    12.000000000000
         C            1.829996688337     1.755710478469     0.090963409428    12.000000000000
         C           -3.384276511663    -1.001759821531     0.077133209428    12.000000000000
         C           -3.438398511663     0.352663178469    -0.124254790572    12.000000000000
         H            0.766957488337    -1.891084821531    -0.144390790572     1.007825032230
         H            3.852418488337     1.135136178469     0.044135209428     1.007825032230
         H           -1.581510511663    -2.311225821531     0.350346209428     1.007825032230
         H            3.884275488337    -1.829648821531     0.924745209428     1.007825032230
         H            3.113185488337    -2.539356821531    -0.500404790572     1.007825032230
         H            4.367236488337    -1.301219821531    -0.690362790572     1.007825032230
         H            2.042115488337     2.850972178469     0.145591209428     1.007825032230
         H           -4.228618511663    -1.673617821531     0.153003209428     1.007825032230
         H           -4.245015511663     1.058867178469    -0.256036790572     1.007825032230

  Basis Set: AUG-CC-PVTZ
    Blend: AUG-CC-PVTZ
  Basis Set: (AUG-CC-PVTZ AUX)
    Blend: AUG-CC-PVTZ-JKFIT
	 Reference Energy          =    -513.3735204708095807 [Eh]
	 Singles Energy            =      -0.0000000000000000 [Eh]
	 Same-Spin Energy          =      -0.5590887749058222 [Eh]
	 Opposite-Spin Energy      =      -1.7141012398625992 [Eh]
	 Correlation Energy        =      -2.2731900147684216 [Eh]
	 Total Energy              =    -515.6467104855779553 [Eh]

	 ================> DF-SCS-MP2 Energies <==================
	-----------------------------------------------------------
	 SCS Same-Spin Scale       =       0.3333333333333333 [-]
	 SCS Opposite-Spin Scale   =       1.2000000000000000 [-]
	 SCS Same-Spin Energy      =      -0.1863629249686074 [Eh]
	 SCS Opposite-Spin Energy  =      -2.0569214878351190 [Eh]
	 SCS Correlation Energy    =      -2.2432844128037264 [Eh]
	 SCS Total Energy          =    -515.6168048836133266 [Eh]
	-----------------------------------------------------------

  Dipole Moment: [D]
     X:     1.4659      Y:    -2.4497      Z:    -0.0083     Total:     2.8549

*** Psi4 exiting successfully. Buy a developer a beer!
