                               Psi4 1.4a3.dev225

  ==> Input File <==

--------------------------------------------------------------------------
#psi4
#
memory 32 gb

molecule  {
0 1
  O       -2.2884155     1.0458389    -0.1817548
  N        0.4211910     1.5299470     0.0903790
  C        0.0817250     0.2107030     0.0159890
  C        2.4145630    -0.5010270    -0.0428790
  C       -1.3460660    -0.1139160     0.0206840
  C        1.0420520    -0.8182650    -0.0594370
  C        2.7641530     0.8636850     0.0360660
  C       -2.0477590    -1.2949740     0.1722820
  C        3.4684270    -1.5756500    -0.0824610
  C        1.7493340     1.8260270     0.0926910
  C       -3.4286880    -0.9658200     0.0768380
  C       -3.4828100     0.3886030    -0.1245500
  H        0.7225460    -1.8551450    -0.1446860
  H        3.8080070     1.1710760     0.0438400
  H       -1.6259220    -2.2752860     0.3500510
  H        3.8398640    -1.7937090     0.9244500
  H        3.0687740    -2.5034170    -0.5007000
  H        4.3228250    -1.2652800    -0.6906580
  H        1.9977040     2.8869120     0.1452960
  H       -4.2730300    -1.6376780     0.1527080
  H       -4.2894270     1.0948070    -0.2563320
units angstrom
no_reorient  #important for SAPT in psi4, default
symmetry c1  #important for SAPT in psi4, default
}

set PROPERTIES_ORIGIN ["COM"]
properties('MP2/aug-cc-pvtz', properties = ['dipole'])
--------------------------------------------------------------------------

    Molecular point group: c1
  Charge       = 0
  Multiplicity = 1
  Basis Set: AUG-CC-PVTZ
    Blend: AUG-CC-PVTZ
  Basis Set: (AUG-CC-PVTZ AUX)
    Blend: AUG-CC-PVTZ-JKFIT

    Orbital Energies [Eh]
    ---------------------

    Doubly Occupied:

       1A    -20.621309     2A    -15.562222     3A    -11.305265
       4A    -11.299035     5A    -11.295851     6A    -11.278092
       7A    -11.271729     8A    -11.254542     9A    -11.242182
      10A    -11.239457    11A    -11.237266    12A    -11.234287
      13A     -1.414904    14A     -1.243453    15A     -1.103861
      16A     -1.099687    17A     -1.052103    18A     -0.975676
      19A     -0.965534    20A     -0.863527    21A     -0.835012
      22A     -0.789177    23A     -0.768681    24A     -0.720381
      25A     -0.671593    26A     -0.667373    27A     -0.631646
      28A     -0.612149    29A     -0.591874    30A     -0.590205
      31A     -0.585269    32A     -0.565401    33A     -0.559023
      34A     -0.548203    35A     -0.538352    36A     -0.525221
      37A     -0.509451    38A     -0.417995    39A     -0.414146
      40A     -0.374304    41A     -0.361962    42A     -0.286652

  @DF-RHF Final Energy:  -513.35574846307293

   => Energetics <=

    Nuclear Repulsion Energy =            625.0627554787891995
    One-Electron Energy =               -1936.5889028662768396
    Two-Electron Energy =                 798.1703989244145987
    Total Energy =                       -513.3557484630729277
  Basis Set: (AUG-CC-PVTZ AUX)
    Blend: AUG-CC-PVTZ-RI
    Molecular point group: c1

    Geometry (in Angstrom), charge = 0, multiplicity = 1:

       Center              X                  Y                   Z               Mass
    ------------   -----------------  -----------------  -----------------  -----------------
         O           -2.235009027922     0.994550300860    -0.179524714747    15.994914619570
         N            0.474597472078     1.478658400860     0.092609085253    14.003074004430
         C            0.135131472078     0.159414400860     0.018219085253    12.000000000000
         C            2.467969472078    -0.552315599140    -0.040648914747    12.000000000000
         C           -1.292659527922    -0.165204599140     0.022914085253    12.000000000000
         C            1.095458472078    -0.869553599140    -0.057206914747    12.000000000000
         C            2.817559472078     0.812396400860     0.038296085253    12.000000000000
         C           -1.994352527922    -1.346262599140     0.174512085253    12.000000000000
         C            3.521833472078    -1.626938599140    -0.080230914747    12.000000000000
         C            1.802740472078     1.774738400860     0.094921085253    12.000000000000
         C           -3.375281527922    -1.017108599140     0.079068085253    12.000000000000
         C           -3.429403527922     0.337314400860    -0.122319914747    12.000000000000
         H            0.775952472078    -1.906433599140    -0.142455914747     1.007825032230
         H            3.861413472078     1.119787400860     0.046070085253     1.007825032230
         H           -1.572515527922    -2.326574599140     0.352281085253     1.007825032230
         H            3.893270472078    -1.844997599140     0.926680085253     1.007825032230
         H            3.122180472078    -2.554705599140    -0.498469914747     1.007825032230
         H            4.376231472078    -1.316568599140    -0.688427914747     1.007825032230
         H            2.051110472078     2.835623400860     0.147526085253     1.007825032230
         H           -4.219623527922    -1.688966599140     0.154938085253     1.007825032230
         H           -4.236020527922     1.043518400860    -0.254101914747     1.007825032230

  Basis Set: AUG-CC-PVTZ
    Blend: AUG-CC-PVTZ
  Basis Set: (AUG-CC-PVTZ AUX)
    Blend: AUG-CC-PVTZ-JKFIT
	 Reference Energy          =    -513.3557484630729277 [Eh]
	 Singles Energy            =      -0.0000000000000000 [Eh]
	 Same-Spin Energy          =      -0.5598484315293393 [Eh]
	 Opposite-Spin Energy      =      -1.7185279767459409 [Eh]
	 Correlation Energy        =      -2.2783764082752800 [Eh]
	 Total Energy              =    -515.6341248713482628 [Eh]

	 ================> DF-SCS-MP2 Energies <==================
	-----------------------------------------------------------
	 SCS Same-Spin Scale       =       0.3333333333333333 [-]
	 SCS Opposite-Spin Scale   =       1.2000000000000000 [-]
	 SCS Same-Spin Energy      =      -0.1866161438431131 [Eh]
	 SCS Opposite-Spin Energy  =      -2.0622335720951290 [Eh]
	 SCS Correlation Energy    =      -2.2488497159382419 [Eh]
	 SCS Total Energy          =    -515.6045981790111910 [Eh]
	-----------------------------------------------------------

  Dipole Moment: [D]
     X:     1.6256      Y:    -2.6985      Z:     0.0530     Total:     3.1507

*** Psi4 exiting successfully. Buy a developer a beer!
