                               Psi4 1.4a3.dev225

  ==> Input File <==

--------------------------------------------------------------------------
#psi4
#
memory 32 gb

molecule  {
0 1
  O       -2.2261580     0.9189870    -0.1609950
  N        0.4211910     1.5299470     0.0903790
  C        0.0817250     0.2107030     0.0159890
  C        2.4145630    -0.5010270    -0.0428790
  C       -1.3460660    -0.1139160     0.0206840
  C        1.0420520    -0.8182650    -0.0594370
  C        2.7641530     0.8636850     0.0360660
  C       -2.0477590    -1.2949740     0.1722820
  C        3.4684270    -1.5756500    -0.0824610
  C        1.7493340     1.8260270     0.0926910
  C       -3.4286880    -0.9658200     0.0768380
  C       -3.4828100     0.3886030    -0.1245500
  H        0.7225460    -1.8551450    -0.1446860
  H        3.8080070     1.1710760     0.0438400
  H       -1.6064272    -2.3205901     0.3582664
  H        3.8398640    -1.7937090     0.9244500
  H        3.0687740    -2.5034170    -0.5007000
  H        4.3228250    -1.2652800    -0.6906580
  H        1.9977040     2.8869120     0.1452960
  H       -4.2730300    -1.6376780     0.1527080
  H       -4.2894270     1.0948070    -0.2563320
units angstrom
no_reorient  #important for SAPT in psi4, default
symmetry c1  #important for SAPT in psi4, default
}

set PROPERTIES_ORIGIN ["COM"]
properties('MP2/aug-cc-pvtz', properties = ['dipole'])
--------------------------------------------------------------------------

    Molecular point group: c1
  Charge       = 0
  Multiplicity = 1
  Basis Set: AUG-CC-PVTZ
    Blend: AUG-CC-PVTZ
  Basis Set: (AUG-CC-PVTZ AUX)
    Blend: AUG-CC-PVTZ-JKFIT

    Orbital Energies [Eh]
    ---------------------

    Doubly Occupied:

       1A    -20.622264     2A    -15.563720     3A    -11.297637
       4A    -11.294445     5A    -11.293609     6A    -11.278697
       7A    -11.271780     8A    -11.244506     9A    -11.242417
      10A    -11.239449    11A    -11.238452    12A    -11.234435
      13A     -1.454290    14A     -1.244164    15A     -1.104230
      16A     -1.087155    17A     -1.057899    18A     -0.984123
      19A     -0.968029    20A     -0.862532    21A     -0.836171
      22A     -0.798138    23A     -0.761976    24A     -0.726310
      25A     -0.673117    26A     -0.668405    27A     -0.639587
      28A     -0.633972    29A     -0.599121    30A     -0.590577
      31A     -0.576402    32A     -0.563000    33A     -0.557353
      34A     -0.547536    35A     -0.540851    36A     -0.525373
      37A     -0.509757    38A     -0.417655    39A     -0.402764
      40A     -0.376048    41A     -0.362482    42A     -0.288098

  @DF-RHF Final Energy:  -513.37466903110055

   => Energetics <=

    Nuclear Repulsion Energy =            628.6921377634126884
    One-Electron Energy =               -1943.7765590231499573
    Two-Electron Energy =                 801.7097522286366029
    Total Energy =                       -513.3746690311005523
  Basis Set: (AUG-CC-PVTZ AUX)
    Blend: AUG-CC-PVTZ-RI
    Molecular point group: c1

    Geometry (in Angstrom), charge = 0, multiplicity = 1:

       Center              X                  Y                   Z               Mass
    ------------   -----------------  -----------------  -----------------  -----------------
         O           -2.179135263821     0.880740863941    -0.160904440162    15.994914619570
         N            0.468213736179     1.491700863941     0.090469559838    14.003074004430
         C            0.128747736179     0.172456863941     0.016079559838    12.000000000000
         C            2.461585736179    -0.539273136059    -0.042788440162    12.000000000000
         C           -1.299043263821    -0.152162136059     0.020774559838    12.000000000000
         C            1.089074736179    -0.856511136059    -0.059346440162    12.000000000000
         C            2.811175736179     0.825438863941     0.036156559838    12.000000000000
         C           -2.000736263821    -1.333220136059     0.172372559838    12.000000000000
         C            3.515449736179    -1.613896136059    -0.082370440162    12.000000000000
         C            1.796356736179     1.787780863941     0.092781559838    12.000000000000
         C           -3.381665263821    -1.004066136059     0.076928559838    12.000000000000
         C           -3.435787263821     0.350356863941    -0.124459440162    12.000000000000
         H            0.769568736179    -1.893391136059    -0.144595440162     1.007825032230
         H            3.855029736179     1.132829863941     0.043930559838     1.007825032230
         H           -1.559404463821    -2.358836236059     0.358356959838     1.007825032230
         H            3.886886736179    -1.831955136059     0.924540559838     1.007825032230
         H            3.115796736179    -2.541663136059    -0.500609440162     1.007825032230
         H            4.369847736179    -1.303526136059    -0.690567440162     1.007825032230
         H            2.044726736179     2.848665863941     0.145386559838     1.007825032230
         H           -4.226007263821    -1.675924136059     0.152798559838     1.007825032230
         H           -4.242404263821     1.056560863941    -0.256241440162     1.007825032230

  Basis Set: AUG-CC-PVTZ
    Blend: AUG-CC-PVTZ
  Basis Set: (AUG-CC-PVTZ AUX)
    Blend: AUG-CC-PVTZ-JKFIT
	 Reference Energy          =    -513.3746690311005523 [Eh]
	 Singles Energy            =      -0.0000000000000000 [Eh]
	 Same-Spin Energy          =      -0.5591849606517010 [Eh]
	 Opposite-Spin Energy      =      -1.7140424887904104 [Eh]
	 Correlation Energy        =      -2.2732274494421114 [Eh]
	 Total Energy              =    -515.6478964805426131 [Eh]

	 ================> DF-SCS-MP2 Energies <==================
	-----------------------------------------------------------
	 SCS Same-Spin Scale       =       0.3333333333333333 [-]
	 SCS Opposite-Spin Scale   =       1.2000000000000000 [-]
	 SCS Same-Spin Energy      =      -0.1863949868839003 [Eh]
	 SCS Opposite-Spin Energy  =      -2.0568509865484925 [Eh]
	 SCS Correlation Energy    =      -2.2432459734323928 [Eh]
	 SCS Total Energy          =    -515.6179150045329607 [Eh]
	-----------------------------------------------------------

  Dipole Moment: [D]
     X:     1.4733      Y:    -2.3705      Z:    -0.0051     Total:     2.7911

*** Psi4 exiting successfully. Buy a developer a beer!
