                               Psi4 1.4a3.dev225

  ==> Input File <==

--------------------------------------------------------------------------
#psi4
#
memory 32 gb

molecule  {
0 1
  O       -2.2261580     0.9189870    -0.1609950
  N        0.4211910     1.5299470     0.0903790
  C        0.0817250     0.2107030     0.0159890
  C        2.4145630    -0.5010270    -0.0428790
  C       -1.3460660    -0.1139160     0.0206840
  C        1.0420520    -0.8182650    -0.0594370
  C        2.7641530     0.8636850     0.0360660
  C       -2.0477590    -1.2949740     0.1722820
  C        3.4684270    -1.5756500    -0.0824610
  C        1.7493340     1.8260270     0.0926910
  C       -3.2345764    -1.0120878     0.0902542
  C       -3.4828100     0.3886030    -0.1245500
  H        0.7225460    -1.8551450    -0.1446860
  H        3.8080070     1.1710760     0.0438400
  H       -1.6259220    -2.2752860     0.3500510
  H        3.8398640    -1.7937090     0.9244500
  H        3.0687740    -2.5034170    -0.5007000
  H        4.3228250    -1.2652800    -0.6906580
  H        1.9977040     2.8869120     0.1452960
  H       -4.2730300    -1.6376780     0.1527080
  H       -4.2894270     1.0948070    -0.2563320
units angstrom
no_reorient  #important for SAPT in psi4, default
symmetry c1  #important for SAPT in psi4, default
}

set PROPERTIES_ORIGIN ["COM"]
properties('MP2/aug-cc-pvtz', properties = ['dipole'])
--------------------------------------------------------------------------

    Molecular point group: c1
  Charge       = 0
  Multiplicity = 1
  Basis Set: AUG-CC-PVTZ
    Blend: AUG-CC-PVTZ
  Basis Set: (AUG-CC-PVTZ AUX)
    Blend: AUG-CC-PVTZ-JKFIT

    Orbital Energies [Eh]
    ---------------------

    Doubly Occupied:

       1A    -20.633213     2A    -15.561392     3A    -11.296564
       4A    -11.295741     5A    -11.293643     6A    -11.277954
       7A    -11.271115     8A    -11.241090     9A    -11.238902
      10A    -11.236490    11A    -11.234466    12A    -11.221329
      13A     -1.461481    14A     -1.242768    15A     -1.132028
      16A     -1.102831    17A     -1.056126    18A     -0.977691
      19A     -0.967405    20A     -0.860726    21A     -0.840186
      22A     -0.789466    23A     -0.779384    24A     -0.728366
      25A     -0.671911    26A     -0.666589    27A     -0.642026
      28A     -0.638512    29A     -0.611602    30A     -0.593582
      31A     -0.589959    32A     -0.565636    33A     -0.554590
      34A     -0.545565    35A     -0.524739    36A     -0.516096
      37A     -0.500562    38A     -0.434526    39A     -0.415604
      40A     -0.373468    41A     -0.361568    42A     -0.270977

  @DF-RHF Final Energy:  -513.31003535300601

   => Energetics <=

    Nuclear Repulsion Energy =            632.1479851321871593
    One-Electron Energy =               -1950.4803048864439461
    Two-Electron Energy =                 805.0222844012507721
    Total Energy =                       -513.3100353530060147
  Basis Set: (AUG-CC-PVTZ AUX)
    Blend: AUG-CC-PVTZ-RI
    Molecular point group: c1

    Geometry (in Angstrom), charge = 0, multiplicity = 1:

       Center              X                  Y                   Z               Mass
    ------------   -----------------  -----------------  -----------------  -----------------
         O           -2.193655380013     0.883944233997    -0.161864496973    15.994914619570
         N            0.453693619987     1.494904233997     0.089509503027    14.003074004430
         C            0.114227619987     0.175660233997     0.015119503027    12.000000000000
         C            2.447065619987    -0.536069766003    -0.043748496973    12.000000000000
         C           -1.313563380013    -0.148958766003     0.019814503027    12.000000000000
         C            1.074554619987    -0.853307766003    -0.060306496973    12.000000000000
         C            2.796655619987     0.828642233997     0.035196503027    12.000000000000
         C           -2.015256380013    -1.330016766003     0.171412503027    12.000000000000
         C            3.500929619987    -1.610692766003    -0.083330496973    12.000000000000
         C            1.781836619987     1.790984233997     0.091821503027    12.000000000000
         C           -3.202073780013    -1.047130566003     0.089384703027    12.000000000000
         C           -3.450307380013     0.353560233997    -0.125419496973    12.000000000000
         H            0.755048619987    -1.890187766003    -0.145555496973     1.007825032230
         H            3.840509619987     1.136033233997     0.042970503027     1.007825032230
         H           -1.593419380013    -2.310328766003     0.349181503027     1.007825032230
         H            3.872366619987    -1.828751766003     0.923580503027     1.007825032230
         H            3.101276619987    -2.538459766003    -0.501569496973     1.007825032230
         H            4.355327619987    -1.300322766003    -0.691527496973     1.007825032230
         H            2.030206619987     2.851869233997     0.144426503027     1.007825032230
         H           -4.240527380013    -1.672720766003     0.151838503027     1.007825032230
         H           -4.256924380013     1.059764233997    -0.257201496973     1.007825032230

  Basis Set: AUG-CC-PVTZ
    Blend: AUG-CC-PVTZ
  Basis Set: (AUG-CC-PVTZ AUX)
    Blend: AUG-CC-PVTZ-JKFIT
	 Reference Energy          =    -513.3100353530060147 [Eh]
	 Singles Energy            =      -0.0000000000000000 [Eh]
	 Same-Spin Energy          =      -0.5647208074266239 [Eh]
	 Opposite-Spin Energy      =      -1.7209026524364770 [Eh]
	 Correlation Energy        =      -2.2856234598631007 [Eh]
	 Total Energy              =    -515.5956588128691465 [Eh]

	 ================> DF-SCS-MP2 Energies <==================
	-----------------------------------------------------------
	 SCS Same-Spin Scale       =       0.3333333333333333 [-]
	 SCS Opposite-Spin Scale   =       1.2000000000000000 [-]
	 SCS Same-Spin Energy      =      -0.1882402691422080 [Eh]
	 SCS Opposite-Spin Energy  =      -2.0650831829237721 [Eh]
	 SCS Correlation Energy    =      -2.2533234520659802 [Eh]
	 SCS Total Energy          =    -515.5633588050719709 [Eh]
	-----------------------------------------------------------

  Dipole Moment: [D]
     X:     1.3689      Y:    -2.3644      Z:    -0.0085     Total:     2.7321

*** Psi4 exiting successfully. Buy a developer a beer!
