                               Psi4 1.4a3.dev225

  ==> Input File <==

--------------------------------------------------------------------------
#psi4
#
memory 32 gb

molecule  {
0 1
  O       -2.2261580     0.9189870    -0.1609950
  N        0.4211910     1.5299470     0.0903790
  C        0.0817250     0.2107030     0.0159890
  C        2.4145630    -0.5010270    -0.0428790
  C       -1.3460660    -0.1139160     0.0206840
  C        1.0556785    -0.8328655    -0.0605073
  C        2.7641530     0.8636850     0.0360660
  C       -2.0477590    -1.2949740     0.1722820
  C        3.4684270    -1.5756500    -0.0824610
  C        1.7493340     1.8260270     0.0926910
  C       -3.4286880    -0.9658200     0.0768380
  C       -3.4828100     0.3886030    -0.1245500
  H        0.7225460    -1.8551450    -0.1446860
  H        3.8080070     1.1710760     0.0438400
  H       -1.6259220    -2.2752860     0.3500510
  H        3.8398640    -1.7937090     0.9244500
  H        3.0687740    -2.5034170    -0.5007000
  H        4.3228250    -1.2652800    -0.6906580
  H        1.9977040     2.8869120     0.1452960
  H       -4.2730300    -1.6376780     0.1527080
  H       -4.2894270     1.0948070    -0.2563320
units angstrom
no_reorient  #important for SAPT in psi4, default
symmetry c1  #important for SAPT in psi4, default
}

set PROPERTIES_ORIGIN ["COM"]
properties('MP2/aug-cc-pvtz', properties = ['dipole'])
--------------------------------------------------------------------------

    Molecular point group: c1
  Charge       = 0
  Multiplicity = 1
  Basis Set: AUG-CC-PVTZ
    Blend: AUG-CC-PVTZ
  Basis Set: (AUG-CC-PVTZ AUX)
    Blend: AUG-CC-PVTZ-JKFIT

    Orbital Energies [Eh]
    ---------------------

    Doubly Occupied:

       1A    -20.622377     2A    -15.563975     3A    -11.297942
       4A    -11.296891     5A    -11.293990     6A    -11.278446
       7A    -11.270195     8A    -11.242604     9A    -11.239807
      10A    -11.238478    11A    -11.238178    12A    -11.234424
      13A     -1.454442    14A     -1.243425    15A     -1.105276
      16A     -1.088215    17A     -1.056786    18A     -0.984375
      19A     -0.966620    20A     -0.864576    21A     -0.835277
      22A     -0.800966    23A     -0.765042    24A     -0.726977
      25A     -0.674254    26A     -0.667904    27A     -0.641024
      28A     -0.634130    29A     -0.599077    30A     -0.590095
      31A     -0.579459    32A     -0.566724    33A     -0.558932
      34A     -0.546292    35A     -0.540864    36A     -0.524357
      37A     -0.512029    38A     -0.416933    39A     -0.402795
      40A     -0.376074    41A     -0.362885    42A     -0.287562

  @DF-RHF Final Energy:  -513.37672316108558

   => Energetics <=

    Nuclear Repulsion Energy =            628.6972531866282452
    One-Electron Energy =               -1943.7665944851248696
    Two-Electron Energy =                 801.6926181374109319
    Total Energy =                       -513.3767231610855788
  Basis Set: (AUG-CC-PVTZ AUX)
    Blend: AUG-CC-PVTZ-RI
    Molecular point group: c1

    Geometry (in Angstrom), charge = 0, multiplicity = 1:

       Center              X                  Y                   Z               Mass
    ------------   -----------------  -----------------  -----------------  -----------------
         O           -2.180039721526     0.881555277003    -0.160771646446    15.994914619570
         N            0.467309278474     1.492515277003     0.090602353554    14.003074004430
         C            0.127843278474     0.173271277003     0.016212353554    12.000000000000
         C            2.460681278474    -0.538458722997    -0.042655646446    12.000000000000
         C           -1.299947721526    -0.151347722997     0.020907353554    12.000000000000
         C            1.101796778474    -0.870297222997    -0.060283946446    12.000000000000
         C            2.810271278474     0.826253277003     0.036289353554    12.000000000000
         C           -2.001640721526    -1.332405722997     0.172505353554    12.000000000000
         C            3.514545278474    -1.613081722997    -0.082237646446    12.000000000000
         C            1.795452278474     1.788595277003     0.092914353554    12.000000000000
         C           -3.382569721526    -1.003251722997     0.077061353554    12.000000000000
         C           -3.436691721526     0.351171277003    -0.124326646446    12.000000000000
         H            0.768664278474    -1.892576722997    -0.144462646446     1.007825032230
         H            3.854125278474     1.133644277003     0.044063353554     1.007825032230
         H           -1.579803721526    -2.312717722997     0.350274353554     1.007825032230
         H            3.885982278474    -1.831140722997     0.924673353554     1.007825032230
         H            3.114892278474    -2.540848722997    -0.500476646446     1.007825032230
         H            4.368943278474    -1.302711722997    -0.690434646446     1.007825032230
         H            2.043822278474     2.849480277003     0.145519353554     1.007825032230
         H           -4.226911721526    -1.675109722997     0.152931353554     1.007825032230
         H           -4.243308721526     1.057375277003    -0.256108646446     1.007825032230

  Basis Set: AUG-CC-PVTZ
    Blend: AUG-CC-PVTZ
  Basis Set: (AUG-CC-PVTZ AUX)
    Blend: AUG-CC-PVTZ-JKFIT
	 Reference Energy          =    -513.3767231610855788 [Eh]
	 Singles Energy            =      -0.0000000000000000 [Eh]
	 Same-Spin Energy          =      -0.5590302725453603 [Eh]
	 Opposite-Spin Energy      =      -1.7136108763730902 [Eh]
	 Correlation Energy        =      -2.2726411489184506 [Eh]
	 Total Energy              =    -515.6493643100039890 [Eh]

	 ================> DF-SCS-MP2 Energies <==================
	-----------------------------------------------------------
	 SCS Same-Spin Scale       =       0.3333333333333333 [-]
	 SCS Opposite-Spin Scale   =       1.2000000000000000 [-]
	 SCS Same-Spin Energy      =      -0.1863434241817868 [Eh]
	 SCS Opposite-Spin Energy  =      -2.0563330516477083 [Eh]
	 SCS Correlation Energy    =      -2.2426764758294953 [Eh]
	 SCS Total Energy          =    -515.6193996369150909 [Eh]
	-----------------------------------------------------------

  Dipole Moment: [D]
     X:     1.4365      Y:    -2.3711      Z:    -0.0049     Total:     2.7723

*** Psi4 exiting successfully. Buy a developer a beer!
