                               Psi4 1.4a3.dev225

  ==> Input File <==

--------------------------------------------------------------------------
#psi4
#
memory 32 gb

molecule  {
0 1
  O       -2.2261580     0.9189870    -0.1609950
  N        0.4211910     1.5299470     0.0903790
  C        0.0817250     0.2107030     0.0159890
  C        2.5593597    -0.5299390    -0.0461298
  C       -1.3460660    -0.1139160     0.0206840
  C        1.0420520    -0.8182650    -0.0594370
  C        2.7641530     0.8636850     0.0360660
  C       -2.0477590    -1.2949740     0.1722820
  C        3.4684270    -1.5756500    -0.0824610
  C        1.7493340     1.8260270     0.0926910
  C       -3.4286880    -0.9658200     0.0768380
  C       -3.4828100     0.3886030    -0.1245500
  H        0.7225460    -1.8551450    -0.1446860
  H        3.8080070     1.1710760     0.0438400
  H       -1.6259220    -2.2752860     0.3500510
  H        3.8398640    -1.7937090     0.9244500
  H        3.0687740    -2.5034170    -0.5007000
  H        4.3228250    -1.2652800    -0.6906580
  H        1.9977040     2.8869120     0.1452960
  H       -4.2730300    -1.6376780     0.1527080
  H       -4.2894270     1.0948070    -0.2563320
units angstrom
no_reorient  #important for SAPT in psi4, default
symmetry c1  #important for SAPT in psi4, default
}

set PROPERTIES_ORIGIN ["COM"]
properties('MP2/aug-cc-pvtz', properties = ['dipole'])
--------------------------------------------------------------------------

    Molecular point group: c1
  Charge       = 0
  Multiplicity = 1
  Basis Set: AUG-CC-PVTZ
    Blend: AUG-CC-PVTZ
  Basis Set: (AUG-CC-PVTZ AUX)
    Blend: AUG-CC-PVTZ-JKFIT

    Orbital Energies [Eh]
    ---------------------

    Doubly Occupied:

       1A    -20.619693     2A    -15.563450     3A    -11.295426
       4A    -11.290804     5A    -11.289935     6A    -11.283726
       7A    -11.282396     8A    -11.252017     9A    -11.241165
      10A    -11.239151    11A    -11.235006    12A    -11.231433
      13A     -1.451601    14A     -1.240327    15A     -1.115366
      16A     -1.085135    17A     -1.054457    18A     -0.989835
      19A     -0.970881    20A     -0.857166    21A     -0.832679
      22A     -0.797666    23A     -0.762208    24A     -0.727634
      25A     -0.671220    26A     -0.665391    27A     -0.646123
      28A     -0.631726    29A     -0.606683    30A     -0.598364
      31A     -0.583495    32A     -0.575502    33A     -0.563528
      34A     -0.560182    35A     -0.537172    36A     -0.520883
      37A     -0.480355    38A     -0.419748    39A     -0.400461
      40A     -0.375773    41A     -0.346678    42A     -0.285265

  @DF-RHF Final Energy:  -513.34506412131111

   => Energetics <=

    Nuclear Repulsion Energy =            627.3830444576270793
    One-Electron Energy =               -1941.1008116893485749
    Two-Electron Energy =                 800.3727031104104981
    Total Energy =                       -513.3450641213111112
  Basis Set: (AUG-CC-PVTZ AUX)
    Blend: AUG-CC-PVTZ-RI
    Molecular point group: c1

    Geometry (in Angstrom), charge = 0, multiplicity = 1:

       Center              X                  Y                   Z               Mass
    ------------   -----------------  -----------------  -----------------  -----------------
         O           -2.189935101515     0.882634925663    -0.160607151187    15.994914619570
         N            0.457413898485     1.493594925663     0.090766848813    14.003074004430
         C            0.117947898485     0.174350925663     0.016376848813    12.000000000000
         C            2.595582598485    -0.566291074337    -0.045741951187    12.000000000000
         C           -1.309843101515    -0.150268074337     0.021071848813    12.000000000000
         C            1.078274898485    -0.854617074337    -0.059049151187    12.000000000000
         C            2.800375898485     0.827332925663     0.036453848813    12.000000000000
         C           -2.011536101515    -1.331326074337     0.172669848813    12.000000000000
         C            3.504649898485    -1.612002074337    -0.082073151187    12.000000000000
         C            1.785556898485     1.789674925663     0.093078848813    12.000000000000
         C           -3.392465101515    -1.002172074337     0.077225848813    12.000000000000
         C           -3.446587101515     0.352250925663    -0.124162151187    12.000000000000
         H            0.758768898485    -1.891497074337    -0.144298151187     1.007825032230
         H            3.844229898485     1.134723925663     0.044227848813     1.007825032230
         H           -1.589699101515    -2.311638074337     0.350438848813     1.007825032230
         H            3.876086898485    -1.830061074337     0.924837848813     1.007825032230
         H            3.104996898485    -2.539769074337    -0.500312151187     1.007825032230
         H            4.359047898485    -1.301632074337    -0.690270151187     1.007825032230
         H            2.033926898485     2.850559925663     0.145683848813     1.007825032230
         H           -4.236807101515    -1.674030074337     0.153095848813     1.007825032230
         H           -4.253204101515     1.058454925663    -0.255944151187     1.007825032230

  Basis Set: AUG-CC-PVTZ
    Blend: AUG-CC-PVTZ
  Basis Set: (AUG-CC-PVTZ AUX)
    Blend: AUG-CC-PVTZ-JKFIT
	 Reference Energy          =    -513.3450641213111112 [Eh]
	 Singles Energy            =      -0.0000000000000000 [Eh]
	 Same-Spin Energy          =      -0.5611044847966640 [Eh]
	 Opposite-Spin Energy      =      -1.7173549825195100 [Eh]
	 Correlation Energy        =      -2.2784594673161740 [Eh]
	 Total Energy              =    -515.6235235886273358 [Eh]

	 ================> DF-SCS-MP2 Energies <==================
	-----------------------------------------------------------
	 SCS Same-Spin Scale       =       0.3333333333333333 [-]
	 SCS Opposite-Spin Scale   =       1.2000000000000000 [-]
	 SCS Same-Spin Energy      =      -0.1870348282655546 [Eh]
	 SCS Opposite-Spin Energy  =      -2.0608259790234120 [Eh]
	 SCS Correlation Energy    =      -2.2478608072889665 [Eh]
	 SCS Total Energy          =    -515.5929249286000413 [Eh]
	-----------------------------------------------------------

  Dipole Moment: [D]
     X:     1.7950      Y:    -2.5412      Z:     0.0015     Total:     3.1113

*** Psi4 exiting successfully. Buy a developer a beer!
