                               Psi4 1.4a3.dev225

  ==> Input File <==

--------------------------------------------------------------------------
#psi4
#
memory 32 gb

molecule  {
0 1
  O       -2.2261580     0.9189870    -0.1609950
  N        0.4211910     1.5299470     0.0903790
  C        0.0817250     0.2107030     0.0159890
  C        2.4145630    -0.5010270    -0.0428790
  C       -1.3460660    -0.1139160     0.0206840
  C        1.0420520    -0.8182650    -0.0594370
  C        2.7641530     0.8636850     0.0360660
  C       -2.0477590    -1.2949740     0.1722820
  C        3.4684270    -1.5756500    -0.0824610
  C        1.6043290     1.9635337     0.1007820
  C       -3.4286880    -0.9658200     0.0768380
  C       -3.4828100     0.3886030    -0.1245500
  H        0.7225460    -1.8551450    -0.1446860
  H        3.8080070     1.1710760     0.0438400
  H       -1.6259220    -2.2752860     0.3500510
  H        3.8398640    -1.7937090     0.9244500
  H        3.0687740    -2.5034170    -0.5007000
  H        4.3228250    -1.2652800    -0.6906580
  H        1.9977040     2.8869120     0.1452960
  H       -4.2730300    -1.6376780     0.1527080
  H       -4.2894270     1.0948070    -0.2563320
units angstrom
no_reorient  #important for SAPT in psi4, default
symmetry c1  #important for SAPT in psi4, default
}

set PROPERTIES_ORIGIN ["COM"]
properties('MP2/aug-cc-pvtz', properties = ['dipole'])
--------------------------------------------------------------------------

    Molecular point group: c1
  Charge       = 0
  Multiplicity = 1
  Basis Set: AUG-CC-PVTZ
    Blend: AUG-CC-PVTZ
  Basis Set: (AUG-CC-PVTZ AUX)
    Blend: AUG-CC-PVTZ-JKFIT

    Orbital Energies [Eh]
    ---------------------

    Doubly Occupied:

       1A    -20.620549     2A    -15.561038     3A    -11.297092
       4A    -11.294348     5A    -11.290410     6A    -11.288311
       7A    -11.264873     8A    -11.249352     9A    -11.245980
      10A    -11.236029    11A    -11.235476    12A    -11.232437
      13A     -1.452685    14A     -1.264880    15A     -1.105948
      16A     -1.084635    17A     -1.057156    18A     -0.975680
      19A     -0.953917    20A     -0.874261    21A     -0.835541
      22A     -0.801433    23A     -0.763383    24A     -0.727648
      25A     -0.691517    26A     -0.666300    27A     -0.646982
      28A     -0.633149    29A     -0.597594    30A     -0.586763
      31A     -0.573071    32A     -0.565831    33A     -0.555834
      34A     -0.547232    35A     -0.539663    36A     -0.531851
      37A     -0.520238    38A     -0.401613    39A     -0.390590
      40A     -0.381512    41A     -0.361679    42A     -0.275900

  @DF-RHF Final Energy:  -513.33981811145031

   => Energetics <=

    Nuclear Repulsion Energy =            627.9046205910673280
    One-Electron Energy =               -1942.1281188459850000
    Two-Electron Energy =                 800.8836801434672452
    Total Energy =                       -513.3398181114503132
  Basis Set: (AUG-CC-PVTZ AUX)
    Blend: AUG-CC-PVTZ-RI
    Molecular point group: c1

    Geometry (in Angstrom), charge = 0, multiplicity = 1:

       Center              X                  Y                   Z               Mass
    ------------   -----------------  -----------------  -----------------  -----------------
         O           -2.168072681979     0.870080425679    -0.161462767941    15.994914619570
         N            0.479276318021     1.481040425679     0.089911232059    14.003074004430
         C            0.139810318021     0.161796425679     0.015521232059    12.000000000000
         C            2.472648318021    -0.549933574321    -0.043346767941    12.000000000000
         C           -1.287980681979    -0.162822574321     0.020216232059    12.000000000000
         C            1.100137318021    -0.867171574321    -0.059904767941    12.000000000000
         C            2.822238318021     0.814778425679     0.035598232059    12.000000000000
         C           -1.989673681979    -1.343880574321     0.171814232059    12.000000000000
         C            3.526512318021    -1.624556574321    -0.082928767941    12.000000000000
         C            1.662414318021     1.914627125679     0.100314232059    12.000000000000
         C           -3.370602681979    -1.014726574321     0.076370232059    12.000000000000
         C           -3.424724681979     0.339696425679    -0.125017767941    12.000000000000
         H            0.780631318021    -1.904051574321    -0.145153767941     1.007825032230
         H            3.866092318021     1.122169425679     0.043372232059     1.007825032230
         H           -1.567836681979    -2.324192574321     0.349583232059     1.007825032230
         H            3.897949318021    -1.842615574321     0.923982232059     1.007825032230
         H            3.126859318021    -2.552323574321    -0.501167767941     1.007825032230
         H            4.380910318021    -1.314186574321    -0.691125767941     1.007825032230
         H            2.055789318021     2.838005425679     0.144828232059     1.007825032230
         H           -4.214944681979    -1.686584574321     0.152240232059     1.007825032230
         H           -4.231341681979     1.045900425679    -0.256799767941     1.007825032230

  Basis Set: AUG-CC-PVTZ
    Blend: AUG-CC-PVTZ
  Basis Set: (AUG-CC-PVTZ AUX)
    Blend: AUG-CC-PVTZ-JKFIT
	 Reference Energy          =    -513.3398181114503132 [Eh]
	 Singles Energy            =      -0.0000000000000000 [Eh]
	 Same-Spin Energy          =      -0.5584345151296427 [Eh]
	 Opposite-Spin Energy      =      -1.7145168141500791 [Eh]
	 Correlation Energy        =      -2.2729513292797217 [Eh]
	 Total Energy              =    -515.6127694407300623 [Eh]

	 ================> DF-SCS-MP2 Energies <==================
	-----------------------------------------------------------
	 SCS Same-Spin Scale       =       0.3333333333333333 [-]
	 SCS Opposite-Spin Scale   =       1.2000000000000000 [-]
	 SCS Same-Spin Energy      =      -0.1861448383765476 [Eh]
	 SCS Opposite-Spin Energy  =      -2.0574201769800946 [Eh]
	 SCS Correlation Energy    =      -2.2435650153566420 [Eh]
	 SCS Total Energy          =    -515.5833831268070071 [Eh]
	-----------------------------------------------------------

  Dipole Moment: [D]
     X:     1.3693      Y:    -1.9878      Z:     0.0162     Total:     2.4139

*** Psi4 exiting successfully. Buy a developer a beer!
