                               Psi4 1.4a3.dev225

  ==> Input File <==

--------------------------------------------------------------------------
#psi4
#
memory 32 gb

molecule  {
0 1
  O       -2.2261580     0.9189870    -0.1609950
  N        0.4211910     1.5299470     0.0903790
  C        0.0817250     0.2107030     0.0159890
  C        2.4145630    -0.5010270    -0.0428790
  C       -1.3460660    -0.1139160     0.0206840
  C        1.0420520    -0.8182650    -0.0594370
  C        2.7641530     0.8636850     0.0360660
  C       -2.0477590    -1.2949740     0.1722820
  C        3.4684270    -1.5756500    -0.0824610
  C        1.7493340     1.8260270     0.0926910
  C       -3.4286880    -0.9658200     0.0768380
  C       -3.4749112     0.1909322    -0.0951585
  H        0.7225460    -1.8551450    -0.1446860
  H        3.8080070     1.1710760     0.0438400
  H       -1.6259220    -2.2752860     0.3500510
  H        3.8398640    -1.7937090     0.9244500
  H        3.0687740    -2.5034170    -0.5007000
  H        4.3228250    -1.2652800    -0.6906580
  H        1.9977040     2.8869120     0.1452960
  H       -4.2730300    -1.6376780     0.1527080
  H       -4.2894270     1.0948070    -0.2563320
units angstrom
no_reorient  #important for SAPT in psi4, default
symmetry c1  #important for SAPT in psi4, default
}

set PROPERTIES_ORIGIN ["COM"]
properties('MP2/aug-cc-pvtz', properties = ['dipole'])
--------------------------------------------------------------------------

    Molecular point group: c1
  Charge       = 0
  Multiplicity = 1
  Basis Set: AUG-CC-PVTZ
    Blend: AUG-CC-PVTZ
  Basis Set: (AUG-CC-PVTZ AUX)
    Blend: AUG-CC-PVTZ-JKFIT

    Orbital Energies [Eh]
    ---------------------

    Doubly Occupied:

       1A    -20.605469     2A    -15.565128     3A    -11.298671
       4A    -11.293217     5A    -11.278901     6A    -11.277786
       7A    -11.271980     8A    -11.243447     9A    -11.240020
      10A    -11.239791    11A    -11.235942    12A    -11.210869
      13A     -1.428421    14A     -1.244321    15A     -1.131768
      16A     -1.104141    17A     -1.060233    18A     -0.984304
      19A     -0.966962    20A     -0.870460    21A     -0.833356
      22A     -0.784271    23A     -0.764462    24A     -0.717876
      25A     -0.673912    26A     -0.665390    27A     -0.632651
      28A     -0.626164    29A     -0.599913    30A     -0.590868
      31A     -0.581324    32A     -0.563687    33A     -0.550952
      34A     -0.546959    35A     -0.526290    36A     -0.517071
      37A     -0.506645    38A     -0.430929    39A     -0.417773
      40A     -0.382396    41A     -0.363894    42A     -0.298141

  @DF-RHF Final Energy:  -513.30986412829634

   => Energetics <=

    Nuclear Repulsion Energy =            630.9202085840580594
    One-Electron Energy =               -1948.2066295423385327
    Two-Electron Energy =                 803.9765568299840197
    Total Energy =                       -513.3098641282963399
  Basis Set: (AUG-CC-PVTZ AUX)
    Blend: AUG-CC-PVTZ-RI
    Molecular point group: c1

    Geometry (in Angstrom), charge = 0, multiplicity = 1:

       Center              X                  Y                   Z               Mass
    ------------   -----------------  -----------------  -----------------  -----------------
         O           -2.179607628200     0.895365961009    -0.163069661439    15.994914619570
         N            0.467741371800     1.506325961009     0.088304338561    14.003074004430
         C            0.128275371800     0.187081961009     0.013914338561    12.000000000000
         C            2.461113371800    -0.524648038991    -0.044953661439    12.000000000000
         C           -1.299515628200    -0.137537038991     0.018609338561    12.000000000000
         C            1.088602371800    -0.841886038991    -0.061511661439    12.000000000000
         C            2.810703371800     0.840063961009     0.033991338561    12.000000000000
         C           -2.001208628200    -1.318595038991     0.170207338561    12.000000000000
         C            3.514977371800    -1.599271038991    -0.084535661439    12.000000000000
         C            1.795884371800     1.802405961009     0.090616338561    12.000000000000
         C           -3.382137628200    -0.989441038991     0.074763338561    12.000000000000
         C           -3.428360828200     0.167311161009    -0.097233161439    12.000000000000
         H            0.769096371800    -1.878766038991    -0.146760661439     1.007825032230
         H            3.854557371800     1.147454961009     0.041765338561     1.007825032230
         H           -1.579371628200    -2.298907038991     0.347976338561     1.007825032230
         H            3.886414371800    -1.817330038991     0.922375338561     1.007825032230
         H            3.115324371800    -2.527038038991    -0.502774661439     1.007825032230
         H            4.369375371800    -1.288901038991    -0.692732661439     1.007825032230
         H            2.044254371800     2.863290961009     0.143221338561     1.007825032230
         H           -4.226479628200    -1.661299038991     0.150633338561     1.007825032230
         H           -4.242876628200     1.071185961009    -0.258406661439     1.007825032230

  Basis Set: AUG-CC-PVTZ
    Blend: AUG-CC-PVTZ
  Basis Set: (AUG-CC-PVTZ AUX)
    Blend: AUG-CC-PVTZ-JKFIT
	 Reference Energy          =    -513.3098641282963399 [Eh]
	 Singles Energy            =      -0.0000000000000000 [Eh]
	 Same-Spin Energy          =      -0.5580005401510272 [Eh]
	 Opposite-Spin Energy      =      -1.7137716867421495 [Eh]
	 Correlation Energy        =      -2.2717722268931766 [Eh]
	 Total Energy              =    -515.5816363551895165 [Eh]

	 ================> DF-SCS-MP2 Energies <==================
	-----------------------------------------------------------
	 SCS Same-Spin Scale       =       0.3333333333333333 [-]
	 SCS Opposite-Spin Scale   =       1.2000000000000000 [-]
	 SCS Same-Spin Energy      =      -0.1860001800503424 [Eh]
	 SCS Opposite-Spin Energy  =      -2.0565260240905792 [Eh]
	 SCS Correlation Energy    =      -2.2425262041409217 [Eh]
	 SCS Total Energy          =    -515.5523903324373123 [Eh]
	-----------------------------------------------------------

  Dipole Moment: [D]
     X:     1.4121      Y:    -2.7264      Z:     0.0465     Total:     3.0707

*** Psi4 exiting successfully. Buy a developer a beer!
