                               Psi4 1.4a3.dev225

  ==> Input File <==

--------------------------------------------------------------------------
#psi4
#
memory 32 gb

molecule  {
0 1
  O       -2.2261580     0.9189870    -0.1609950
  N        0.4211910     1.5299470     0.0903790
  C        0.0817250     0.2107030     0.0159890
  C        2.4145630    -0.5010270    -0.0428790
  C       -1.3460660    -0.1139160     0.0206840
  C        1.0420520    -0.8182650    -0.0594370
  C        2.7641530     0.8636850     0.0360660
  C       -2.0477590    -1.2949740     0.1722820
  C        3.4684270    -1.5756500    -0.0824610
  C        1.7493340     1.8260270     0.0926910
  C       -3.4286880    -0.9658200     0.0768380
  C       -3.4828100     0.3886030    -0.1245500
  H        0.7225460    -1.8551450    -0.1446860
  H        3.8080070     1.1710760     0.0438400
  H       -1.6259220    -2.2752860     0.3500510
  H        3.8398640    -1.7937090     0.9244500
  H        3.0687740    -2.5034170    -0.5007000
  H        4.3228250    -1.2652800    -0.6906580
  H        1.9977040     2.8869120     0.1452960
  H       -4.2730300    -1.6376780     0.1527080
  H       -4.4387799     1.2255675    -0.2807327
units angstrom
no_reorient  #important for SAPT in psi4, default
symmetry c1  #important for SAPT in psi4, default
}

set PROPERTIES_ORIGIN ["COM"]
properties('MP2/aug-cc-pvtz', properties = ['dipole'])
--------------------------------------------------------------------------

    Molecular point group: c1
  Charge       = 0
  Multiplicity = 1
  Basis Set: AUG-CC-PVTZ
    Blend: AUG-CC-PVTZ
  Basis Set: (AUG-CC-PVTZ AUX)
    Blend: AUG-CC-PVTZ-JKFIT

    Orbital Energies [Eh]
    ---------------------

    Doubly Occupied:

       1A    -20.623847     2A    -15.563907     3A    -11.313140
       4A    -11.297960     5A    -11.294853     6A    -11.278913
       7A    -11.272053     8A    -11.242752     9A    -11.240086
      10A    -11.239628    11A    -11.238624    12A    -11.235241
      13A     -1.455362    14A     -1.244396    15A     -1.104470
      16A     -1.088961    17A     -1.057014    18A     -0.980532
      19A     -0.967532    20A     -0.861590    21A     -0.832913
      22A     -0.796988    23A     -0.764048    24A     -0.716245
      25A     -0.672114    26A     -0.665523    27A     -0.635465
      28A     -0.631919    29A     -0.593478    30A     -0.590762
      31A     -0.575259    32A     -0.566132    33A     -0.557687
      34A     -0.546084    35A     -0.528872    36A     -0.524451
      37A     -0.510047    38A     -0.417853    39A     -0.403477
      40A     -0.376392    41A     -0.362770    42A     -0.288285

  @DF-RHF Final Energy:  -513.35380629765973

   => Energetics <=

    Nuclear Repulsion Energy =            627.9759297576771360
    One-Electron Energy =               -1942.3442214398139640
    Two-Electron Energy =                 801.0144853844769841
    Total Energy =                       -513.3538062976597303
  Basis Set: (AUG-CC-PVTZ AUX)
    Blend: AUG-CC-PVTZ-RI
    Molecular point group: c1

    Geometry (in Angstrom), charge = 0, multiplicity = 1:

       Center              X                  Y                   Z               Mass
    ------------   -----------------  -----------------  -----------------  -----------------
         O           -2.178065479226     0.879625354540    -0.160697791204    15.994914619570
         N            0.469283520774     1.490585354540     0.090676208796    14.003074004430
         C            0.129817520774     0.171341354540     0.016286208796    12.000000000000
         C            2.462655520774    -0.540388645460    -0.042581791204    12.000000000000
         C           -1.297973479226    -0.153277645460     0.020981208796    12.000000000000
         C            1.090144520774    -0.857626645460    -0.059139791204    12.000000000000
         C            2.812245520774     0.824323354540     0.036363208796    12.000000000000
         C           -1.999666479226    -1.334335645460     0.172579208796    12.000000000000
         C            3.516519520774    -1.615011645460    -0.082163791204    12.000000000000
         C            1.797426520774     1.786665354540     0.092988208796    12.000000000000
         C           -3.380595479226    -1.005181645460     0.077135208796    12.000000000000
         C           -3.434717479226     0.349241354540    -0.124252791204    12.000000000000
         H            0.770638520774    -1.894506645460    -0.144388791204     1.007825032230
         H            3.856099520774     1.131714354540     0.044137208796     1.007825032230
         H           -1.577829479226    -2.314647645460     0.350348208796     1.007825032230
         H            3.887956520774    -1.833070645460     0.924747208796     1.007825032230
         H            3.116866520774    -2.542778645460    -0.500402791204     1.007825032230
         H            4.370917520774    -1.304641645460    -0.690360791204     1.007825032230
         H            2.045796520774     2.847550354540     0.145593208796     1.007825032230
         H           -4.224937479226    -1.677039645460     0.153005208796     1.007825032230
         H           -4.390687379226     1.186205854540    -0.280435491204     1.007825032230

  Basis Set: AUG-CC-PVTZ
    Blend: AUG-CC-PVTZ
  Basis Set: (AUG-CC-PVTZ AUX)
    Blend: AUG-CC-PVTZ-JKFIT
	 Reference Energy          =    -513.3538062976597303 [Eh]
	 Singles Energy            =      -0.0000000000000000 [Eh]
	 Same-Spin Energy          =      -0.5596581505291706 [Eh]
	 Opposite-Spin Energy      =      -1.7159578195512906 [Eh]
	 Correlation Energy        =      -2.2756159700804610 [Eh]
	 Total Energy              =    -515.6294222677402104 [Eh]

	 ================> DF-SCS-MP2 Energies <==================
	-----------------------------------------------------------
	 SCS Same-Spin Scale       =       0.3333333333333333 [-]
	 SCS Opposite-Spin Scale   =       1.2000000000000000 [-]
	 SCS Same-Spin Energy      =      -0.1865527168430569 [Eh]
	 SCS Opposite-Spin Energy  =      -2.0591493834615484 [Eh]
	 SCS Correlation Energy    =      -2.2457021003046052 [Eh]
	 SCS Total Energy          =    -515.5995083979643141 [Eh]
	-----------------------------------------------------------

  Dipole Moment: [D]
     X:     1.4977      Y:    -2.3608      Z:    -0.0057     Total:     2.7958

*** Psi4 exiting successfully. Buy a developer a beer!
