                               Psi4 1.4a3.dev225

  ==> Input File <==

--------------------------------------------------------------------------
#psi4
#
memory 32 gb

molecule  {
0 1
  O       -2.2261580     0.9189870    -0.1609950
  N        0.4211910     1.5299470     0.0903790
  C        0.0817250     0.2107030     0.0159890
  C        2.4145630    -0.5010270    -0.0428790
  C       -1.3460660    -0.1139160     0.0206840
  C        1.0420520    -0.8182650    -0.0594370
  C        2.7641530     0.8636850     0.0360660
  C       -2.0477590    -1.2949740     0.1722820
  C        3.4684270    -1.5756500    -0.0824610
  C        1.7493340     1.8260270     0.0926910
  C       -3.4286880    -0.9658200     0.0768380
  C       -3.4828100     0.3886030    -0.1245500
  H        0.7225460    -1.8551450    -0.1446860
  H        3.8080070     1.1710760     0.0438400
  H       -1.5869325    -2.3658942     0.3664818
  H        3.8398640    -1.7937090     0.9244500
  H        3.0687740    -2.5034170    -0.5007000
  H        4.3228250    -1.2652800    -0.6906580
  H        1.9977040     2.8869120     0.1452960
  H       -4.2730300    -1.6376780     0.1527080
  H       -4.2894270     1.0948070    -0.2563320
units angstrom
no_reorient  #important for SAPT in psi4, default
symmetry c1  #important for SAPT in psi4, default
}

set PROPERTIES_ORIGIN ["COM"]
properties('MP2/aug-cc-pvtz', properties = ['dipole'])
--------------------------------------------------------------------------

    Molecular point group: c1
  Charge       = 0
  Multiplicity = 1
  Basis Set: AUG-CC-PVTZ
    Blend: AUG-CC-PVTZ
  Basis Set: (AUG-CC-PVTZ AUX)
    Blend: AUG-CC-PVTZ-JKFIT

    Orbital Energies [Eh]
    ---------------------

    Doubly Occupied:

       1A    -20.622668     2A    -15.563730     3A    -11.298050
       4A    -11.294444     5A    -11.293978     6A    -11.278659
       7A    -11.271703     8A    -11.249829     9A    -11.242310
      10A    -11.239404    11A    -11.238432    12A    -11.235005
      13A     -1.454676    14A     -1.244152    15A     -1.104176
      16A     -1.086678    17A     -1.058024    18A     -0.983999
      19A     -0.967964    20A     -0.862079    21A     -0.836190
      22A     -0.796689    23A     -0.759407    24A     -0.724785
      25A     -0.673077    26A     -0.668149    27A     -0.639515
      28A     -0.634319    29A     -0.598829    30A     -0.590535
      31A     -0.575297    32A     -0.561238    33A     -0.552436
      34A     -0.547419    35A     -0.541007    36A     -0.525375
      37A     -0.509648    38A     -0.417653    39A     -0.403094
      40A     -0.376146    41A     -0.362439    42A     -0.288289

  @DF-RHF Final Energy:  -513.36957680517366

   => Energetics <=

    Nuclear Repulsion Energy =            628.4657030722540867
    One-Electron Energy =               -1943.3275681011323286
    Two-Electron Energy =                 801.4922882237044632
    Total Energy =                       -513.3695768051736650
  Basis Set: (AUG-CC-PVTZ AUX)
    Blend: AUG-CC-PVTZ-RI
    Molecular point group: c1

    Geometry (in Angstrom), charge = 0, multiplicity = 1:

       Center              X                  Y                   Z               Mass
    ------------   -----------------  -----------------  -----------------  -----------------
         O           -2.179258778265     0.881027901480    -0.160956491261    15.994914619570
         N            0.468090221735     1.491987901480     0.090417508739    14.003074004430
         C            0.128624221735     0.172743901480     0.016027508739    12.000000000000
         C            2.461462221735    -0.538986098520    -0.042840491261    12.000000000000
         C           -1.299166778265    -0.151875098520     0.020722508739    12.000000000000
         C            1.088951221735    -0.856224098520    -0.059398491261    12.000000000000
         C            2.811052221735     0.825725901480     0.036104508739    12.000000000000
         C           -2.000859778265    -1.332933098520     0.172320508739    12.000000000000
         C            3.515326221735    -1.613609098520    -0.082422491261    12.000000000000
         C            1.796233221735     1.788067901480     0.092729508739    12.000000000000
         C           -3.381788778265    -1.003779098520     0.076876508739    12.000000000000
         C           -3.435910778265     0.350643901480    -0.124511491261    12.000000000000
         H            0.769445221735    -1.893104098520    -0.144647491261     1.007825032230
         H            3.854906221735     1.133116901480     0.043878508739     1.007825032230
         H           -1.540033278265    -2.403853298520     0.366520308739     1.007825032230
         H            3.886763221735    -1.831668098520     0.924488508739     1.007825032230
         H            3.115673221735    -2.541376098520    -0.500661491261     1.007825032230
         H            4.369724221735    -1.303239098520    -0.690619491261     1.007825032230
         H            2.044603221735     2.848952901480     0.145334508739     1.007825032230
         H           -4.226130778265    -1.675637098520     0.152746508739     1.007825032230
         H           -4.242527778265     1.056847901480    -0.256293491261     1.007825032230

  Basis Set: AUG-CC-PVTZ
    Blend: AUG-CC-PVTZ
  Basis Set: (AUG-CC-PVTZ AUX)
    Blend: AUG-CC-PVTZ-JKFIT
	 Reference Energy          =    -513.3695768051736650 [Eh]
	 Singles Energy            =      -0.0000000000000000 [Eh]
	 Same-Spin Energy          =      -0.5593106914692072 [Eh]
	 Opposite-Spin Energy      =      -1.7145599860406615 [Eh]
	 Correlation Energy        =      -2.2738706775098687 [Eh]
	 Total Energy              =    -515.6434474826835412 [Eh]

	 ================> DF-SCS-MP2 Energies <==================
	-----------------------------------------------------------
	 SCS Same-Spin Scale       =       0.3333333333333333 [-]
	 SCS Opposite-Spin Scale   =       1.2000000000000000 [-]
	 SCS Same-Spin Energy      =      -0.1864368971564024 [Eh]
	 SCS Opposite-Spin Energy  =      -2.0574719832487935 [Eh]
	 SCS Correlation Energy    =      -2.2439088804051961 [Eh]
	 SCS Total Energy          =    -515.6134856855788939 [Eh]
	-----------------------------------------------------------

  Dipole Moment: [D]
     X:     1.4627      Y:    -2.3664      Z:    -0.0059     Total:     2.7820

*** Psi4 exiting successfully. Buy a developer a beer!
