                               Psi4 1.4a3.dev225

  ==> Input File <==

--------------------------------------------------------------------------
#psi4
#
memory 32 gb

molecule  {
0 1
  O       -2.2261580     0.9189870    -0.1609950
  N        0.4211910     1.5299470     0.0903790
  C        0.0817250     0.2107030     0.0159890
  C        2.4145630    -0.5010270    -0.0428790
  C       -1.3460660    -0.1139160     0.0206840
  C        1.0420520    -0.8182650    -0.0594370
  C        2.7641530     0.8636850     0.0360660
  C       -2.0477590    -1.2949740     0.1722820
  C        3.4684270    -1.5756500    -0.0824610
  C        1.7493340     1.8260270     0.0926910
  C       -3.4286880    -0.9658200     0.0768380
  C       -3.6255924     0.3750146    -0.1264826
  H        0.7225460    -1.8551450    -0.1446860
  H        3.8080070     1.1710760     0.0438400
  H       -1.6259220    -2.2752860     0.3500510
  H        3.8398640    -1.7937090     0.9244500
  H        3.0687740    -2.5034170    -0.5007000
  H        4.3228250    -1.2652800    -0.6906580
  H        1.9977040     2.8869120     0.1452960
  H       -4.2730300    -1.6376780     0.1527080
  H       -4.2894270     1.0948070    -0.2563320
units angstrom
no_reorient  #important for SAPT in psi4, default
symmetry c1  #important for SAPT in psi4, default
}

set PROPERTIES_ORIGIN ["COM"]
properties('MP2/aug-cc-pvtz', properties = ['dipole'])
--------------------------------------------------------------------------

    Molecular point group: c1
  Charge       = 0
  Multiplicity = 1
  Basis Set: AUG-CC-PVTZ
    Blend: AUG-CC-PVTZ
  Basis Set: (AUG-CC-PVTZ AUX)
    Blend: AUG-CC-PVTZ-JKFIT

    Orbital Energies [Eh]
    ---------------------

    Doubly Occupied:

       1A    -20.600896     2A    -15.566485     3A    -11.303899
       4A    -11.295098     5A    -11.289791     6A    -11.279923
       7A    -11.273318     8A    -11.246056     9A    -11.245789
      10A    -11.241749    11A    -11.240728    12A    -11.234439
      13A     -1.403630    14A     -1.245214    15A     -1.106108
      16A     -1.080558    17A     -1.057599    18A     -0.984890
      19A     -0.969017    20A     -0.868470    21A     -0.840006
      22A     -0.797047    23A     -0.759632    24A     -0.724579
      25A     -0.675217    26A     -0.671917    27A     -0.638162
      28A     -0.607606    29A     -0.605669    30A     -0.590783
      31A     -0.577908    32A     -0.569126    33A     -0.556174
      34A     -0.549666    35A     -0.524296    36A     -0.522670
      37A     -0.508693    38A     -0.418907    39A     -0.398536
      40A     -0.377476    41A     -0.364028    42A     -0.292357

  @DF-RHF Final Energy:  -513.35111690729764

   => Energetics <=

    Nuclear Repulsion Energy =            625.8713613392144453
    One-Electron Energy =               -1938.2367325237833029
    Two-Electron Energy =                 799.0142542772712204
    Total Energy =                       -513.3511169072976372
  Basis Set: (AUG-CC-PVTZ AUX)
    Blend: AUG-CC-PVTZ-RI
    Molecular point group: c1

    Geometry (in Angstrom), charge = 0, multiplicity = 1:

       Center              X                  Y                   Z               Mass
    ------------   -----------------  -----------------  -----------------  -----------------
         O           -2.168240353230     0.881478924950    -0.160706595191    15.994914619570
         N            0.479108646770     1.492438924950     0.090667404809    14.003074004430
         C            0.139642646770     0.173194924950     0.016277404809    12.000000000000
         C            2.472480646770    -0.538535075050    -0.042590595191    12.000000000000
         C           -1.288148353230    -0.151424075050     0.020972404809    12.000000000000
         C            1.099969646770    -0.855773075050    -0.059148595191    12.000000000000
         C            2.822070646770     0.826176924950     0.036354404809    12.000000000000
         C           -1.989841353230    -1.332482075050     0.172570404809    12.000000000000
         C            3.526344646770    -1.613158075050    -0.082172595191    12.000000000000
         C            1.807251646770     1.788518924950     0.092979404809    12.000000000000
         C           -3.370770353230    -1.003328075050     0.077126404809    12.000000000000
         C           -3.567674753230     0.337506524950    -0.126194195191    12.000000000000
         H            0.780463646770    -1.892653075050    -0.144397595191     1.007825032230
         H            3.865924646770     1.133567924950     0.044128404809     1.007825032230
         H           -1.568004353230    -2.312794075050     0.350339404809     1.007825032230
         H            3.897781646770    -1.831217075050     0.924738404809     1.007825032230
         H            3.126691646770    -2.540925075050    -0.500411595191     1.007825032230
         H            4.380742646770    -1.302788075050    -0.690369595191     1.007825032230
         H            2.055621646770     2.849403924950     0.145584404809     1.007825032230
         H           -4.215112353230    -1.675186075050     0.152996404809     1.007825032230
         H           -4.231509353230     1.057298924950    -0.256043595191     1.007825032230

  Basis Set: AUG-CC-PVTZ
    Blend: AUG-CC-PVTZ
  Basis Set: (AUG-CC-PVTZ AUX)
    Blend: AUG-CC-PVTZ-JKFIT
	 Reference Energy          =    -513.3511169072976372 [Eh]
	 Singles Energy            =      -0.0000000000000000 [Eh]
	 Same-Spin Energy          =      -0.5596775989733407 [Eh]
	 Opposite-Spin Energy      =      -1.7174670204555800 [Eh]
	 Correlation Energy        =      -2.2771446194289204 [Eh]
	 Total Energy              =    -515.6282615267265328 [Eh]

	 ================> DF-SCS-MP2 Energies <==================
	-----------------------------------------------------------
	 SCS Same-Spin Scale       =       0.3333333333333333 [-]
	 SCS Opposite-Spin Scale   =       1.2000000000000000 [-]
	 SCS Same-Spin Energy      =      -0.1865591996577802 [Eh]
	 SCS Opposite-Spin Energy  =      -2.0609604245466957 [Eh]
	 SCS Correlation Energy    =      -2.2475196242044757 [Eh]
	 SCS Total Energy          =    -515.5986365315021658 [Eh]
	-----------------------------------------------------------

  Dipole Moment: [D]
     X:     1.4930      Y:    -2.4401      Z:     0.0066     Total:     2.8606

*** Psi4 exiting successfully. Buy a developer a beer!
