                               Psi4 1.4a3.dev225

  ==> Input File <==

--------------------------------------------------------------------------
#psi4
#
memory 32 gb

molecule  {
0 1
  O       -2.2261580     0.9189870    -0.1609950
  N        0.4211910     1.5299470     0.0903790
  C        0.0817250     0.2107030     0.0159890
  C        2.4145630    -0.5010270    -0.0428790
  C       -1.4742836    -0.0484026     0.0066351
  C        1.0420520    -0.8182650    -0.0594370
  C        2.7641530     0.8636850     0.0360660
  C       -2.0477590    -1.2949740     0.1722820
  C        3.4684270    -1.5756500    -0.0824610
  C        1.7493340     1.8260270     0.0926910
  C       -3.4286880    -0.9658200     0.0768380
  C       -3.4828100     0.3886030    -0.1245500
  H        0.7225460    -1.8551450    -0.1446860
  H        3.8080070     1.1710760     0.0438400
  H       -1.6259220    -2.2752860     0.3500510
  H        3.8398640    -1.7937090     0.9244500
  H        3.0687740    -2.5034170    -0.5007000
  H        4.3228250    -1.2652800    -0.6906580
  H        1.9977040     2.8869120     0.1452960
  H       -4.2730300    -1.6376780     0.1527080
  H       -4.2894270     1.0948070    -0.2563320
units angstrom
no_reorient  #important for SAPT in psi4, default
symmetry c1  #important for SAPT in psi4, default
}

set PROPERTIES_ORIGIN ["COM"]
properties('MP2/aug-cc-pvtz', properties = ['dipole'])
--------------------------------------------------------------------------

    Molecular point group: c1
  Charge       = 0
  Multiplicity = 1
  Basis Set: AUG-CC-PVTZ
    Blend: AUG-CC-PVTZ
  Basis Set: (AUG-CC-PVTZ AUX)
    Blend: AUG-CC-PVTZ-JKFIT

    Orbital Energies [Eh]
    ---------------------

    Doubly Occupied:

       1A    -20.640260     2A    -15.563539     3A    -11.303300
       4A    -11.297786     5A    -11.283399     6A    -11.278255
       7A    -11.272219     8A    -11.243137     9A    -11.239606
      10A    -11.238682    11A    -11.236669    12A    -11.225508
      13A     -1.521421    14A     -1.241805    15A     -1.104557
      16A     -1.093975    17A     -1.048792    18A     -0.989925
      19A     -0.968383    20A     -0.855043    21A     -0.832208
      22A     -0.815750    23A     -0.774565    24A     -0.729145
      25A     -0.674078    26A     -0.671955    27A     -0.664835
      28A     -0.640689    29A     -0.608178    30A     -0.590833
      31A     -0.584969    32A     -0.573380    33A     -0.558271
      34A     -0.548213    35A     -0.532918    36A     -0.523194
      37A     -0.491633    38A     -0.417184    39A     -0.402582
      40A     -0.369979    41A     -0.360283    42A     -0.291546

  @DF-RHF Final Energy:  -513.35694733979119

   => Energetics <=

    Nuclear Repulsion Energy =            629.7370224655525135
    One-Electron Energy =               -1945.5826433691672719
    Two-Electron Energy =                 802.4886735638236814
    Total Energy =                       -513.3569473397911906
  Basis Set: (AUG-CC-PVTZ AUX)
    Blend: AUG-CC-PVTZ-RI
    Molecular point group: c1

    Geometry (in Angstrom), charge = 0, multiplicity = 1:

       Center              X                  Y                   Z               Mass
    ------------   -----------------  -----------------  -----------------  -----------------
         O           -2.169339110650     0.875511545401    -0.159792550747    15.994914619570
         N            0.478009889350     1.486471545401     0.091581449253    14.003074004430
         C            0.138543889350     0.167227545401     0.017191449253    12.000000000000
         C            2.471381889350    -0.544502454599    -0.041676550747    12.000000000000
         C           -1.417464710650    -0.091878054599     0.007837549253    12.000000000000
         C            1.098870889350    -0.861740454599    -0.058234550747    12.000000000000
         C            2.820971889350     0.820209545401     0.037268449253    12.000000000000
         C           -1.990940110650    -1.338449454599     0.173484449253    12.000000000000
         C            3.525245889350    -1.619125454599    -0.081258550747    12.000000000000
         C            1.806152889350     1.782551545401     0.093893449253    12.000000000000
         C           -3.371869110650    -1.009295454599     0.078040449253    12.000000000000
         C           -3.425991110650     0.345127545401    -0.123347550747    12.000000000000
         H            0.779364889350    -1.898620454599    -0.143483550747     1.007825032230
         H            3.864825889350     1.127600545401     0.045042449253     1.007825032230
         H           -1.569103110650    -2.318761454599     0.351253449253     1.007825032230
         H            3.896682889350    -1.837184454599     0.925652449253     1.007825032230
         H            3.125592889350    -2.546892454599    -0.499497550747     1.007825032230
         H            4.379643889350    -1.308755454599    -0.689455550747     1.007825032230
         H            2.054522889350     2.843436545401     0.146498449253     1.007825032230
         H           -4.216211110650    -1.681153454599     0.153910449253     1.007825032230
         H           -4.232608110650     1.051331545401    -0.255129550747     1.007825032230

  Basis Set: AUG-CC-PVTZ
    Blend: AUG-CC-PVTZ
  Basis Set: (AUG-CC-PVTZ AUX)
    Blend: AUG-CC-PVTZ-JKFIT
	 Reference Energy          =    -513.3569473397911906 [Eh]
	 Singles Energy            =      -0.0000000000000000 [Eh]
	 Same-Spin Energy          =      -0.5577982594722741 [Eh]
	 Opposite-Spin Energy      =      -1.7101305946100263 [Eh]
	 Correlation Energy        =      -2.2679288540823004 [Eh]
	 Total Energy              =    -515.6248761938735470 [Eh]

	 ================> DF-SCS-MP2 Energies <==================
	-----------------------------------------------------------
	 SCS Same-Spin Scale       =       0.3333333333333333 [-]
	 SCS Opposite-Spin Scale   =       1.2000000000000000 [-]
	 SCS Same-Spin Energy      =      -0.1859327531574247 [Eh]
	 SCS Opposite-Spin Energy  =      -2.0521567135320313 [Eh]
	 SCS Correlation Energy    =      -2.2380894666894560 [Eh]
	 SCS Total Energy          =    -515.5950368064806071 [Eh]
	-----------------------------------------------------------

  Dipole Moment: [D]
     X:     1.4137      Y:    -2.2262      Z:    -0.0329     Total:     2.6373

*** Psi4 exiting successfully. Buy a developer a beer!
