                               Psi4 1.4a3.dev225

  ==> Input File <==

--------------------------------------------------------------------------
#psi4
#
memory 32 gb

molecule  {
0 1
  O       -2.2261580     0.9189870    -0.1609950
  N        0.4211910     1.5299470     0.0903790
  C        0.1747175     0.1903393     0.0137122
  C        2.4145630    -0.5010270    -0.0428790
  C       -1.3460660    -0.1139160     0.0206840
  C        1.0420520    -0.8182650    -0.0594370
  C        2.7641530     0.8636850     0.0360660
  C       -2.0477590    -1.2949740     0.1722820
  C        3.4684270    -1.5756500    -0.0824610
  C        1.7493340     1.8260270     0.0926910
  C       -3.4286880    -0.9658200     0.0768380
  C       -3.4828100     0.3886030    -0.1245500
  H        0.7225460    -1.8551450    -0.1446860
  H        3.8080070     1.1710760     0.0438400
  H       -1.6259220    -2.2752860     0.3500510
  H        3.8398640    -1.7937090     0.9244500
  H        3.0687740    -2.5034170    -0.5007000
  H        4.3228250    -1.2652800    -0.6906580
  H        1.9977040     2.8869120     0.1452960
  H       -4.2730300    -1.6376780     0.1527080
  H       -4.2894270     1.0948070    -0.2563320
units angstrom
no_reorient  #important for SAPT in psi4, default
symmetry c1  #important for SAPT in psi4, default
}

set PROPERTIES_ORIGIN ["COM"]
properties('MP2/aug-cc-pvtz', properties = ['dipole'])
--------------------------------------------------------------------------

    Molecular point group: c1
  Charge       = 0
  Multiplicity = 1
  Basis Set: AUG-CC-PVTZ
    Blend: AUG-CC-PVTZ
  Basis Set: (AUG-CC-PVTZ AUX)
    Blend: AUG-CC-PVTZ-JKFIT

    Orbital Energies [Eh]
    ---------------------

    Doubly Occupied:

       1A    -20.618685     2A    -15.566994     3A    -11.297461
       4A    -11.292022     5A    -11.287250     6A    -11.282027
       7A    -11.276509     8A    -11.242099     9A    -11.240275
      10A    -11.236878    11A    -11.231251    12A    -11.229198
      13A     -1.449012    14A     -1.252249    15A     -1.110822
      16A     -1.081818    17A     -1.055763    18A     -0.982704
      19A     -0.976663    20A     -0.856497    21A     -0.836620
      22A     -0.795936    23A     -0.761566    24A     -0.725054
      25A     -0.676939    26A     -0.674533    27A     -0.637248
      28A     -0.628460    29A     -0.598258    30A     -0.594070
      31A     -0.576443    32A     -0.561935    33A     -0.559601
      34A     -0.549265    35A     -0.536585    36A     -0.532021
      37A     -0.497318    38A     -0.430054    39A     -0.397913
      40A     -0.372851    41A     -0.368595    42A     -0.291853

  @DF-RHF Final Energy:  -513.36911737341620

   => Energetics <=

    Nuclear Repulsion Energy =            629.0790801047055538
    One-Electron Energy =               -1944.5578032867372258
    Two-Electron Energy =                 802.1096058086154699
    Total Energy =                       -513.3691173734162021
  Basis Set: (AUG-CC-PVTZ AUX)
    Blend: AUG-CC-PVTZ-RI
    Molecular point group: c1

    Geometry (in Angstrom), charge = 0, multiplicity = 1:

       Center              X                  Y                   Z               Mass
    ------------   -----------------  -----------------  -----------------  -----------------
         O           -2.186027032121     0.881990048422    -0.160680629005    15.994914619570
         N            0.461321967879     1.492950048422     0.090693370995    14.003074004430
         C            0.214848467879     0.153342348422     0.014026570995    12.000000000000
         C            2.454693967879    -0.538023951578    -0.042564629005    12.000000000000
         C           -1.305935032121    -0.150912951578     0.020998370995    12.000000000000
         C            1.082182967879    -0.855261951578    -0.059122629005    12.000000000000
         C            2.804283967879     0.826688048422     0.036380370995    12.000000000000
         C           -2.007628032121    -1.331970951578     0.172596370995    12.000000000000
         C            3.508557967879    -1.612646951578    -0.082146629005    12.000000000000
         C            1.789464967879     1.789030048422     0.093005370995    12.000000000000
         C           -3.388557032121    -1.002816951578     0.077152370995    12.000000000000
         C           -3.442679032121     0.351606048422    -0.124235629005    12.000000000000
         H            0.762676967879    -1.892141951578    -0.144371629005     1.007825032230
         H            3.848137967879     1.134079048422     0.044154370995     1.007825032230
         H           -1.585791032121    -2.312282951578     0.350365370995     1.007825032230
         H            3.879994967879    -1.830705951578     0.924764370995     1.007825032230
         H            3.108904967879    -2.540413951578    -0.500385629005     1.007825032230
         H            4.362955967879    -1.302276951578    -0.690343629005     1.007825032230
         H            2.037834967879     2.849915048422     0.145610370995     1.007825032230
         H           -4.232899032121    -1.674674951578     0.153022370995     1.007825032230
         H           -4.249296032121     1.057810048422    -0.256017629005     1.007825032230

  Basis Set: AUG-CC-PVTZ
    Blend: AUG-CC-PVTZ
  Basis Set: (AUG-CC-PVTZ AUX)
    Blend: AUG-CC-PVTZ-JKFIT
	 Reference Energy          =    -513.3691173734162021 [Eh]
	 Singles Energy            =      -0.0000000000000000 [Eh]
	 Same-Spin Energy          =      -0.5581411554500559 [Eh]
	 Opposite-Spin Energy      =      -1.7128008429501818 [Eh]
	 Correlation Energy        =      -2.2709419984002377 [Eh]
	 Total Energy              =    -515.6400593718163918 [Eh]

	 ================> DF-SCS-MP2 Energies <==================
	-----------------------------------------------------------
	 SCS Same-Spin Scale       =       0.3333333333333333 [-]
	 SCS Opposite-Spin Scale   =       1.2000000000000000 [-]
	 SCS Same-Spin Energy      =      -0.1860470518166853 [Eh]
	 SCS Opposite-Spin Energy  =      -2.0553610115402181 [Eh]
	 SCS Correlation Energy    =      -2.2414080633569036 [Eh]
	 SCS Total Energy          =    -515.6105254367730595 [Eh]
	-----------------------------------------------------------

  Dipole Moment: [D]
     X:     1.9497      Y:    -2.2850      Z:    -0.0105     Total:     3.0038

*** Psi4 exiting successfully. Buy a developer a beer!
