                               Psi4 1.4a3.dev225

  ==> Input File <==

--------------------------------------------------------------------------
#psi4
#
memory 32 gb

molecule  {
0 1
  O       -2.2261580     0.9189870    -0.1609950
  N        0.4211910     1.5299470     0.0903790
  C        0.0817250     0.2107030     0.0159890
  C        2.4145630    -0.5010270    -0.0428790
  C       -1.2647752    -0.1648306     0.0309829
  C        1.0420520    -0.8182650    -0.0594370
  C        2.7641530     0.8636850     0.0360660
  C       -2.0477590    -1.2949740     0.1722820
  C        3.4684270    -1.5756500    -0.0824610
  C        1.7493340     1.8260270     0.0926910
  C       -3.4286880    -0.9658200     0.0768380
  C       -3.4828100     0.3886030    -0.1245500
  H        0.7225460    -1.8551450    -0.1446860
  H        3.8080070     1.1710760     0.0438400
  H       -1.6259220    -2.2752860     0.3500510
  H        3.8398640    -1.7937090     0.9244500
  H        3.0687740    -2.5034170    -0.5007000
  H        4.3228250    -1.2652800    -0.6906580
  H        1.9977040     2.8869120     0.1452960
  H       -4.2730300    -1.6376780     0.1527080
  H       -4.2894270     1.0948070    -0.2563320
units angstrom
no_reorient  #important for SAPT in psi4, default
symmetry c1  #important for SAPT in psi4, default
}

set PROPERTIES_ORIGIN ["COM"]
properties('MP2/aug-cc-pvtz', properties = ['dipole'])
--------------------------------------------------------------------------

    Molecular point group: c1
  Charge       = 0
  Multiplicity = 1
  Basis Set: AUG-CC-PVTZ
    Blend: AUG-CC-PVTZ
  Basis Set: (AUG-CC-PVTZ AUX)
    Blend: AUG-CC-PVTZ-JKFIT

    Orbital Energies [Eh]
    ---------------------

    Doubly Occupied:

       1A    -20.609500     2A    -15.563488     3A    -11.299691
       4A    -11.296311     5A    -11.290915     6A    -11.278914
       7A    -11.271346     8A    -11.249159     9A    -11.241775
      10A    -11.239209    11A    -11.237857    12A    -11.233211
      13A     -1.420121    14A     -1.245647    15A     -1.103927
      16A     -1.090224    17A     -1.063008    18A     -0.981899
      19A     -0.967356    20A     -0.871064    21A     -0.840139
      22A     -0.790634    23A     -0.761756    24A     -0.725122
      25A     -0.673151    26A     -0.670208    27A     -0.640716
      28A     -0.616143    29A     -0.599441    30A     -0.590045
      31A     -0.579415    32A     -0.563984    33A     -0.559075
      34A     -0.545929    35A     -0.531556    36A     -0.526209
      37A     -0.513473    38A     -0.416806    39A     -0.406706
      40A     -0.378212    41A     -0.363119    42A     -0.284624

  @DF-RHF Final Energy:  -513.36281246906549

   => Energetics <=

    Nuclear Repulsion Energy =            628.5902171367584970
    One-Electron Energy =               -1943.6438848707803118
    Two-Electron Energy =                 801.6908552649564399
    Total Energy =                       -513.3628124690654886
  Basis Set: (AUG-CC-PVTZ AUX)
    Blend: AUG-CC-PVTZ-RI
    Molecular point group: c1

    Geometry (in Angstrom), charge = 0, multiplicity = 1:

       Center              X                  Y                   Z               Mass
    ------------   -----------------  -----------------  -----------------  -----------------
         O           -2.185144264785     0.884294785050    -0.161629330236    15.994914619570
         N            0.462204735215     1.495254785050     0.089744669764    14.003074004430
         C            0.122738735215     0.176010785050     0.015354669764    12.000000000000
         C            2.455576735215    -0.535719214950    -0.043513330236    12.000000000000
         C           -1.223761464785    -0.199522814950     0.030348569764    12.000000000000
         C            1.083065735215    -0.852957214950    -0.060071330236    12.000000000000
         C            2.805166735215     0.828992785050     0.035431669764    12.000000000000
         C           -2.006745264785    -1.329666214950     0.171647669764    12.000000000000
         C            3.509440735215    -1.610342214950    -0.083095330236    12.000000000000
         C            1.790347735215     1.791334785050     0.092056669764    12.000000000000
         C           -3.387674264785    -1.000512214950     0.076203669764    12.000000000000
         C           -3.441796264785     0.353910785050    -0.125184330236    12.000000000000
         H            0.763559735215    -1.889837214950    -0.145320330236     1.007825032230
         H            3.849020735215     1.136383785050     0.043205669764     1.007825032230
         H           -1.584908264785    -2.309978214950     0.349416669764     1.007825032230
         H            3.880877735215    -1.828401214950     0.923815669764     1.007825032230
         H            3.109787735215    -2.538109214950    -0.501334330236     1.007825032230
         H            4.363838735215    -1.299972214950    -0.691292330236     1.007825032230
         H            2.038717735215     2.852219785050     0.144661669764     1.007825032230
         H           -4.232016264785    -1.672370214950     0.152073669764     1.007825032230
         H           -4.248413264785     1.060114785050    -0.256966330236     1.007825032230

  Basis Set: AUG-CC-PVTZ
    Blend: AUG-CC-PVTZ
  Basis Set: (AUG-CC-PVTZ AUX)
    Blend: AUG-CC-PVTZ-JKFIT
	 Reference Energy          =    -513.3628124690654886 [Eh]
	 Singles Energy            =      -0.0000000000000000 [Eh]
	 Same-Spin Energy          =      -0.5605379030541762 [Eh]
	 Opposite-Spin Energy      =      -1.7169269799766935 [Eh]
	 Correlation Energy        =      -2.2774648830308699 [Eh]
	 Total Energy              =    -515.6402773520964047 [Eh]

	 ================> DF-SCS-MP2 Energies <==================
	-----------------------------------------------------------
	 SCS Same-Spin Scale       =       0.3333333333333333 [-]
	 SCS Opposite-Spin Scale   =       1.2000000000000000 [-]
	 SCS Same-Spin Energy      =      -0.1868459676847254 [Eh]
	 SCS Opposite-Spin Energy  =      -2.0603123759720323 [Eh]
	 SCS Correlation Energy    =      -2.2471583436567575 [Eh]
	 SCS Total Energy          =    -515.6099708127222812 [Eh]
	-----------------------------------------------------------

  Dipole Moment: [D]
     X:     1.5607      Y:    -2.4515      Z:     0.0130     Total:     2.9061

*** Psi4 exiting successfully. Buy a developer a beer!
