                               Psi4 1.4a3.dev225

  ==> Input File <==

--------------------------------------------------------------------------
#psi4
#
memory 32 gb

molecule  {
0 1
  O       -2.2261580     0.9189870    -0.1609950
  N        0.4211910     1.5299470     0.0903790
  C        0.0817250     0.2107030     0.0159890
  C        2.3998025    -0.5163903    -0.0274955
  C       -1.3460660    -0.1139160     0.0206840
  C        1.0420520    -0.8182650    -0.0594370
  C        2.7641530     0.8636850     0.0360660
  C       -2.0477590    -1.2949740     0.1722820
  C        3.4684270    -1.5756500    -0.0824610
  C        1.7493340     1.8260270     0.0926910
  C       -3.4286880    -0.9658200     0.0768380
  C       -3.4828100     0.3886030    -0.1245500
  H        0.7225460    -1.8551450    -0.1446860
  H        3.8080070     1.1710760     0.0438400
  H       -1.6259220    -2.2752860     0.3500510
  H        3.8398640    -1.7937090     0.9244500
  H        3.0687740    -2.5034170    -0.5007000
  H        4.3228250    -1.2652800    -0.6906580
  H        1.9977040     2.8869120     0.1452960
  H       -4.2730300    -1.6376780     0.1527080
  H       -4.2894270     1.0948070    -0.2563320
units angstrom
no_reorient  #important for SAPT in psi4, default
symmetry c1  #important for SAPT in psi4, default
}

set PROPERTIES_ORIGIN ["COM"]
properties('MP2/aug-cc-pvtz', properties = ['dipole'])
--------------------------------------------------------------------------

    Molecular point group: c1
  Charge       = 0
  Multiplicity = 1
  Basis Set: AUG-CC-PVTZ
    Blend: AUG-CC-PVTZ
  Basis Set: (AUG-CC-PVTZ AUX)
    Blend: AUG-CC-PVTZ-JKFIT

    Orbital Energies [Eh]
    ---------------------

    Doubly Occupied:

       1A    -20.622217     2A    -15.563450     3A    -11.297662
       4A    -11.295195     5A    -11.293811     6A    -11.277566
       7A    -11.271616     8A    -11.241063     9A    -11.239592
      10A    -11.239577    11A    -11.239434    12A    -11.234253
      13A     -1.454283    14A     -1.244039    15A     -1.104341
      16A     -1.088109    17A     -1.057879    18A     -0.984251
      19A     -0.968432    20A     -0.863779    21A     -0.835211
      22A     -0.800304    23A     -0.765395    24A     -0.728326
      25A     -0.673121    26A     -0.668019    27A     -0.639583
      28A     -0.633932    29A     -0.599893    30A     -0.590610
      31A     -0.579221    32A     -0.566430    33A     -0.558821
      34A     -0.549530    35A     -0.539723    36A     -0.525291
      37A     -0.509050    38A     -0.417273    39A     -0.402645
      40A     -0.374474    41A     -0.364370    42A     -0.288019

  @DF-RHF Final Energy:  -513.37683869857642

   => Energetics <=

    Nuclear Repulsion Energy =            628.9954234406494606
    One-Electron Energy =               -1944.3649462855089496
    Two-Electron Energy =                 801.9926841462831817
    Total Energy =                       -513.3768386985764209
  Basis Set: (AUG-CC-PVTZ AUX)
    Blend: AUG-CC-PVTZ-RI
    Molecular point group: c1

    Geometry (in Angstrom), charge = 0, multiplicity = 1:

       Center              X                  Y                   Z               Mass
    ------------   -----------------  -----------------  -----------------  -----------------
         O           -2.177898227865     0.881612822054    -0.162012908587    15.994914619570
         N            0.469450772135     1.492572822054     0.089361091413    14.003074004430
         C            0.129984772135     0.173328822054     0.014971091413    12.000000000000
         C            2.448062272135    -0.553764477946    -0.028513408587    12.000000000000
         C           -1.297806227865    -0.151290177946     0.019666091413    12.000000000000
         C            1.090311772135    -0.855639177946    -0.060454908587    12.000000000000
         C            2.812412772135     0.826310822054     0.035048091413    12.000000000000
         C           -1.999499227865    -1.332348177946     0.171264091413    12.000000000000
         C            3.516686772135    -1.613024177946    -0.083478908587    12.000000000000
         C            1.797593772135     1.788652822054     0.091673091413    12.000000000000
         C           -3.380428227865    -1.003194177946     0.075820091413    12.000000000000
         C           -3.434550227865     0.351228822054    -0.125567908587    12.000000000000
         H            0.770805772135    -1.892519177946    -0.145703908587     1.007825032230
         H            3.856266772135     1.133701822054     0.042822091413     1.007825032230
         H           -1.577662227865    -2.312660177946     0.349033091413     1.007825032230
         H            3.888123772135    -1.831083177946     0.923432091413     1.007825032230
         H            3.117033772135    -2.540791177946    -0.501717908587     1.007825032230
         H            4.371084772135    -1.302654177946    -0.691675908587     1.007825032230
         H            2.045963772135     2.849537822054     0.144278091413     1.007825032230
         H           -4.224770227865    -1.675052177946     0.151690091413     1.007825032230
         H           -4.241167227865     1.057432822054    -0.257349908587     1.007825032230

  Basis Set: AUG-CC-PVTZ
    Blend: AUG-CC-PVTZ
  Basis Set: (AUG-CC-PVTZ AUX)
    Blend: AUG-CC-PVTZ-JKFIT
	 Reference Energy          =    -513.3768386985764209 [Eh]
	 Singles Energy            =      -0.0000000000000000 [Eh]
	 Same-Spin Energy          =      -0.5590297750552180 [Eh]
	 Opposite-Spin Energy      =      -1.7136078486032909 [Eh]
	 Correlation Energy        =      -2.2726376236585089 [Eh]
	 Total Energy              =    -515.6494763222349320 [Eh]

	 ================> DF-SCS-MP2 Energies <==================
	-----------------------------------------------------------
	 SCS Same-Spin Scale       =       0.3333333333333333 [-]
	 SCS Opposite-Spin Scale   =       1.2000000000000000 [-]
	 SCS Same-Spin Energy      =      -0.1863432583517393 [Eh]
	 SCS Opposite-Spin Energy  =      -2.0563294183239491 [Eh]
	 SCS Correlation Energy    =      -2.2426726766756886 [Eh]
	 SCS Total Energy          =    -515.6195113752521593 [Eh]
	-----------------------------------------------------------

  Dipole Moment: [D]
     X:     1.4678      Y:    -2.3800      Z:    -0.0122     Total:     2.7962

*** Psi4 exiting successfully. Buy a developer a beer!
