                               Psi4 1.4a3.dev225

  ==> Input File <==

--------------------------------------------------------------------------
#psi4
#
memory 32 gb

molecule  {
0 1
  O       -2.2261580     0.9189870    -0.1609950
  N        0.4211910     1.5299470     0.0903790
  C        0.0817250     0.2107030     0.0159890
  C        2.4145630    -0.5010270    -0.0428790
  C       -1.2255363    -0.1923693     0.0363938
  C        1.0420520    -0.8182650    -0.0594370
  C        2.7641530     0.8636850     0.0360660
  C       -2.0477590    -1.2949740     0.1722820
  C        3.4684270    -1.5756500    -0.0824610
  C        1.7493340     1.8260270     0.0926910
  C       -3.4286880    -0.9658200     0.0768380
  C       -3.4828100     0.3886030    -0.1245500
  H        0.7225460    -1.8551450    -0.1446860
  H        3.8080070     1.1710760     0.0438400
  H       -1.6259220    -2.2752860     0.3500510
  H        3.8398640    -1.7937090     0.9244500
  H        3.0687740    -2.5034170    -0.5007000
  H        4.3228250    -1.2652800    -0.6906580
  H        1.9977040     2.8869120     0.1452960
  H       -4.2730300    -1.6376780     0.1527080
  H       -4.2894270     1.0948070    -0.2563320
units angstrom
no_reorient  #important for SAPT in psi4, default
symmetry c1  #important for SAPT in psi4, default
}

set PROPERTIES_ORIGIN ["COM"]
properties('MP2/aug-cc-pvtz', properties = ['dipole'])
--------------------------------------------------------------------------

    Molecular point group: c1
  Charge       = 0
  Multiplicity = 1
  Basis Set: AUG-CC-PVTZ
    Blend: AUG-CC-PVTZ
  Basis Set: (AUG-CC-PVTZ AUX)
    Blend: AUG-CC-PVTZ-JKFIT

    Orbital Energies [Eh]
    ---------------------

    Doubly Occupied:

       1A    -20.602839     2A    -15.563374     3A    -11.302557
       4A    -11.296683     5A    -11.289229     6A    -11.279069
       7A    -11.271165     8A    -11.254502     9A    -11.241524
      10A    -11.239107    11A    -11.237500    12A    -11.232981
      13A     -1.405856    14A     -1.246472    15A     -1.103790
      16A     -1.093346    17A     -1.064983    18A     -0.981107
      19A     -0.966949    20A     -0.875554    21A     -0.841867
      22A     -0.787230    23A     -0.760326    24A     -0.723577
      25A     -0.673612    26A     -0.670772    27A     -0.641707
      28A     -0.609124    29A     -0.600534    30A     -0.589512
      31A     -0.578474    32A     -0.565863    33A     -0.559066
      34A     -0.545447    35A     -0.528273    36A     -0.521089
      37A     -0.513134    38A     -0.416576    39A     -0.409295
      40A     -0.378664    41A     -0.363419    42A     -0.282845

  @DF-RHF Final Energy:  -513.34933174645846

   => Energetics <=

    Nuclear Repulsion Energy =            628.4612083760777068
    One-Electron Energy =               -1943.4030937942920900
    Two-Electron Energy =                 801.5925536717560362
    Total Energy =                       -513.3493317464584607
  Basis Set: (AUG-CC-PVTZ AUX)
    Blend: AUG-CC-PVTZ-RI
    Molecular point group: c1

    Geometry (in Angstrom), charge = 0, multiplicity = 1:

       Center              X                  Y                   Z               Mass
    ------------   -----------------  -----------------  -----------------  -----------------
         O           -2.188104417517     0.886372283605    -0.162037524411    15.994914619570
         N            0.459244582483     1.497332283605     0.089336475589    14.003074004430
         C            0.119778582483     0.178088283605     0.014946475589    12.000000000000
         C            2.452616582483    -0.533641716395    -0.043921524411    12.000000000000
         C           -1.187482717517    -0.224984016395     0.035351275589    12.000000000000
         C            1.080105582483    -0.850879716395    -0.060479524411    12.000000000000
         C            2.802206582483     0.831070283605     0.035023475589    12.000000000000
         C           -2.009705417517    -1.327588716395     0.171239475589    12.000000000000
         C            3.506480582483    -1.608264716395    -0.083503524411    12.000000000000
         C            1.787387582483     1.793412283605     0.091648475589    12.000000000000
         C           -3.390634417517    -0.998434716395     0.075795475589    12.000000000000
         C           -3.444756417517     0.355988283605    -0.125592524411    12.000000000000
         H            0.760599582483    -1.887759716395    -0.145728524411     1.007825032230
         H            3.846060582483     1.138461283605     0.042797475589     1.007825032230
         H           -1.587868417517    -2.307900716395     0.349008475589     1.007825032230
         H            3.877917582483    -1.826323716395     0.923407475589     1.007825032230
         H            3.106827582483    -2.536031716395    -0.501742524411     1.007825032230
         H            4.360878582483    -1.297894716395    -0.691700524411     1.007825032230
         H            2.035757582483     2.854297283605     0.144253475589     1.007825032230
         H           -4.234976417517    -1.670292716395     0.151665475589     1.007825032230
         H           -4.251373417517     1.062192283605    -0.257374524411     1.007825032230

  Basis Set: AUG-CC-PVTZ
    Blend: AUG-CC-PVTZ
  Basis Set: (AUG-CC-PVTZ AUX)
    Blend: AUG-CC-PVTZ-JKFIT
	 Reference Energy          =    -513.3493317464584607 [Eh]
	 Singles Energy            =      -0.0000000000000000 [Eh]
	 Same-Spin Energy          =      -0.5614352819151261 [Eh]
	 Opposite-Spin Energy      =      -1.7187697214528983 [Eh]
	 Correlation Energy        =      -2.2802050033680246 [Eh]
	 Total Energy              =    -515.6295367498264568 [Eh]

	 ================> DF-SCS-MP2 Energies <==================
	-----------------------------------------------------------
	 SCS Same-Spin Scale       =       0.3333333333333333 [-]
	 SCS Opposite-Spin Scale   =       1.2000000000000000 [-]
	 SCS Same-Spin Energy      =      -0.1871450939717087 [Eh]
	 SCS Opposite-Spin Energy  =      -2.0625236657434778 [Eh]
	 SCS Correlation Energy    =      -2.2496687597151865 [Eh]
	 SCS Total Energy          =    -515.5990005061736383 [Eh]
	-----------------------------------------------------------

  Dipole Moment: [D]
     X:     1.6232      Y:    -2.4847      Z:     0.0215     Total:     2.9680

*** Psi4 exiting successfully. Buy a developer a beer!
