                               Psi4 1.4a3.dev225

  ==> Input File <==

--------------------------------------------------------------------------
#psi4
#
memory 32 gb

molecule  {
0 1
  O       -2.2261580     0.9189870    -0.1609950
  N        0.4211910     1.5299470     0.0903790
  C        0.0817250     0.2107030     0.0159890
  C        2.4145630    -0.5010270    -0.0428790
  C       -1.3460660    -0.1139160     0.0206840
  C        1.0420520    -0.8182650    -0.0594370
  C        2.7641530     0.8636850     0.0360660
  C       -2.0477590    -1.2949740     0.1722820
  C        3.4684270    -1.5756500    -0.0824610
  C        1.7493340     1.8260270     0.0926910
  C       -3.4286880    -0.9658200     0.0768380
  C       -3.4828100     0.3886030    -0.1245500
  H        0.7225460    -1.8551450    -0.1446860
  H        3.8080070     1.1710760     0.0438400
  H       -1.6259220    -2.2752860     0.3500510
  H        3.8398640    -1.7937090     0.9244500
  H        3.0687740    -2.5034170    -0.5007000
  H        4.3228250    -1.2652800    -0.6906580
  H        1.9977040     2.8869120     0.1452960
  H       -4.2730300    -1.6376780     0.1527080
  H       -4.1400741     0.9640465    -0.2319313
units angstrom
no_reorient  #important for SAPT in psi4, default
symmetry c1  #important for SAPT in psi4, default
}

set PROPERTIES_ORIGIN ["COM"]
properties('MP2/aug-cc-pvtz', properties = ['dipole'])
--------------------------------------------------------------------------

    Molecular point group: c1
  Charge       = 0
  Multiplicity = 1
  Basis Set: AUG-CC-PVTZ
    Blend: AUG-CC-PVTZ
  Basis Set: (AUG-CC-PVTZ AUX)
    Blend: AUG-CC-PVTZ-JKFIT

    Orbital Energies [Eh]
    ---------------------

    Doubly Occupied:

       1A    -20.620719     2A    -15.563847     3A    -11.297331
       4A    -11.294376     5A    -11.278802     6A    -11.271915
       7A    -11.270697     8A    -11.242622     9A    -11.239546
      10A    -11.238622    11A    -11.238323    12A    -11.233605
      13A     -1.453222    14A     -1.244284    15A     -1.104397
      16A     -1.087224    17A     -1.061074    18A     -0.994457
      19A     -0.968986    20A     -0.870238    21A     -0.843965
      22A     -0.807638    23A     -0.768844    24A     -0.742801
      25A     -0.677752    26A     -0.670455    27A     -0.646645
      28A     -0.633067    29A     -0.606134    30A     -0.590671
      31A     -0.580832    32A     -0.566542    33A     -0.559950
      34A     -0.549867    35A     -0.543045    36A     -0.525475
      37A     -0.509886    38A     -0.417751    39A     -0.401919
      40A     -0.375991    41A     -0.362571    42A     -0.288271

  @DF-RHF Final Energy:  -513.34053169516801

   => Energetics <=

    Nuclear Repulsion Energy =            630.1492787937791036
    One-Electron Energy =               -1946.4909029160357932
    Two-Electron Energy =                 803.0010924270886790
    Total Energy =                       -513.3405316951680106
  Basis Set: (AUG-CC-PVTZ AUX)
    Blend: AUG-CC-PVTZ-RI
    Molecular point group: c1

    Geometry (in Angstrom), charge = 0, multiplicity = 1:

       Center              X                  Y                   Z               Mass
    ------------   -----------------  -----------------  -----------------  -----------------
         O           -2.179958018261     0.881282298265    -0.161006986922    15.994914619570
         N            0.467390981739     1.492242298265     0.090367013078    14.003074004430
         C            0.127924981739     0.172998298265     0.015977013078    12.000000000000
         C            2.460762981739    -0.538731701735    -0.042890986922    12.000000000000
         C           -1.299866018261    -0.151620701735     0.020672013078    12.000000000000
         C            1.088251981739    -0.855969701735    -0.059448986922    12.000000000000
         C            2.810352981739     0.825980298265     0.036054013078    12.000000000000
         C           -2.001559018261    -1.332678701735     0.172270013078    12.000000000000
         C            3.514626981739    -1.613354701735    -0.082472986922    12.000000000000
         C            1.795533981739     1.788322298265     0.092679013078    12.000000000000
         C           -3.382488018261    -1.003524701735     0.076826013078    12.000000000000
         C           -3.436610018261     0.350898298265    -0.124561986922    12.000000000000
         H            0.768745981739    -1.892849701735    -0.144697986922     1.007825032230
         H            3.854206981739     1.133371298265     0.043828013078     1.007825032230
         H           -1.579722018261    -2.312990701735     0.350039013078     1.007825032230
         H            3.886063981739    -1.831413701735     0.924438013078     1.007825032230
         H            3.114973981739    -2.541121701735    -0.500711986922     1.007825032230
         H            4.369024981739    -1.302984701735    -0.690669986922     1.007825032230
         H            2.043903981739     2.849207298265     0.145284013078     1.007825032230
         H           -4.226830018261    -1.675382701735     0.152696013078     1.007825032230
         H           -4.093874118261     0.926341798265    -0.231943286922     1.007825032230

  Basis Set: AUG-CC-PVTZ
    Blend: AUG-CC-PVTZ
  Basis Set: (AUG-CC-PVTZ AUX)
    Blend: AUG-CC-PVTZ-JKFIT
	 Reference Energy          =    -513.3405316951680106 [Eh]
	 Singles Energy            =      -0.0000000000000000 [Eh]
	 Same-Spin Energy          =      -0.5588567093923120 [Eh]
	 Opposite-Spin Energy      =      -1.7130487328103590 [Eh]
	 Correlation Energy        =      -2.2719054422026712 [Eh]
	 Total Energy              =    -515.6124371373706481 [Eh]

	 ================> DF-SCS-MP2 Energies <==================
	-----------------------------------------------------------
	 SCS Same-Spin Scale       =       0.3333333333333333 [-]
	 SCS Opposite-Spin Scale   =       1.2000000000000000 [-]
	 SCS Same-Spin Energy      =      -0.1862855697974373 [Eh]
	 SCS Opposite-Spin Energy  =      -2.0556584793724308 [Eh]
	 SCS Correlation Energy    =      -2.2419440491698683 [Eh]
	 SCS Total Energy          =    -515.5824757443378985 [Eh]
	-----------------------------------------------------------

  Dipole Moment: [D]
     X:     1.5144      Y:    -2.4066      Z:     0.0012     Total:     2.8435

*** Psi4 exiting successfully. Buy a developer a beer!
