                               Psi4 1.4a3.dev225

  ==> Input File <==

--------------------------------------------------------------------------
#psi4
#
memory 32 gb

molecule  {
0 1
  O       -2.2261580     0.9189870    -0.1609950
  N        0.4211910     1.5299470     0.0903790
  C        0.0817250     0.2107030     0.0159890
  C        2.4145630    -0.5010270    -0.0428790
  C       -1.3460660    -0.1139160     0.0206840
  C        1.0420520    -0.8182650    -0.0594370
  C        2.7641530     0.8636850     0.0360660
  C       -2.0477590    -1.2949740     0.1722820
  C        3.5034238    -1.6113361    -0.0837754
  C        1.7493340     1.8260270     0.0926910
  C       -3.4286880    -0.9658200     0.0768380
  C       -3.4828100     0.3886030    -0.1245500
  H        0.7225460    -1.8551450    -0.1446860
  H        3.8080070     1.1710760     0.0438400
  H       -1.6259220    -2.2752860     0.3500510
  H        3.8398640    -1.7937090     0.9244500
  H        3.0687740    -2.5034170    -0.5007000
  H        4.3228250    -1.2652800    -0.6906580
  H        1.9977040     2.8869120     0.1452960
  H       -4.2730300    -1.6376780     0.1527080
  H       -4.2894270     1.0948070    -0.2563320
units angstrom
no_reorient  #important for SAPT in psi4, default
symmetry c1  #important for SAPT in psi4, default
}

set PROPERTIES_ORIGIN ["COM"]
properties('MP2/aug-cc-pvtz', properties = ['dipole'])
--------------------------------------------------------------------------

    Molecular point group: c1
  Charge       = 0
  Multiplicity = 1
  Basis Set: AUG-CC-PVTZ
    Blend: AUG-CC-PVTZ
  Basis Set: (AUG-CC-PVTZ AUX)
    Blend: AUG-CC-PVTZ-JKFIT

    Orbital Energies [Eh]
    ---------------------

    Doubly Occupied:

       1A    -20.621825     2A    -15.563672     3A    -11.297222
       4A    -11.294339     5A    -11.293173     6A    -11.278646
       7A    -11.273661     8A    -11.242503     9A    -11.238860
      10A    -11.238503    11A    -11.238479    12A    -11.233825
      13A     -1.453863    14A     -1.243931    15A     -1.099175
      16A     -1.087580    17A     -1.057643    18A     -0.984057
      19A     -0.968186    20A     -0.862606    21A     -0.836922
      22A     -0.800109    23A     -0.764622    24A     -0.726756
      25A     -0.672673    26A     -0.667653    27A     -0.638044
      28A     -0.633340    29A     -0.600223    30A     -0.595934
      31A     -0.579053    32A     -0.566094    33A     -0.565690
      34A     -0.542832    35A     -0.532477    36A     -0.527057
      37A     -0.511853    38A     -0.416855    39A     -0.402426
      40A     -0.376478    41A     -0.363170    42A     -0.287803

  @DF-RHF Final Energy:  -513.37557405998052

   => Energetics <=

    Nuclear Repulsion Energy =            628.0686659938304501
    One-Electron Energy =               -1942.5288514455198765
    Two-Electron Energy =                 801.0846113917090179
    Total Energy =                       -513.3755740599805222
  Basis Set: (AUG-CC-PVTZ AUX)
    Blend: AUG-CC-PVTZ-RI
    Molecular point group: c1

    Geometry (in Angstrom), charge = 0, multiplicity = 1:

       Center              X                  Y                   Z               Mass
    ------------   -----------------  -----------------  -----------------  -----------------
         O           -2.181651880682     0.883145958608    -0.160753231728    15.994914619570
         N            0.465697119318     1.494105958608     0.090620768272    14.003074004430
         C            0.126231119318     0.174861958608     0.016230768272    12.000000000000
         C            2.459069119318    -0.536868041392    -0.042637231728    12.000000000000
         C           -1.301559880682    -0.149757041392     0.020925768272    12.000000000000
         C            1.086558119318    -0.854106041392    -0.059195231728    12.000000000000
         C            2.808659119318     0.827843958608     0.036307768272    12.000000000000
         C           -2.003252880682    -1.330815041392     0.172523768272    12.000000000000
         C            3.547929919318    -1.647177141392    -0.083533631728    12.000000000000
         C            1.793840119318     1.790185958608     0.092932768272    12.000000000000
         C           -3.384181880682    -1.001661041392     0.077079768272    12.000000000000
         C           -3.438303880682     0.352761958608    -0.124308231728    12.000000000000
         H            0.767052119318    -1.890986041392    -0.144444231728     1.007825032230
         H            3.852513119318     1.135234958608     0.044081768272     1.007825032230
         H           -1.581415880682    -2.311127041392     0.350292768272     1.007825032230
         H            3.884370119318    -1.829550041392     0.924691768272     1.007825032230
         H            3.113280119318    -2.539258041392    -0.500458231728     1.007825032230
         H            4.367331119318    -1.301121041392    -0.690416231728     1.007825032230
         H            2.042210119318     2.851070958608     0.145537768272     1.007825032230
         H           -4.228523880682    -1.673519041392     0.152949768272     1.007825032230
         H           -4.244920880682     1.058965958608    -0.256090231728     1.007825032230

  Basis Set: AUG-CC-PVTZ
    Blend: AUG-CC-PVTZ
  Basis Set: (AUG-CC-PVTZ AUX)
    Blend: AUG-CC-PVTZ-JKFIT
	 Reference Energy          =    -513.3755740599805222 [Eh]
	 Singles Energy            =      -0.0000000000000000 [Eh]
	 Same-Spin Energy          =      -0.5587468493054980 [Eh]
	 Opposite-Spin Energy      =      -1.7134107538495247 [Eh]
	 Correlation Energy        =      -2.2721576031550228 [Eh]
	 Total Energy              =    -515.6477316631355734 [Eh]

	 ================> DF-SCS-MP2 Energies <==================
	-----------------------------------------------------------
	 SCS Same-Spin Scale       =       0.3333333333333333 [-]
	 SCS Opposite-Spin Scale   =       1.2000000000000000 [-]
	 SCS Same-Spin Energy      =      -0.1862489497684993 [Eh]
	 SCS Opposite-Spin Energy  =      -2.0560929046194296 [Eh]
	 SCS Correlation Energy    =      -2.2423418543879290 [Eh]
	 SCS Total Energy          =    -515.6179159143684956 [Eh]
	-----------------------------------------------------------

  Dipole Moment: [D]
     X:     1.4749      Y:    -2.3628      Z:    -0.0069     Total:     2.7853

*** Psi4 exiting successfully. Buy a developer a beer!
