                               Psi4 1.4a3.dev225

  ==> Input File <==

--------------------------------------------------------------------------
#psi4
#
memory 32 gb

molecule  {
0 1
  O       -2.2171041     0.8972415    -0.1574900
  N        0.4211910     1.5299470     0.0903790
  C        0.0817250     0.2107030     0.0159890
  C        2.4145630    -0.5010270    -0.0428790
  C       -1.3460660    -0.1139160     0.0206840
  C        1.0420520    -0.8182650    -0.0594370
  C        2.7641530     0.8636850     0.0360660
  C       -2.0477590    -1.2949740     0.1722820
  C        3.4684270    -1.5756500    -0.0824610
  C        1.7493340     1.8260270     0.0926910
  C       -3.4286880    -0.9658200     0.0768380
  C       -3.4828100     0.3886030    -0.1245500
  H        0.7225460    -1.8551450    -0.1446860
  H        3.8080070     1.1710760     0.0438400
  H       -1.6259220    -2.2752860     0.3500510
  H        3.8398640    -1.7937090     0.9244500
  H        3.0687740    -2.5034170    -0.5007000
  H        4.3228250    -1.2652800    -0.6906580
  H        1.9977040     2.8869120     0.1452960
  H       -4.2730300    -1.6376780     0.1527080
  H       -4.2894270     1.0948070    -0.2563320
units angstrom
no_reorient  #important for SAPT in psi4, default
symmetry c1  #important for SAPT in psi4, default
}

set PROPERTIES_ORIGIN ["COM"]
properties('MP2/aug-cc-pvtz', properties = ['dipole'])
--------------------------------------------------------------------------

    Molecular point group: c1
  Charge       = 0
  Multiplicity = 1
  Basis Set: AUG-CC-PVTZ
    Blend: AUG-CC-PVTZ
  Basis Set: (AUG-CC-PVTZ AUX)
    Blend: AUG-CC-PVTZ-JKFIT

    Orbital Energies [Eh]
    ---------------------

    Doubly Occupied:

       1A    -20.621880     2A    -15.564103     3A    -11.296095
       4A    -11.294290     5A    -11.292244     6A    -11.278934
       7A    -11.271966     8A    -11.242703     9A    -11.239558
      10A    -11.238791    11A    -11.236192    12A    -11.233734
      13A     -1.461895    14A     -1.244422    15A     -1.104483
      16A     -1.085824    17A     -1.059221    18A     -0.986350
      19A     -0.968409    20A     -0.863316    21A     -0.836600
      22A     -0.802344    23A     -0.764167    24A     -0.729241
      25A     -0.673672    26A     -0.668982    27A     -0.641867
      28A     -0.637790    29A     -0.601273    30A     -0.590729
      31A     -0.578101    32A     -0.565697    33A     -0.558899
      34A     -0.548119    35A     -0.538984    36A     -0.525467
      37A     -0.509649    38A     -0.417985    39A     -0.400301
      40A     -0.376271    41A     -0.362707    42A     -0.288125

  @DF-RHF Final Energy:  -513.37804060521216

   => Energetics <=

    Nuclear Repulsion Energy =            629.6027459990334592
    One-Electron Energy =               -1945.5588096539531762
    Two-Electron Energy =                 802.5780230497075536
    Total Energy =                       -513.3780406052121634
  Basis Set: (AUG-CC-PVTZ AUX)
    Blend: AUG-CC-PVTZ-RI
    Molecular point group: c1

    Geometry (in Angstrom), charge = 0, multiplicity = 1:

       Center              X                  Y                   Z               Mass
    ------------   -----------------  -----------------  -----------------  -----------------
         O           -2.170868251720     0.860894916482    -0.157699829717    15.994914619570
         N            0.467426848280     1.493600416482     0.090169170283    14.003074004430
         C            0.127960848280     0.174356416482     0.015779170283    12.000000000000
         C            2.460798848280    -0.537373583518    -0.043088829717    12.000000000000
         C           -1.299830151720    -0.150262583518     0.020474170283    12.000000000000
         C            1.088287848280    -0.854611583518    -0.059646829717    12.000000000000
         C            2.810388848280     0.827338416482     0.035856170283    12.000000000000
         C           -2.001523151720    -1.331320583518     0.172072170283    12.000000000000
         C            3.514662848280    -1.611996583518    -0.082670829717    12.000000000000
         C            1.795569848280     1.789680416482     0.092481170283    12.000000000000
         C           -3.382452151720    -1.002166583518     0.076628170283    12.000000000000
         C           -3.436574151720     0.352256416482    -0.124759829717    12.000000000000
         H            0.768781848280    -1.891491583518    -0.144895829717     1.007825032230
         H            3.854242848280     1.134729416482     0.043630170283     1.007825032230
         H           -1.579686151720    -2.311632583518     0.349841170283     1.007825032230
         H            3.886099848280    -1.830055583518     0.924240170283     1.007825032230
         H            3.115009848280    -2.539763583518    -0.500909829717     1.007825032230
         H            4.369060848280    -1.301626583518    -0.690867829717     1.007825032230
         H            2.043939848280     2.850565416482     0.145086170283     1.007825032230
         H           -4.226794151720    -1.674024583518     0.152498170283     1.007825032230
         H           -4.243191151720     1.058460416482    -0.256541829717     1.007825032230

  Basis Set: AUG-CC-PVTZ
    Blend: AUG-CC-PVTZ
  Basis Set: (AUG-CC-PVTZ AUX)
    Blend: AUG-CC-PVTZ-JKFIT
	 Reference Energy          =    -513.3780406052121634 [Eh]
	 Singles Energy            =      -0.0000000000000000 [Eh]
	 Same-Spin Energy          =      -0.5590070839889341 [Eh]
	 Opposite-Spin Energy      =      -1.7129121195297050 [Eh]
	 Correlation Energy        =      -2.2719192035186389 [Eh]
	 Total Energy              =    -515.6499598087308414 [Eh]

	 ================> DF-SCS-MP2 Energies <==================
	-----------------------------------------------------------
	 SCS Same-Spin Scale       =       0.3333333333333333 [-]
	 SCS Opposite-Spin Scale   =       1.2000000000000000 [-]
	 SCS Same-Spin Energy      =      -0.1863356946629780 [Eh]
	 SCS Opposite-Spin Energy  =      -2.0554945434356457 [Eh]
	 SCS Correlation Energy    =      -2.2418302380986237 [Eh]
	 SCS Total Energy          =    -515.6198708433107640 [Eh]
	-----------------------------------------------------------

  Dipole Moment: [D]
     X:     1.4692      Y:    -2.3112      Z:    -0.0152     Total:     2.7387

*** Psi4 exiting successfully. Buy a developer a beer!
