                               Psi4 1.4a3.dev225

  ==> Input File <==

--------------------------------------------------------------------------
#psi4
#
memory 32 gb

molecule  {
0 1
  O       -2.2261580     0.9189870    -0.1609950
  N        0.4211910     1.5299470     0.0903790
  C        0.0817250     0.2107030     0.0159890
  C        2.4499766    -0.4683556    -0.0218919
  C       -1.3460660    -0.1139160     0.0206840
  C        1.0420520    -0.8182650    -0.0594370
  C        2.7641530     0.8636850     0.0360660
  C       -2.0477590    -1.2949740     0.1722820
  C        3.4684270    -1.5756500    -0.0824610
  C        1.7493340     1.8260270     0.0926910
  C       -3.4286880    -0.9658200     0.0768380
  C       -3.4828100     0.3886030    -0.1245500
  H        0.7225460    -1.8551450    -0.1446860
  H        3.8080070     1.1710760     0.0438400
  H       -1.6259220    -2.2752860     0.3500510
  H        3.8398640    -1.7937090     0.9244500
  H        3.0687740    -2.5034170    -0.5007000
  H        4.3228250    -1.2652800    -0.6906580
  H        1.9977040     2.8869120     0.1452960
  H       -4.2730300    -1.6376780     0.1527080
  H       -4.2894270     1.0948070    -0.2563320
units angstrom
no_reorient  #important for SAPT in psi4, default
symmetry c1  #important for SAPT in psi4, default
}

set PROPERTIES_ORIGIN ["COM"]
properties('MP2/aug-cc-pvtz', properties = ['dipole'])
--------------------------------------------------------------------------

    Molecular point group: c1
  Charge       = 0
  Multiplicity = 1
  Basis Set: AUG-CC-PVTZ
    Blend: AUG-CC-PVTZ
  Basis Set: (AUG-CC-PVTZ AUX)
    Blend: AUG-CC-PVTZ-JKFIT

    Orbital Energies [Eh]
    ---------------------

    Doubly Occupied:

       1A    -20.621097     2A    -15.564283     3A    -11.296365
       4A    -11.292541     5A    -11.292007     6A    -11.281413
       7A    -11.272149     8A    -11.245638     9A    -11.239856
      10A    -11.237520    11A    -11.235578    12A    -11.233034
      13A     -1.453093    14A     -1.244487    15A     -1.105627
      16A     -1.087091    17A     -1.057129    18A     -0.984781
      19A     -0.967113    20A     -0.862886    21A     -0.837386
      22A     -0.800022    23A     -0.763637    24A     -0.726475
      25A     -0.674019    26A     -0.668989    27A     -0.640213
      28A     -0.632853    29A     -0.599231    30A     -0.591214
      31A     -0.578236    32A     -0.565823    33A     -0.559949
      34A     -0.547284    35A     -0.540542    36A     -0.525400
      37A     -0.507538    38A     -0.418180    39A     -0.402226
      40A     -0.379716    41A     -0.358571    42A     -0.287526

  @DF-RHF Final Energy:  -513.37399092392434

   => Energetics <=

    Nuclear Repulsion Energy =            628.7914113828048812
    One-Electron Energy =               -1943.9733709795807499
    Two-Electron Energy =                 801.8079686728515298
    Total Energy =                       -513.3739909239243389
  Basis Set: (AUG-CC-PVTZ AUX)
    Blend: AUG-CC-PVTZ-RI
    Molecular point group: c1

    Geometry (in Angstrom), charge = 0, multiplicity = 1:

       Center              X                  Y                   Z               Mass
    ------------   -----------------  -----------------  -----------------  -----------------
         O           -2.181683323757     0.877989120869    -0.162435639903    15.994914619570
         N            0.465665676243     1.488949120869     0.088938360097    14.003074004430
         C            0.126199676243     0.169705120869     0.014548360097    12.000000000000
         C            2.494451276243    -0.509353479131    -0.023332539903    12.000000000000
         C           -1.301591323757    -0.154913879131     0.019243360097    12.000000000000
         C            1.086526676243    -0.859262879131    -0.060877639903    12.000000000000
         C            2.808627676243     0.822687120869     0.034625360097    12.000000000000
         C           -2.003284323757    -1.335971879131     0.170841360097    12.000000000000
         C            3.512901676243    -1.616647879131    -0.083901639903    12.000000000000
         C            1.793808676243     1.785029120869     0.091250360097    12.000000000000
         C           -3.384213323757    -1.006817879131     0.075397360097    12.000000000000
         C           -3.438335323757     0.347605120869    -0.125990639903    12.000000000000
         H            0.767020676243    -1.896142879131    -0.146126639903     1.007825032230
         H            3.852481676243     1.130078120869     0.042399360097     1.007825032230
         H           -1.581447323757    -2.316283879131     0.348610360097     1.007825032230
         H            3.884338676243    -1.834706879131     0.923009360097     1.007825032230
         H            3.113248676243    -2.544414879131    -0.502140639903     1.007825032230
         H            4.367299676243    -1.306277879131    -0.692098639903     1.007825032230
         H            2.042178676243     2.845914120869     0.143855360097     1.007825032230
         H           -4.228555323757    -1.678675879131     0.151267360097     1.007825032230
         H           -4.244952323757     1.053809120869    -0.257772639903     1.007825032230

  Basis Set: AUG-CC-PVTZ
    Blend: AUG-CC-PVTZ
  Basis Set: (AUG-CC-PVTZ AUX)
    Blend: AUG-CC-PVTZ-JKFIT
	 Reference Energy          =    -513.3739909239243389 [Eh]
	 Singles Energy            =      -0.0000000000000000 [Eh]
	 Same-Spin Energy          =      -0.5590910960588032 [Eh]
	 Opposite-Spin Energy      =      -1.7137964540066397 [Eh]
	 Correlation Energy        =      -2.2728875500654429 [Eh]
	 Total Energy              =    -515.6468784739897728 [Eh]

	 ================> DF-SCS-MP2 Energies <==================
	-----------------------------------------------------------
	 SCS Same-Spin Scale       =       0.3333333333333333 [-]
	 SCS Opposite-Spin Scale   =       1.2000000000000000 [-]
	 SCS Same-Spin Energy      =      -0.1863636986862677 [Eh]
	 SCS Opposite-Spin Energy  =      -2.0565557448079677 [Eh]
	 SCS Correlation Energy    =      -2.2429194434942352 [Eh]
	 SCS Total Energy          =    -515.6169103674185408 [Eh]
	-----------------------------------------------------------

  Dipole Moment: [D]
     X:     1.5302      Y:    -2.3626      Z:    -0.0128     Total:     2.8149

*** Psi4 exiting successfully. Buy a developer a beer!
