                               Psi4 1.4a3.dev225

  ==> Input File <==

--------------------------------------------------------------------------
#psi4
#
memory 32 gb

molecule  {
0 1
  O       -2.2261580     0.9189870    -0.1609950
  N        0.4211910     1.5299470     0.0903790
  C        0.0817250     0.2107030     0.0159890
  C        2.4145630    -0.5010270    -0.0428790
  C       -1.3460660    -0.1139160     0.0206840
  C        1.1783169    -0.9642696    -0.0701395
  C        2.7641530     0.8636850     0.0360660
  C       -2.0477590    -1.2949740     0.1722820
  C        3.4684270    -1.5756500    -0.0824610
  C        1.7493340     1.8260270     0.0926910
  C       -3.4286880    -0.9658200     0.0768380
  C       -3.4828100     0.3886030    -0.1245500
  H        0.7225460    -1.8551450    -0.1446860
  H        3.8080070     1.1710760     0.0438400
  H       -1.6259220    -2.2752860     0.3500510
  H        3.8398640    -1.7937090     0.9244500
  H        3.0687740    -2.5034170    -0.5007000
  H        4.3228250    -1.2652800    -0.6906580
  H        1.9977040     2.8869120     0.1452960
  H       -4.2730300    -1.6376780     0.1527080
  H       -4.2894270     1.0948070    -0.2563320
units angstrom
no_reorient  #important for SAPT in psi4, default
symmetry c1  #important for SAPT in psi4, default
}

set PROPERTIES_ORIGIN ["COM"]
properties('MP2/aug-cc-pvtz', properties = ['dipole'])
--------------------------------------------------------------------------

    Molecular point group: c1
  Charge       = 0
  Multiplicity = 1
  Basis Set: AUG-CC-PVTZ
    Blend: AUG-CC-PVTZ
  Basis Set: (AUG-CC-PVTZ AUX)
    Blend: AUG-CC-PVTZ-JKFIT

    Orbital Energies [Eh]
    ---------------------

    Doubly Occupied:

       1A    -20.625808     2A    -15.564847     3A    -11.312677
       4A    -11.301236     5A    -11.299610     6A    -11.277060
       7A    -11.256984     8A    -11.246392     9A    -11.243359
      10A    -11.238429    11A    -11.235461    12A    -11.230316
      13A     -1.458103    14A     -1.237999    15A     -1.115304
      16A     -1.091802    17A     -1.050965    18A     -0.985598
      19A     -0.953811    20A     -0.875039    21A     -0.830438
      22A     -0.805823    23A     -0.767798    24A     -0.723916
      25A     -0.688116    26A     -0.662729    27A     -0.648653
      28A     -0.637324    29A     -0.592903    30A     -0.586674
      31A     -0.582565    32A     -0.571311    33A     -0.561994
      34A     -0.544370    35A     -0.528094    36A     -0.519136
      37A     -0.516617    38A     -0.407448    39A     -0.402001
      40A     -0.385853    41A     -0.360920    42A     -0.285146

  @DF-RHF Final Energy:  -513.33749175275830

   => Energetics <=

    Nuclear Repulsion Energy =            626.8189589588585022
    One-Electron Energy =               -1939.8916469719795259
    Two-Electron Energy =                 799.7351962603627271
    Total Energy =                       -513.3374917527582966
  Basis Set: (AUG-CC-PVTZ AUX)
    Blend: AUG-CC-PVTZ-RI
    Molecular point group: c1

    Geometry (in Angstrom), charge = 0, multiplicity = 1:

       Center              X                  Y                   Z               Mass
    ------------   -----------------  -----------------  -----------------  -----------------
         O           -2.189291469021     0.891468302230    -0.160045000614    15.994914619570
         N            0.458057530979     1.502428302230     0.091328999386    14.003074004430
         C            0.118591530979     0.183184302230     0.016938999386    12.000000000000
         C            2.451429530979    -0.528545697770    -0.041929000614    12.000000000000
         C           -1.309199469021    -0.141434697770     0.021633999386    12.000000000000
         C            1.215183430979    -0.991788297770    -0.069189500614    12.000000000000
         C            2.801019530979     0.836166302230     0.037015999386    12.000000000000
         C           -2.010892469021    -1.322492697770     0.173231999386    12.000000000000
         C            3.505293530979    -1.603168697770    -0.081511000614    12.000000000000
         C            1.786200530979     1.798508302230     0.093640999386    12.000000000000
         C           -3.391821469021    -0.993338697770     0.077787999386    12.000000000000
         C           -3.445943469021     0.361084302230    -0.123600000614    12.000000000000
         H            0.759412530979    -1.882663697770    -0.143736000614     1.007825032230
         H            3.844873530979     1.143557302230     0.044789999386     1.007825032230
         H           -1.589055469021    -2.302804697770     0.351000999386     1.007825032230
         H            3.876730530979    -1.821227697770     0.925399999386     1.007825032230
         H            3.105640530979    -2.530935697770    -0.499750000614     1.007825032230
         H            4.359691530979    -1.292798697770    -0.689708000614     1.007825032230
         H            2.034570530979     2.859393302230     0.146245999386     1.007825032230
         H           -4.236163469021    -1.665196697770     0.153657999386     1.007825032230
         H           -4.252560469021     1.067288302230    -0.255382000614     1.007825032230

  Basis Set: AUG-CC-PVTZ
    Blend: AUG-CC-PVTZ
  Basis Set: (AUG-CC-PVTZ AUX)
    Blend: AUG-CC-PVTZ-JKFIT
	 Reference Energy          =    -513.3374917527582966 [Eh]
	 Singles Energy            =      -0.0000000000000000 [Eh]
	 Same-Spin Energy          =      -0.5585972052260654 [Eh]
	 Opposite-Spin Energy      =      -1.7152105522175245 [Eh]
	 Correlation Energy        =      -2.2738077574435898 [Eh]
	 Total Energy              =    -515.6112995102018886 [Eh]

	 ================> DF-SCS-MP2 Energies <==================
	-----------------------------------------------------------
	 SCS Same-Spin Scale       =       0.3333333333333333 [-]
	 SCS Opposite-Spin Scale   =       1.2000000000000000 [-]
	 SCS Same-Spin Energy      =      -0.1861990684086884 [Eh]
	 SCS Opposite-Spin Energy  =      -2.0582526626610291 [Eh]
	 SCS Correlation Energy    =      -2.2444517310697174 [Eh]
	 SCS Total Energy          =    -515.5819434838280131 [Eh]
	-----------------------------------------------------------

  Dipole Moment: [D]
     X:     1.0439      Y:    -2.3235      Z:    -0.0055     Total:     2.5472

*** Psi4 exiting successfully. Buy a developer a beer!
