                               Psi4 1.4a3.dev225

  ==> Input File <==

--------------------------------------------------------------------------
#psi4
#
memory 32 gb

molecule  {
0 1
  O       -2.2261580     0.9189870    -0.1609950
  N        0.4211910     1.5299470     0.0903790
  C        0.0817250     0.2107030     0.0159890
  C        2.4145630    -0.5010270    -0.0428790
  C       -1.3460660    -0.1139160     0.0206840
  C        1.0420520    -0.8182650    -0.0594370
  C        2.7641530     0.8636850     0.0360660
  C       -2.0477590    -1.2949740     0.1722820
  C        3.4684270    -1.5756500    -0.0824610
  C        1.7493340     1.8260270     0.0926910
  C       -3.4286880    -0.9658200     0.0768380
  C       -3.4867594     0.4874384    -0.1392458
  H        0.7225460    -1.8551450    -0.1446860
  H        3.8080070     1.1710760     0.0438400
  H       -1.6259220    -2.2752860     0.3500510
  H        3.8398640    -1.7937090     0.9244500
  H        3.0687740    -2.5034170    -0.5007000
  H        4.3228250    -1.2652800    -0.6906580
  H        1.9977040     2.8869120     0.1452960
  H       -4.2730300    -1.6376780     0.1527080
  H       -4.2894270     1.0948070    -0.2563320
units angstrom
no_reorient  #important for SAPT in psi4, default
symmetry c1  #important for SAPT in psi4, default
}

set PROPERTIES_ORIGIN ["COM"]
properties('MP2/aug-cc-pvtz', properties = ['dipole'])
--------------------------------------------------------------------------

    Molecular point group: c1
  Charge       = 0
  Multiplicity = 1
  Basis Set: AUG-CC-PVTZ
    Blend: AUG-CC-PVTZ
  Basis Set: (AUG-CC-PVTZ AUX)
    Blend: AUG-CC-PVTZ-JKFIT

    Orbital Energies [Eh]
    ---------------------

    Doubly Occupied:

       1A    -20.630569     2A    -15.563028     3A    -11.301296
       4A    -11.297189     5A    -11.295132     6A    -11.278691
       7A    -11.271835     8A    -11.242604     9A    -11.242118
      10A    -11.241132    11A    -11.239372    12A    -11.237718
      13A     -1.466079    14A     -1.244160    15A     -1.103915
      16A     -1.083532    17A     -1.050387    18A     -0.985958
      19A     -0.968647    20A     -0.862365    21A     -0.839823
      22A     -0.801301    23A     -0.767040    24A     -0.736222
      25A     -0.677077    26A     -0.670037    27A     -0.649678
      28A     -0.639048    29A     -0.608504    30A     -0.590552
      31A     -0.578274    32A     -0.567962    33A     -0.556122
      34A     -0.548047    35A     -0.527367    36A     -0.525296
      37A     -0.509590    38A     -0.417417    39A     -0.401746
      40A     -0.370007    41A     -0.360138    42A     -0.280830

  @DF-RHF Final Energy:  -513.36084911044577

   => Energetics <=

    Nuclear Repulsion Energy =            628.1040918539657696
    One-Electron Energy =               -1942.4742801215409145
    Two-Electron Energy =                 801.0093391571292614
    Total Energy =                       -513.3608491104457698
  Basis Set: (AUG-CC-PVTZ AUX)
    Blend: AUG-CC-PVTZ-RI
    Molecular point group: c1

    Geometry (in Angstrom), charge = 0, multiplicity = 1:

       Center              X                  Y                   Z               Mass
    ------------   -----------------  -----------------  -----------------  -----------------
         O           -2.178713809016     0.872997759099    -0.159743749103    15.994914619570
         N            0.468635190984     1.483957759099     0.091630250897    14.003074004430
         C            0.129169190984     0.164713759099     0.017240250897    12.000000000000
         C            2.462007190984    -0.547016240901    -0.041627749103    12.000000000000
         C           -1.298621809016    -0.159905240901     0.021935250897    12.000000000000
         C            1.089496190984    -0.864254240901    -0.058185749103    12.000000000000
         C            2.811597190984     0.817695759099     0.037317250897    12.000000000000
         C           -2.000314809016    -1.340963240901     0.173533250897    12.000000000000
         C            3.515871190984    -1.621639240901    -0.081209749103    12.000000000000
         C            1.796778190984     1.780037759099     0.093942250897    12.000000000000
         C           -3.381243809016    -1.011809240901     0.078089250897    12.000000000000
         C           -3.439315209016     0.441449159099    -0.137994549103    12.000000000000
         H            0.769990190984    -1.901134240901    -0.143434749103     1.007825032230
         H            3.855451190984     1.125086759099     0.045091250897     1.007825032230
         H           -1.578477809016    -2.321275240901     0.351302250897     1.007825032230
         H            3.887308190984    -1.839698240901     0.925701250897     1.007825032230
         H            3.116218190984    -2.549406240901    -0.499448749103     1.007825032230
         H            4.370269190984    -1.311269240901    -0.689406749103     1.007825032230
         H            2.045148190984     2.840922759099     0.146547250897     1.007825032230
         H           -4.225585809016    -1.683667240901     0.153959250897     1.007825032230
         H           -4.241982809016     1.048817759099    -0.255080749103     1.007825032230

  Basis Set: AUG-CC-PVTZ
    Blend: AUG-CC-PVTZ
  Basis Set: (AUG-CC-PVTZ AUX)
    Blend: AUG-CC-PVTZ-JKFIT
	 Reference Energy          =    -513.3608491104457698 [Eh]
	 Singles Energy            =      -0.0000000000000000 [Eh]
	 Same-Spin Energy          =      -0.5605583205566369 [Eh]
	 Opposite-Spin Energy      =      -1.7156338210147863 [Eh]
	 Correlation Energy        =      -2.2761921415714230 [Eh]
	 Total Energy              =    -515.6370412520171840 [Eh]

	 ================> DF-SCS-MP2 Energies <==================
	-----------------------------------------------------------
	 SCS Same-Spin Scale       =       0.3333333333333333 [-]
	 SCS Opposite-Spin Scale   =       1.2000000000000000 [-]
	 SCS Same-Spin Energy      =      -0.1868527735188790 [Eh]
	 SCS Opposite-Spin Energy  =      -2.0587605852177435 [Eh]
	 SCS Correlation Energy    =      -2.2456133587366223 [Eh]
	 SCS Total Energy          =    -515.6064624691823610 [Eh]
	-----------------------------------------------------------

  Dipole Moment: [D]
     X:     1.5647      Y:    -2.2422      Z:    -0.0215     Total:     2.7343

*** Psi4 exiting successfully. Buy a developer a beer!
