                               Psi4 1.4a3.dev225

  ==> Input File <==

--------------------------------------------------------------------------
#psi4
#
memory 32 gb

molecule  {
0 1
  O       -2.2261580     0.9189870    -0.1609950
  N        0.4211910     1.5299470     0.0903790
  C        0.0817250     0.2107030     0.0159890
  C        2.4145630    -0.5010270    -0.0428790
  C       -1.3460660    -0.1139160     0.0206840
  C        1.0420520    -0.8182650    -0.0594370
  C        2.7641530     0.8636850     0.0360660
  C       -2.0477590    -1.2949740     0.1722820
  C        3.4684270    -1.5756500    -0.0824610
  C        1.7493340     1.8260270     0.0926910
  C       -3.4525802    -0.9666672     0.0761409
  C       -3.4828100     0.3886030    -0.1245500
  H        0.7225460    -1.8551450    -0.1446860
  H        3.8080070     1.1710760     0.0438400
  H       -1.6259220    -2.2752860     0.3500510
  H        3.8398640    -1.7937090     0.9244500
  H        3.0687740    -2.5034170    -0.5007000
  H        4.3228250    -1.2652800    -0.6906580
  H        1.9977040     2.8869120     0.1452960
  H       -4.2730300    -1.6376780     0.1527080
  H       -4.2894270     1.0948070    -0.2563320
units angstrom
no_reorient  #important for SAPT in psi4, default
symmetry c1  #important for SAPT in psi4, default
}

set PROPERTIES_ORIGIN ["COM"]
properties('MP2/aug-cc-pvtz', properties = ['dipole'])
--------------------------------------------------------------------------

    Molecular point group: c1
  Charge       = 0
  Multiplicity = 1
  Basis Set: AUG-CC-PVTZ
    Blend: AUG-CC-PVTZ
  Basis Set: (AUG-CC-PVTZ AUX)
    Blend: AUG-CC-PVTZ-JKFIT

    Orbital Energies [Eh]
    ---------------------

    Doubly Occupied:

       1A    -20.621690     2A    -15.563919     3A    -11.297523
       4A    -11.294611     5A    -11.294332     6A    -11.278820
       7A    -11.271916     8A    -11.242618     9A    -11.240768
      10A    -11.239533    11A    -11.238619    12A    -11.234477
      13A     -1.453514    14A     -1.244321    15A     -1.104327
      16A     -1.084316    17A     -1.057611    18A     -0.984658
      19A     -0.968115    20A     -0.863346    21A     -0.835855
      22A     -0.802241    23A     -0.764286    24A     -0.727622
      25A     -0.673355    26A     -0.668965    27A     -0.639539
      28A     -0.633354    29A     -0.601352    30A     -0.590662
      31A     -0.582389    32A     -0.564441    33A     -0.558923
      34A     -0.547137    35A     -0.538295    36A     -0.525403
      37A     -0.509897    38A     -0.417794    39A     -0.400222
      40A     -0.375960    41A     -0.362590    42A     -0.289160

  @DF-RHF Final Energy:  -513.37693339622217

   => Energetics <=

    Nuclear Repulsion Energy =            628.4816099805465228
    One-Electron Energy =               -1943.3401386223781628
    Two-Electron Energy =                 801.4815952456093555
    Total Energy =                       -513.3769333962221708
  Basis Set: (AUG-CC-PVTZ AUX)
    Blend: AUG-CC-PVTZ-RI
    Molecular point group: c1

    Geometry (in Angstrom), charge = 0, multiplicity = 1:

       Center              X                  Y                   Z               Mass
    ------------   -----------------  -----------------  -----------------  -----------------
         O           -2.177209339372     0.880517738525    -0.160799800370    15.994914619570
         N            0.470139660628     1.491477738525     0.090574199630    14.003074004430
         C            0.130673660628     0.172233738525     0.016184199630    12.000000000000
         C            2.463511660628    -0.539496261475    -0.042683800370    12.000000000000
         C           -1.297117339372    -0.152385261475     0.020879199630    12.000000000000
         C            1.091000660628    -0.856734261475    -0.059241800370    12.000000000000
         C            2.813101660628     0.825215738525     0.036261199630    12.000000000000
         C           -1.998810339372    -1.333443261475     0.172477199630    12.000000000000
         C            3.517375660628    -1.614119261475    -0.082265800370    12.000000000000
         C            1.798282660628     1.787557738525     0.092886199630    12.000000000000
         C           -3.403631539372    -1.005136461475     0.076336099630    12.000000000000
         C           -3.433861339372     0.350133738525    -0.124354800370    12.000000000000
         H            0.771494660628    -1.893614261475    -0.144490800370     1.007825032230
         H            3.856955660628     1.132606738525     0.044035199630     1.007825032230
         H           -1.576973339372    -2.313755261475     0.350246199630     1.007825032230
         H            3.888812660628    -1.832178261475     0.924645199630     1.007825032230
         H            3.117722660628    -2.541886261475    -0.500504800370     1.007825032230
         H            4.371773660628    -1.303749261475    -0.690462800370     1.007825032230
         H            2.046652660628     2.848442738525     0.145491199630     1.007825032230
         H           -4.224081339372    -1.676147261475     0.152903199630     1.007825032230
         H           -4.240478339372     1.056337738525    -0.256136800370     1.007825032230

  Basis Set: AUG-CC-PVTZ
    Blend: AUG-CC-PVTZ
  Basis Set: (AUG-CC-PVTZ AUX)
    Blend: AUG-CC-PVTZ-JKFIT
	 Reference Energy          =    -513.3769333962221708 [Eh]
	 Singles Energy            =      -0.0000000000000000 [Eh]
	 Same-Spin Energy          =      -0.5586796436011989 [Eh]
	 Opposite-Spin Energy      =      -1.7134052025487105 [Eh]
	 Correlation Energy        =      -2.2720848461499097 [Eh]
	 Total Energy              =    -515.6490182423721080 [Eh]

	 ================> DF-SCS-MP2 Energies <==================
	-----------------------------------------------------------
	 SCS Same-Spin Scale       =       0.3333333333333333 [-]
	 SCS Opposite-Spin Scale   =       1.2000000000000000 [-]
	 SCS Same-Spin Energy      =      -0.1862265478670663 [Eh]
	 SCS Opposite-Spin Energy  =      -2.0560862430584526 [Eh]
	 SCS Correlation Energy    =      -2.2423127909255189 [Eh]
	 SCS Total Energy          =    -515.6192461871477235 [Eh]
	-----------------------------------------------------------

  Dipole Moment: [D]
     X:     1.4997      Y:    -2.3740      Z:    -0.0041     Total:     2.8080

*** Psi4 exiting successfully. Buy a developer a beer!
