                               Psi4 1.4a3.dev225

  ==> Input File <==

--------------------------------------------------------------------------
#psi4
#
memory 32 gb

molecule  {
0 1
  O       -2.2261580     0.9189870    -0.1609950
  N        0.4211910     1.5299470     0.0903790
  C        0.0817250     0.2107030     0.0159890
  C        2.4145630    -0.5010270    -0.0428790
  C       -1.3655682    -0.1183500     0.0207481
  C        1.0420520    -0.8182650    -0.0594370
  C        2.7641530     0.8636850     0.0360660
  C       -2.0477590    -1.2949740     0.1722820
  C        3.4684270    -1.5756500    -0.0824610
  C        1.7493340     1.8260270     0.0926910
  C       -3.4286880    -0.9658200     0.0768380
  C       -3.4828100     0.3886030    -0.1245500
  H        0.7225460    -1.8551450    -0.1446860
  H        3.8080070     1.1710760     0.0438400
  H       -1.6259220    -2.2752860     0.3500510
  H        3.8398640    -1.7937090     0.9244500
  H        3.0687740    -2.5034170    -0.5007000
  H        4.3228250    -1.2652800    -0.6906580
  H        1.9977040     2.8869120     0.1452960
  H       -4.2730300    -1.6376780     0.1527080
  H       -4.2894270     1.0948070    -0.2563320
units angstrom
no_reorient  #important for SAPT in psi4, default
symmetry c1  #important for SAPT in psi4, default
}

set PROPERTIES_ORIGIN ["COM"]
properties('MP2/aug-cc-pvtz', properties = ['dipole'])
--------------------------------------------------------------------------

    Molecular point group: c1
  Charge       = 0
  Multiplicity = 1
  Basis Set: AUG-CC-PVTZ
    Blend: AUG-CC-PVTZ
  Basis Set: (AUG-CC-PVTZ AUX)
    Blend: AUG-CC-PVTZ-JKFIT

    Orbital Energies [Eh]
    ---------------------

    Doubly Occupied:

       1A    -20.622741     2A    -15.563936     3A    -11.296869
       4A    -11.295491     5A    -11.292125     6A    -11.278778
       7A    -11.271867     8A    -11.242471     9A    -11.239514
      10A    -11.238587    11A    -11.236273    12A    -11.233644
      13A     -1.458139    14A     -1.243662    15A     -1.104293
      16A     -1.090006    17A     -1.055644    18A     -0.985083
      19A     -0.968156    20A     -0.861273    21A     -0.834980
      22A     -0.802173    23A     -0.765794    24A     -0.727533
      25A     -0.673159    26A     -0.668334    27A     -0.638800
      28A     -0.635573    29A     -0.598967    30A     -0.590649
      31A     -0.579674    32A     -0.567091    33A     -0.559052
      34A     -0.547941    35A     -0.541173    36A     -0.525028
      37A     -0.508728    38A     -0.417524    39A     -0.403390
      40A     -0.374765    41A     -0.362267    42A     -0.290176

  @DF-RHF Final Energy:  -513.37794049899685

   => Energetics <=

    Nuclear Repulsion Energy =            628.9578151341836474
    One-Electron Energy =               -1944.2888636762040733
    Two-Electron Energy =                 801.9531080430235761
    Total Energy =                       -513.3779404989968498
  Basis Set: (AUG-CC-PVTZ AUX)
    Blend: AUG-CC-PVTZ-RI
    Molecular point group: c1

    Geometry (in Angstrom), charge = 0, multiplicity = 1:

       Center              X                  Y                   Z               Mass
    ------------   -----------------  -----------------  -----------------  -----------------
         O           -2.177540517629     0.880788323986    -0.160857224718    15.994914619570
         N            0.469808482371     1.491748323986     0.090516775282    14.003074004430
         C            0.130342482371     0.172504323986     0.016126775282    12.000000000000
         C            2.463180482371    -0.539225676014    -0.042741224718    12.000000000000
         C           -1.316950717629    -0.156548676014     0.020885875282    12.000000000000
         C            1.090669482371    -0.856463676014    -0.059299224718    12.000000000000
         C            2.812770482371     0.825486323986     0.036203775282    12.000000000000
         C           -1.999141517629    -1.333172676014     0.172419775282    12.000000000000
         C            3.517044482371    -1.613848676014    -0.082323224718    12.000000000000
         C            1.797951482371     1.787828323986     0.092828775282    12.000000000000
         C           -3.380070517629    -1.004018676014     0.076975775282    12.000000000000
         C           -3.434192517629     0.350404323986    -0.124412224718    12.000000000000
         H            0.771163482371    -1.893343676014    -0.144548224718     1.007825032230
         H            3.856624482371     1.132877323986     0.043977775282     1.007825032230
         H           -1.577304517629    -2.313484676014     0.350188775282     1.007825032230
         H            3.888481482371    -1.831907676014     0.924587775282     1.007825032230
         H            3.117391482371    -2.541615676014    -0.500562224718     1.007825032230
         H            4.371442482371    -1.303478676014    -0.690520224718     1.007825032230
         H            2.046321482371     2.848713323986     0.145433775282     1.007825032230
         H           -4.224412517629    -1.675876676014     0.152845775282     1.007825032230
         H           -4.240809517629     1.056608323986    -0.256194224718     1.007825032230

  Basis Set: AUG-CC-PVTZ
    Blend: AUG-CC-PVTZ
  Basis Set: (AUG-CC-PVTZ AUX)
    Blend: AUG-CC-PVTZ-JKFIT
	 Reference Energy          =    -513.3779404989968498 [Eh]
	 Singles Energy            =      -0.0000000000000000 [Eh]
	 Same-Spin Energy          =      -0.5585880711706753 [Eh]
	 Opposite-Spin Energy      =      -1.7128521342283702 [Eh]
	 Correlation Energy        =      -2.2714402053990455 [Eh]
	 Total Energy              =    -515.6493807043958668 [Eh]

	 ================> DF-SCS-MP2 Energies <==================
	-----------------------------------------------------------
	 SCS Same-Spin Scale       =       0.3333333333333333 [-]
	 SCS Opposite-Spin Scale   =       1.2000000000000000 [-]
	 SCS Same-Spin Energy      =      -0.1861960237235584 [Eh]
	 SCS Opposite-Spin Energy  =      -2.0554225610740442 [Eh]
	 SCS Correlation Energy    =      -2.2416185847976027 [Eh]
	 SCS Total Energy          =    -515.6195590837944565 [Eh]
	-----------------------------------------------------------

  Dipole Moment: [D]
     X:     1.4943      Y:    -2.3744      Z:    -0.0037     Total:     2.8055

*** Psi4 exiting successfully. Buy a developer a beer!
