                               Psi4 1.4a3.dev225

  ==> Input File <==

--------------------------------------------------------------------------
#psi4
#
memory 32 gb

molecule  {
0 1
  O       -2.2261580     0.9189870    -0.1609950
  N        0.4211910     1.5299470     0.0903790
  C        0.2216926     0.1825999     0.0127132
  C        2.4145630    -0.5010270    -0.0428790
  C       -1.3460660    -0.1139160     0.0206840
  C        1.0420520    -0.8182650    -0.0594370
  C        2.7641530     0.8636850     0.0360660
  C       -2.0477590    -1.2949740     0.1722820
  C        3.4684270    -1.5756500    -0.0824610
  C        1.7493340     1.8260270     0.0926910
  C       -3.4286880    -0.9658200     0.0768380
  C       -3.4828100     0.3886030    -0.1245500
  H        0.7225460    -1.8551450    -0.1446860
  H        3.8080070     1.1710760     0.0438400
  H       -1.6259220    -2.2752860     0.3500510
  H        3.8398640    -1.7937090     0.9244500
  H        3.0687740    -2.5034170    -0.5007000
  H        4.3228250    -1.2652800    -0.6906580
  H        1.9977040     2.8869120     0.1452960
  H       -4.2730300    -1.6376780     0.1527080
  H       -4.2894270     1.0948070    -0.2563320
units angstrom
no_reorient  #important for SAPT in psi4, default
symmetry c1  #important for SAPT in psi4, default
}

set PROPERTIES_ORIGIN ["COM"]
properties('MP2/aug-cc-pvtz', properties = ['dipole'])
--------------------------------------------------------------------------

    Molecular point group: c1
  Charge       = 0
  Multiplicity = 1
  Basis Set: AUG-CC-PVTZ
    Blend: AUG-CC-PVTZ
  Basis Set: (AUG-CC-PVTZ AUX)
    Blend: AUG-CC-PVTZ-JKFIT

    Orbital Energies [Eh]
    ---------------------

    Doubly Occupied:

       1A    -20.616838     2A    -15.568824     3A    -11.296555
       4A    -11.290897     5A    -11.284341     6A    -11.283812
       7A    -11.278886     8A    -11.243406     9A    -11.241133
      10A    -11.234035    11A    -11.227743    12A    -11.226680
      13A     -1.446497    14A     -1.256691    15A     -1.115225
      16A     -1.079014    17A     -1.056573    18A     -0.982049
      19A     -0.979392    20A     -0.854712    21A     -0.836325
      22A     -0.793638    23A     -0.759557    24A     -0.724361
      25A     -0.679085    26A     -0.676737    27A     -0.636740
      28A     -0.625837    29A     -0.597310    30A     -0.595378
      31A     -0.576044    32A     -0.560450    33A     -0.558645
      34A     -0.549664    35A     -0.537696    36A     -0.533486
      37A     -0.488242    38A     -0.435201    39A     -0.395908
      40A     -0.374597    41A     -0.369478    42A     -0.292745

  @DF-RHF Final Energy:  -513.35634550652367

   => Energetics <=

    Nuclear Repulsion Energy =            629.2134882456127798
    One-Electron Energy =               -1944.8188092959617279
    Two-Electron Energy =                 802.2489755438252814
    Total Energy =                       -513.3563455065236667
  Basis Set: (AUG-CC-PVTZ AUX)
    Blend: AUG-CC-PVTZ-RI
    Molecular point group: c1

    Geometry (in Angstrom), charge = 0, multiplicity = 1:

       Center              X                  Y                   Z               Mass
    ------------   -----------------  -----------------  -----------------  -----------------
         O           -2.189570797889     0.882573902863    -0.160605265206    15.994914619570
         N            0.457778202111     1.493533902863     0.090768734794    14.003074004430
         C            0.258279802111     0.146186802863     0.013102934794    12.000000000000
         C            2.451150202111    -0.537440097137    -0.042489265206    12.000000000000
         C           -1.309478797889    -0.150329097137     0.021073734794    12.000000000000
         C            1.078639202111    -0.854678097137    -0.059047265206    12.000000000000
         C            2.800740202111     0.827271902863     0.036455734794    12.000000000000
         C           -2.011171797889    -1.331387097137     0.172671734794    12.000000000000
         C            3.505014202111    -1.612063097137    -0.082071265206    12.000000000000
         C            1.785921202111     1.789613902863     0.093080734794    12.000000000000
         C           -3.392100797889    -1.002233097137     0.077227734794    12.000000000000
         C           -3.446222797889     0.352189902863    -0.124160265206    12.000000000000
         H            0.759133202111    -1.891558097137    -0.144296265206     1.007825032230
         H            3.844594202111     1.134662902863     0.044229734794     1.007825032230
         H           -1.589334797889    -2.311699097137     0.350440734794     1.007825032230
         H            3.876451202111    -1.830122097137     0.924839734794     1.007825032230
         H            3.105361202111    -2.539830097137    -0.500310265206     1.007825032230
         H            4.359412202111    -1.301693097137    -0.690268265206     1.007825032230
         H            2.034291202111     2.850498902863     0.145685734794     1.007825032230
         H           -4.236442797889    -1.674091097137     0.153097734794     1.007825032230
         H           -4.252839797889     1.058393902863    -0.255942265206     1.007825032230

  Basis Set: AUG-CC-PVTZ
    Blend: AUG-CC-PVTZ
  Basis Set: (AUG-CC-PVTZ AUX)
    Blend: AUG-CC-PVTZ-JKFIT
	 Reference Energy          =    -513.3563455065236667 [Eh]
	 Singles Energy            =      -0.0000000000000000 [Eh]
	 Same-Spin Energy          =      -0.5579397782878956 [Eh]
	 Opposite-Spin Energy      =      -1.7129801704948235 [Eh]
	 Correlation Energy        =      -2.2709199487827192 [Eh]
	 Total Energy              =    -515.6272654553064285 [Eh]

	 ================> DF-SCS-MP2 Energies <==================
	-----------------------------------------------------------
	 SCS Same-Spin Scale       =       0.3333333333333333 [-]
	 SCS Opposite-Spin Scale   =       1.2000000000000000 [-]
	 SCS Same-Spin Energy      =      -0.1859799260959652 [Eh]
	 SCS Opposite-Spin Energy  =      -2.0555762045937880 [Eh]
	 SCS Correlation Energy    =      -2.2415561306897533 [Eh]
	 SCS Total Energy          =    -515.5979016372134538 [Eh]
	-----------------------------------------------------------

  Dipole Moment: [D]
     X:     2.1845      Y:    -2.2386      Z:    -0.0130     Total:     3.1279

*** Psi4 exiting successfully. Buy a developer a beer!
