                               Psi4 1.4a3.dev225

  ==> Input File <==

--------------------------------------------------------------------------
#psi4
#
memory 32 gb

molecule  {
0 1
  O       -2.2261580     0.9189870    -0.1609950
  N        0.4211910     1.5299470     0.0903790
  C        0.0817250     0.2107030     0.0159890
  C        2.4145630    -0.5010270    -0.0428790
  C       -1.3460660    -0.1139160     0.0206840
  C        1.0420520    -0.8182650    -0.0594370
  C        2.7641530     0.8636850     0.0360660
  C       -2.0477590    -1.2949740     0.1722820
  C        3.3284400    -1.4329055    -0.0772032
  C        1.7493340     1.8260270     0.0926910
  C       -3.4286880    -0.9658200     0.0768380
  C       -3.4828100     0.3886030    -0.1245500
  H        0.7225460    -1.8551450    -0.1446860
  H        3.8080070     1.1710760     0.0438400
  H       -1.6259220    -2.2752860     0.3500510
  H        3.8398640    -1.7937090     0.9244500
  H        3.0687740    -2.5034170    -0.5007000
  H        4.3228250    -1.2652800    -0.6906580
  H        1.9977040     2.8869120     0.1452960
  H       -4.2730300    -1.6376780     0.1527080
  H       -4.2894270     1.0948070    -0.2563320
units angstrom
no_reorient  #important for SAPT in psi4, default
symmetry c1  #important for SAPT in psi4, default
}

set PROPERTIES_ORIGIN ["COM"]
properties('MP2/aug-cc-pvtz', properties = ['dipole'])
--------------------------------------------------------------------------

    Molecular point group: c1
  Charge       = 0
  Multiplicity = 1
  Basis Set: AUG-CC-PVTZ
    Blend: AUG-CC-PVTZ
  Basis Set: (AUG-CC-PVTZ AUX)
    Blend: AUG-CC-PVTZ-JKFIT

    Orbital Energies [Eh]
    ---------------------

    Doubly Occupied:

       1A    -20.622151     2A    -15.563733     3A    -11.297511
       4A    -11.294751     5A    -11.293573     6A    -11.278939
       7A    -11.260167     8A    -11.249717     9A    -11.242911
      10A    -11.239330    11A    -11.238685    12A    -11.234124
      13A     -1.454187    14A     -1.245671    15A     -1.137125
      16A     -1.088422    17A     -1.058374    18A     -0.985900
      19A     -0.971945    20A     -0.866143    21A     -0.830112
      22A     -0.801235    23A     -0.765686    24A     -0.732635
      25A     -0.676772    26A     -0.675015    27A     -0.650956
      28A     -0.634382    29A     -0.599254    30A     -0.588359
      31A     -0.580731    32A     -0.578961    33A     -0.565924
      34A     -0.547437    35A     -0.533866    36A     -0.514191
      37A     -0.483023    38A     -0.419414    39A     -0.402583
      40A     -0.373566    41A     -0.354670    42A     -0.288469

  @DF-RHF Final Energy:  -513.32491451743749

   => Energetics <=

    Nuclear Repulsion Energy =            632.7433533056070019
    One-Electron Energy =               -1951.6953354935781135
    Two-Electron Energy =                 805.6270676705337337
    Total Energy =                       -513.3249145174374917
  Basis Set: (AUG-CC-PVTZ AUX)
    Blend: AUG-CC-PVTZ-RI
    Molecular point group: c1

    Geometry (in Angstrom), charge = 0, multiplicity = 1:

       Center              X                  Y                   Z               Mass
    ------------   -----------------  -----------------  -----------------  -----------------
         O           -2.168451236077     0.869685290036    -0.161249033491    15.994914619570
         N            0.478897763923     1.480645290036     0.090124966509    14.003074004430
         C            0.139431763923     0.161401290036     0.015734966509    12.000000000000
         C            2.472269763923    -0.550328709964    -0.043133033491    12.000000000000
         C           -1.288359236077    -0.163217709964     0.020429966509    12.000000000000
         C            1.099758763923    -0.867566709964    -0.059691033491    12.000000000000
         C            2.821859763923     0.814383290036     0.035811966509    12.000000000000
         C           -1.990052236077    -1.344275709964     0.172027966509    12.000000000000
         C            3.386146763923    -1.482207209964    -0.077457233491    12.000000000000
         C            1.807040763923     1.776725290036     0.092436966509    12.000000000000
         C           -3.370981236077    -1.015121709964     0.076583966509    12.000000000000
         C           -3.425103236077     0.339301290036    -0.124804033491    12.000000000000
         H            0.780252763923    -1.904446709964    -0.144940033491     1.007825032230
         H            3.865713763923     1.121774290036     0.043585966509     1.007825032230
         H           -1.568215236077    -2.324587709964     0.349796966509     1.007825032230
         H            3.897570763923    -1.843010709964     0.924195966509     1.007825032230
         H            3.126480763923    -2.552718709964    -0.500954033491     1.007825032230
         H            4.380531763923    -1.314581709964    -0.690912033491     1.007825032230
         H            2.055410763923     2.837610290036     0.145041966509     1.007825032230
         H           -4.215323236077    -1.686979709964     0.152453966509     1.007825032230
         H           -4.231720236077     1.045505290036    -0.256586033491     1.007825032230

  Basis Set: AUG-CC-PVTZ
    Blend: AUG-CC-PVTZ
  Basis Set: (AUG-CC-PVTZ AUX)
    Blend: AUG-CC-PVTZ-JKFIT
	 Reference Energy          =    -513.3249145174374917 [Eh]
	 Singles Energy            =      -0.0000000000000000 [Eh]
	 Same-Spin Energy          =      -0.5626751932670735 [Eh]
	 Opposite-Spin Energy      =      -1.7183405708337005 [Eh]
	 Correlation Energy        =      -2.2810157641007738 [Eh]
	 Total Energy              =    -515.6059302815382352 [Eh]

	 ================> DF-SCS-MP2 Energies <==================
	-----------------------------------------------------------
	 SCS Same-Spin Scale       =       0.3333333333333333 [-]
	 SCS Opposite-Spin Scale   =       1.2000000000000000 [-]
	 SCS Same-Spin Energy      =      -0.1875583977556912 [Eh]
	 SCS Opposite-Spin Energy  =      -2.0620086850004404 [Eh]
	 SCS Correlation Energy    =      -2.2495670827561316 [Eh]
	 SCS Total Energy          =    -515.5744816001936215 [Eh]
	-----------------------------------------------------------

  Dipole Moment: [D]
     X:     1.4938      Y:    -2.3959      Z:     0.0129     Total:     2.8235

*** Psi4 exiting successfully. Buy a developer a beer!
