                               Psi4 1.4a3.dev225

  ==> Input File <==

--------------------------------------------------------------------------
#psi4
#
memory 32 gb

molecule  {
0 1
  O       -2.2261580     0.9189870    -0.1609950
  N        0.4211910     1.5299470     0.0903790
  C        0.0817250     0.2107030     0.0159890
  C        2.4145630    -0.5010270    -0.0428790
  C       -1.3460660    -0.1139160     0.0206840
  C        1.0420520    -0.8182650    -0.0594370
  C        2.7691083     0.8830291     0.0371850
  C       -2.0477590    -1.2949740     0.1722820
  C        3.4684270    -1.5756500    -0.0824610
  C        1.7493340     1.8260270     0.0926910
  C       -3.4286880    -0.9658200     0.0768380
  C       -3.4828100     0.3886030    -0.1245500
  H        0.7225460    -1.8551450    -0.1446860
  H        3.8080070     1.1710760     0.0438400
  H       -1.6259220    -2.2752860     0.3500510
  H        3.8398640    -1.7937090     0.9244500
  H        3.0687740    -2.5034170    -0.5007000
  H        4.3228250    -1.2652800    -0.6906580
  H        1.9977040     2.8869120     0.1452960
  H       -4.2730300    -1.6376780     0.1527080
  H       -4.2894270     1.0948070    -0.2563320
units angstrom
no_reorient  #important for SAPT in psi4, default
symmetry c1  #important for SAPT in psi4, default
}

set PROPERTIES_ORIGIN ["COM"]
properties('MP2/aug-cc-pvtz', properties = ['dipole'])
--------------------------------------------------------------------------

    Molecular point group: c1
  Charge       = 0
  Multiplicity = 1
  Basis Set: AUG-CC-PVTZ
    Blend: AUG-CC-PVTZ
  Basis Set: (AUG-CC-PVTZ AUX)
    Blend: AUG-CC-PVTZ-JKFIT

    Orbital Energies [Eh]
    ---------------------

    Doubly Occupied:

       1A    -20.622136     2A    -15.563084     3A    -11.297500
       4A    -11.295010     5A    -11.293691     6A    -11.276854
       7A    -11.274250     8A    -11.242438     9A    -11.239854
      10A    -11.239480    11A    -11.238277    12A    -11.234164
      13A     -1.454180    14A     -1.243656    15A     -1.101958
      16A     -1.088117    17A     -1.058405    18A     -0.985404
      19A     -0.968285    20A     -0.862992    21A     -0.835205
      22A     -0.800237    23A     -0.765185    24A     -0.727792
      25A     -0.674551    26A     -0.668316    27A     -0.639713
      28A     -0.633878    29A     -0.600061    30A     -0.590452
      31A     -0.579893    32A     -0.566469    33A     -0.560194
      34A     -0.547333    35A     -0.540339    36A     -0.525214
      37A     -0.507563    38A     -0.417982    39A     -0.402745
      40A     -0.375293    41A     -0.361858    42A     -0.288576

  @DF-RHF Final Energy:  -513.37652988517334

   => Energetics <=

    Nuclear Repulsion Energy =            628.6932967289700400
    One-Electron Energy =               -1943.7624802076734341
    Two-Electron Energy =                 801.6926535935301672
    Total Energy =                       -513.3765298851733405
  Basis Set: (AUG-CC-PVTZ AUX)
    Blend: AUG-CC-PVTZ-RI
    Molecular point group: c1

    Geometry (in Angstrom), charge = 0, multiplicity = 1:

       Center              X                  Y                   Z               Mass
    ------------   -----------------  -----------------  -----------------  -----------------
         O           -2.179385572802     0.878994522231    -0.160936805571    15.994914619570
         N            0.467963427198     1.489954522231     0.090437194429    14.003074004430
         C            0.128497427198     0.170710522231     0.016047194429    12.000000000000
         C            2.461335427198    -0.541019477769    -0.042820805571    12.000000000000
         C           -1.299293572802    -0.153908477769     0.020742194429    12.000000000000
         C            1.088824427198    -0.858257477769    -0.059378805571    12.000000000000
         C            2.815880727198     0.843036622231     0.037243194429    12.000000000000
         C           -2.000986572802    -1.334966477769     0.172340194429    12.000000000000
         C            3.515199427198    -1.615642477769    -0.082402805571    12.000000000000
         C            1.796106427198     1.786034522231     0.092749194429    12.000000000000
         C           -3.381915572802    -1.005812477769     0.076896194429    12.000000000000
         C           -3.436037572802     0.348610522231    -0.124491805571    12.000000000000
         H            0.769318427198    -1.895137477769    -0.144627805571     1.007825032230
         H            3.854779427198     1.131083522231     0.043898194429     1.007825032230
         H           -1.579149572802    -2.315278477769     0.350109194429     1.007825032230
         H            3.886636427198    -1.833701477769     0.924508194429     1.007825032230
         H            3.115546427198    -2.543409477769    -0.500641805571     1.007825032230
         H            4.369597427198    -1.305272477769    -0.690599805571     1.007825032230
         H            2.044476427198     2.846919522231     0.145354194429     1.007825032230
         H           -4.226257572802    -1.677670477769     0.152766194429     1.007825032230
         H           -4.242654572802     1.054814522231    -0.256273805571     1.007825032230

  Basis Set: AUG-CC-PVTZ
    Blend: AUG-CC-PVTZ
  Basis Set: (AUG-CC-PVTZ AUX)
    Blend: AUG-CC-PVTZ-JKFIT
	 Reference Energy          =    -513.3765298851733405 [Eh]
	 Singles Energy            =      -0.0000000000000000 [Eh]
	 Same-Spin Energy          =      -0.5589787432696109 [Eh]
	 Opposite-Spin Energy      =      -1.7135883013351569 [Eh]
	 Correlation Energy        =      -2.2725670446047679 [Eh]
	 Total Energy              =    -515.6490969297781248 [Eh]

	 ================> DF-SCS-MP2 Energies <==================
	-----------------------------------------------------------
	 SCS Same-Spin Scale       =       0.3333333333333333 [-]
	 SCS Opposite-Spin Scale   =       1.2000000000000000 [-]
	 SCS Same-Spin Energy      =      -0.1863262477565370 [Eh]
	 SCS Opposite-Spin Energy  =      -2.0563059616021881 [Eh]
	 SCS Correlation Energy    =      -2.2426322093587250 [Eh]
	 SCS Total Energy          =    -515.6191620945320437 [Eh]
	-----------------------------------------------------------

  Dipole Moment: [D]
     X:     1.4773      Y:    -2.3947      Z:    -0.0053     Total:     2.8137

*** Psi4 exiting successfully. Buy a developer a beer!
