                               Psi4 1.4a3.dev225

  ==> Input File <==

--------------------------------------------------------------------------
#psi4
#
memory 32 gb

molecule  {
0 1
  O       -2.2261580     0.9189870    -0.1609950
  N        0.4211910     1.5299470     0.0903790
  C        0.0817250     0.2107030     0.0159890
  C        2.4145630    -0.5010270    -0.0428790
  C       -1.3460660    -0.1139160     0.0206840
  C        1.0420520    -0.8182650    -0.0594370
  C        2.7641530     0.8636850     0.0360660
  C       -2.0477590    -1.2949740     0.1722820
  C        3.4684270    -1.5756500    -0.0824610
  C        1.7493340     1.8260270     0.0926910
  C       -3.4092768    -0.9704468     0.0781796
  C       -3.4828100     0.3886030    -0.1245500
  H        0.7225460    -1.8551450    -0.1446860
  H        3.8080070     1.1710760     0.0438400
  H       -1.6259220    -2.2752860     0.3500510
  H        3.8398640    -1.7937090     0.9244500
  H        3.0687740    -2.5034170    -0.5007000
  H        4.3228250    -1.2652800    -0.6906580
  H        1.9977040     2.8869120     0.1452960
  H       -4.2730300    -1.6376780     0.1527080
  H       -4.2894270     1.0948070    -0.2563320
units angstrom
no_reorient  #important for SAPT in psi4, default
symmetry c1  #important for SAPT in psi4, default
}

set PROPERTIES_ORIGIN ["COM"]
properties('MP2/aug-cc-pvtz', properties = ['dipole'])
--------------------------------------------------------------------------

    Molecular point group: c1
  Charge       = 0
  Multiplicity = 1
  Basis Set: AUG-CC-PVTZ
    Blend: AUG-CC-PVTZ
  Basis Set: (AUG-CC-PVTZ AUX)
    Blend: AUG-CC-PVTZ-JKFIT

    Orbital Energies [Eh]
    ---------------------

    Doubly Occupied:

       1A    -20.622697     2A    -15.563513     3A    -11.297058
       4A    -11.294347     5A    -11.293395     6A    -11.278659
       7A    -11.271785     8A    -11.242391     9A    -11.239436
      10A    -11.238306    11A    -11.237562    12A    -11.233847
      13A     -1.454495    14A     -1.244049    15A     -1.104243
      16A     -1.090956    17A     -1.057626    18A     -0.983771
      19A     -0.968062    20A     -0.862835    21A     -0.836506
      22A     -0.799083    23A     -0.765875    24A     -0.727855
      25A     -0.673021    26A     -0.668488    27A     -0.639863
      28A     -0.633951    29A     -0.599199    30A     -0.590559
      31A     -0.576600    32A     -0.568561    33A     -0.557907
      34A     -0.548033    35A     -0.541632    36A     -0.525311
      37A     -0.509774    38A     -0.417556    39A     -0.404637
      40A     -0.375665    41A     -0.362408    42A     -0.286435

  @DF-RHF Final Energy:  -513.37602692115047

   => Energetics <=

    Nuclear Repulsion Energy =            629.2294032378658812
    One-Electron Energy =               -1944.8349621217535059
    Two-Electron Energy =                 802.2295319627371555
    Total Energy =                       -513.3760269211504692
  Basis Set: (AUG-CC-PVTZ AUX)
    Blend: AUG-CC-PVTZ-RI
    Molecular point group: c1

    Geometry (in Angstrom), charge = 0, multiplicity = 1:

       Center              X                  Y                   Z               Mass
    ------------   -----------------  -----------------  -----------------  -----------------
         O           -2.180476114888     0.880802868671    -0.160953598345    15.994914619570
         N            0.466872885112     1.491762868671     0.090420401655    14.003074004430
         C            0.127406885112     0.172518868671     0.016030401655    12.000000000000
         C            2.460244885112    -0.539211131329    -0.042837598345    12.000000000000
         C           -1.300384114888    -0.152100131329     0.020725401655    12.000000000000
         C            1.087733885112    -0.856449131329    -0.059395598345    12.000000000000
         C            2.809834885112     0.825500868671     0.036107401655    12.000000000000
         C           -2.002077114888    -1.333158131329     0.172323401655    12.000000000000
         C            3.514108885112    -1.613834131329    -0.082419598345    12.000000000000
         C            1.795015885112     1.787842868671     0.092732401655    12.000000000000
         C           -3.363594914888    -1.008630931329     0.078221001655    12.000000000000
         C           -3.437128114888     0.350418868671    -0.124508598345    12.000000000000
         H            0.768227885112    -1.893329131329    -0.144644598345     1.007825032230
         H            3.853688885112     1.132891868671     0.043881401655     1.007825032230
         H           -1.580240114888    -2.313470131329     0.350092401655     1.007825032230
         H            3.885545885112    -1.831893131329     0.924491401655     1.007825032230
         H            3.114455885112    -2.541601131329    -0.500658598345     1.007825032230
         H            4.368506885112    -1.303464131329    -0.690616598345     1.007825032230
         H            2.043385885112     2.848727868671     0.145337401655     1.007825032230
         H           -4.227348114888    -1.675862131329     0.152749401655     1.007825032230
         H           -4.243745114888     1.056622868671    -0.256290598345     1.007825032230

  Basis Set: AUG-CC-PVTZ
    Blend: AUG-CC-PVTZ
  Basis Set: (AUG-CC-PVTZ AUX)
    Blend: AUG-CC-PVTZ-JKFIT
	 Reference Energy          =    -513.3760269211504692 [Eh]
	 Singles Energy            =      -0.0000000000000000 [Eh]
	 Same-Spin Energy          =      -0.5595266397888409 [Eh]
	 Opposite-Spin Energy      =      -1.7140437615410562 [Eh]
	 Correlation Energy        =      -2.2735704013298972 [Eh]
	 Total Energy              =    -515.6495973224804175 [Eh]

	 ================> DF-SCS-MP2 Energies <==================
	-----------------------------------------------------------
	 SCS Same-Spin Scale       =       0.3333333333333333 [-]
	 SCS Opposite-Spin Scale   =       1.2000000000000000 [-]
	 SCS Same-Spin Energy      =      -0.1865088799296136 [Eh]
	 SCS Opposite-Spin Energy  =      -2.0568525138492673 [Eh]
	 SCS Correlation Energy    =      -2.2433613937788808 [Eh]
	 SCS Total Energy          =    -515.6193883149293242 [Eh]
	-----------------------------------------------------------

  Dipole Moment: [D]
     X:     1.4679      Y:    -2.3698      Z:    -0.0055     Total:     2.7876

*** Psi4 exiting successfully. Buy a developer a beer!
