                               Psi4 1.4a3.dev225

  ==> Input File <==

--------------------------------------------------------------------------
#psi4
#
memory 32 gb

molecule  {
0 1
  O       -2.2261580     0.9189870    -0.1609950
  N        0.4211910     1.5299470     0.0903790
  C        0.0817250     0.2107030     0.0159890
  C        2.4145630    -0.5010270    -0.0428790
  C       -1.2485550    -0.0917461     0.0203634
  C        1.0420520    -0.8182650    -0.0594370
  C        2.7641530     0.8636850     0.0360660
  C       -2.0477590    -1.2949740     0.1722820
  C        3.4684270    -1.5756500    -0.0824610
  C        1.7493340     1.8260270     0.0926910
  C       -3.4286880    -0.9658200     0.0768380
  C       -3.4828100     0.3886030    -0.1245500
  H        0.7225460    -1.8551450    -0.1446860
  H        3.8080070     1.1710760     0.0438400
  H       -1.6259220    -2.2752860     0.3500510
  H        3.8398640    -1.7937090     0.9244500
  H        3.0687740    -2.5034170    -0.5007000
  H        4.3228250    -1.2652800    -0.6906580
  H        1.9977040     2.8869120     0.1452960
  H       -4.2730300    -1.6376780     0.1527080
  H       -4.2894270     1.0948070    -0.2563320
units angstrom
no_reorient  #important for SAPT in psi4, default
symmetry c1  #important for SAPT in psi4, default
}

set PROPERTIES_ORIGIN ["COM"]
properties('MP2/aug-cc-pvtz', properties = ['dipole'])
--------------------------------------------------------------------------

    Molecular point group: c1
  Charge       = 0
  Multiplicity = 1
  Basis Set: AUG-CC-PVTZ
    Blend: AUG-CC-PVTZ
  Basis Set: (AUG-CC-PVTZ AUX)
    Blend: AUG-CC-PVTZ-JKFIT

    Orbital Energies [Eh]
    ---------------------

    Doubly Occupied:

       1A    -20.617758     2A    -15.561412     3A    -11.300811
       4A    -11.299190     5A    -11.286519     6A    -11.277845
       7A    -11.271072     8A    -11.254228     9A    -11.241873
      10A    -11.238832    11A    -11.236784    12A    -11.236289
      13A     -1.434220    14A     -1.246726    15A     -1.103760
      16A     -1.083519    17A     -1.067493    18A     -0.979841
      19A     -0.966947    20A     -0.874733    21A     -0.840290
      22A     -0.791922    23A     -0.760688    24A     -0.728076
      25A     -0.672655    26A     -0.670179    27A     -0.647235
      28A     -0.623768    29A     -0.603869    30A     -0.589826
      31A     -0.576082    32A     -0.565783    33A     -0.557969
      34A     -0.546633    35A     -0.530869    36A     -0.524797
      37A     -0.512051    38A     -0.417113    39A     -0.400205
      40A     -0.382455    41A     -0.362988    42A     -0.275827

  @DF-RHF Final Energy:  -513.35533006917274

   => Energetics <=

    Nuclear Repulsion Energy =            628.9459744152842404
    One-Electron Energy =               -1944.2803421759690536
    Two-Electron Energy =                 801.9790376915121897
    Total Energy =                       -513.3553300691727372
  Basis Set: (AUG-CC-PVTZ AUX)
    Blend: AUG-CC-PVTZ-RI
    Molecular point group: c1

    Geometry (in Angstrom), charge = 0, multiplicity = 1:

       Center              X                  Y                   Z               Mass
    ------------   -----------------  -----------------  -----------------  -----------------
         O           -2.186367904320     0.878781346031    -0.160828203243    15.994914619570
         N            0.460981095680     1.489741346031     0.090545796757    14.003074004430
         C            0.121515095680     0.170497346031     0.016155796757    12.000000000000
         C            2.454353095680    -0.541232653969    -0.042712203243    12.000000000000
         C           -1.208764904320    -0.131951753969     0.020530196757    12.000000000000
         C            1.081842095680    -0.858470653969    -0.059270203243    12.000000000000
         C            2.803943095680     0.823479346031     0.036232796757    12.000000000000
         C           -2.007968904320    -1.335179653969     0.172448796757    12.000000000000
         C            3.508217095680    -1.615855653969    -0.082294203243    12.000000000000
         C            1.789124095680     1.785821346031     0.092857796757    12.000000000000
         C           -3.388897904320    -1.006025653969     0.077004796757    12.000000000000
         C           -3.443019904320     0.348397346031    -0.124383203243    12.000000000000
         H            0.762336095680    -1.895350653969    -0.144519203243     1.007825032230
         H            3.847797095680     1.130870346031     0.044006796757     1.007825032230
         H           -1.586131904320    -2.315491653969     0.350217796757     1.007825032230
         H            3.879654095680    -1.833914653969     0.924616796757     1.007825032230
         H            3.108564095680    -2.543622653969    -0.500533203243     1.007825032230
         H            4.362615095680    -1.305485653969    -0.690491203243     1.007825032230
         H            2.037494095680     2.846706346031     0.145462796757     1.007825032230
         H           -4.233239904320    -1.677883653969     0.152874796757     1.007825032230
         H           -4.249636904320     1.054601346031    -0.256165203243     1.007825032230

  Basis Set: AUG-CC-PVTZ
    Blend: AUG-CC-PVTZ
  Basis Set: (AUG-CC-PVTZ AUX)
    Blend: AUG-CC-PVTZ-JKFIT
	 Reference Energy          =    -513.3553300691727372 [Eh]
	 Singles Energy            =      -0.0000000000000000 [Eh]
	 Same-Spin Energy          =      -0.5621429846479111 [Eh]
	 Opposite-Spin Energy      =      -1.7186623013033282 [Eh]
	 Correlation Energy        =      -2.2808052859512395 [Eh]
	 Total Energy              =    -515.6361353551239972 [Eh]

	 ================> DF-SCS-MP2 Energies <==================
	-----------------------------------------------------------
	 SCS Same-Spin Scale       =       0.3333333333333333 [-]
	 SCS Opposite-Spin Scale   =       1.2000000000000000 [-]
	 SCS Same-Spin Energy      =      -0.1873809948826370 [Eh]
	 SCS Opposite-Spin Energy  =      -2.0623947615639939 [Eh]
	 SCS Correlation Energy    =      -2.2497757564466307 [Eh]
	 SCS Total Energy          =    -515.6051058256193755 [Eh]
	-----------------------------------------------------------

  Dipole Moment: [D]
     X:     1.4249      Y:    -2.3646      Z:    -0.0087     Total:     2.7607

*** Psi4 exiting successfully. Buy a developer a beer!
