                               Psi4 1.4a3.dev225

  ==> Input File <==

--------------------------------------------------------------------------
#psi4
#
memory 32 gb

molecule  {
0 1
  O       -2.2261580     0.9189870    -0.1609950
  N        0.4211910     1.5299470     0.0903790
  C        0.0587178     0.2168027     0.0166153
  C        2.4145630    -0.5010270    -0.0428790
  C       -1.3460660    -0.1139160     0.0206840
  C        1.0420520    -0.8182650    -0.0594370
  C        2.7641530     0.8636850     0.0360660
  C       -2.0477590    -1.2949740     0.1722820
  C        3.4684270    -1.5756500    -0.0824610
  C        1.7493340     1.8260270     0.0926910
  C       -3.4286880    -0.9658200     0.0768380
  C       -3.4828100     0.3886030    -0.1245500
  H        0.7225460    -1.8551450    -0.1446860
  H        3.8080070     1.1710760     0.0438400
  H       -1.6259220    -2.2752860     0.3500510
  H        3.8398640    -1.7937090     0.9244500
  H        3.0687740    -2.5034170    -0.5007000
  H        4.3228250    -1.2652800    -0.6906580
  H        1.9977040     2.8869120     0.1452960
  H       -4.2730300    -1.6376780     0.1527080
  H       -4.2894270     1.0948070    -0.2563320
units angstrom
no_reorient  #important for SAPT in psi4, default
symmetry c1  #important for SAPT in psi4, default
}

set PROPERTIES_ORIGIN ["COM"]
properties('MP2/aug-cc-pvtz', properties = ['dipole'])
--------------------------------------------------------------------------

    Molecular point group: c1
  Charge       = 0
  Multiplicity = 1
  Basis Set: AUG-CC-PVTZ
    Blend: AUG-CC-PVTZ
  Basis Set: (AUG-CC-PVTZ AUX)
    Blend: AUG-CC-PVTZ-JKFIT

    Orbital Energies [Eh]
    ---------------------

    Doubly Occupied:

       1A    -20.622638     2A    -15.562946     3A    -11.296938
       4A    -11.294968     5A    -11.294845     6A    -11.277967
       7A    -11.270694     8A    -11.243822     9A    -11.241001
      10A    -11.238832    11A    -11.237996    12A    -11.235103
      13A     -1.455194    14A     -1.242308    15A     -1.103026
      16A     -1.089460    17A     -1.059151    18A     -0.984472
      19A     -0.965744    20A     -0.865304    21A     -0.836036
      22A     -0.801392    23A     -0.765572    24A     -0.728559
      25A     -0.672178    26A     -0.667259    27A     -0.640637
      28A     -0.634941    29A     -0.599465    30A     -0.589765
      31A     -0.579911    32A     -0.567393    33A     -0.558349
      34A     -0.546941    35A     -0.542153    36A     -0.523835
      37A     -0.511652    38A     -0.414351    39A     -0.403621
      40A     -0.377182    41A     -0.361088    42A     -0.286573

  @DF-RHF Final Energy:  -513.37559613338249

   => Energetics <=

    Nuclear Repulsion Energy =            628.9209687220115939
    One-Electron Energy =               -1944.2106088095965788
    Two-Electron Energy =                 801.9140439542024978
    Total Energy =                       -513.3755961333824871
  Basis Set: (AUG-CC-PVTZ AUX)
    Blend: AUG-CC-PVTZ-RI
    Molecular point group: c1

    Geometry (in Angstrom), charge = 0, multiplicity = 1:

       Center              X                  Y                   Z               Mass
    ------------   -----------------  -----------------  -----------------  -----------------
         O           -2.177276103098     0.879993669680    -0.160899636658    15.994914619570
         N            0.470072896902     1.490953669680     0.090474363342    14.003074004430
         C            0.107599696902     0.177809369680     0.016710663342    12.000000000000
         C            2.463444896902    -0.540020330320    -0.042783636658    12.000000000000
         C           -1.297184103098    -0.152909330320     0.020779363342    12.000000000000
         C            1.090933896902    -0.857258330320    -0.059341636658    12.000000000000
         C            2.813034896902     0.824691669680     0.036161363342    12.000000000000
         C           -1.998877103098    -1.333967330320     0.172377363342    12.000000000000
         C            3.517308896902    -1.614643330320    -0.082365636658    12.000000000000
         C            1.798215896902     1.787033669680     0.092786363342    12.000000000000
         C           -3.379806103098    -1.004813330320     0.076933363342    12.000000000000
         C           -3.433928103098     0.349609669680    -0.124454636658    12.000000000000
         H            0.771427896902    -1.894138330320    -0.144590636658     1.007825032230
         H            3.856888896902     1.132082669680     0.043935363342     1.007825032230
         H           -1.577040103098    -2.314279330320     0.350146363342     1.007825032230
         H            3.888745896902    -1.832702330320     0.924545363342     1.007825032230
         H            3.117655896902    -2.542410330320    -0.500604636658     1.007825032230
         H            4.371706896902    -1.304273330320    -0.690562636658     1.007825032230
         H            2.046585896902     2.847918669680     0.145391363342     1.007825032230
         H           -4.224148103098    -1.676671330320     0.152803363342     1.007825032230
         H           -4.240545103098     1.055813669680    -0.256236636658     1.007825032230

  Basis Set: AUG-CC-PVTZ
    Blend: AUG-CC-PVTZ
  Basis Set: (AUG-CC-PVTZ AUX)
    Blend: AUG-CC-PVTZ-JKFIT
	 Reference Energy          =    -513.3755961333824871 [Eh]
	 Singles Energy            =      -0.0000000000000000 [Eh]
	 Same-Spin Energy          =      -0.5594095694311052 [Eh]
	 Opposite-Spin Energy      =      -1.7140762728972123 [Eh]
	 Correlation Energy        =      -2.2734858423283173 [Eh]
	 Total Energy              =    -515.6490819757108284 [Eh]

	 ================> DF-SCS-MP2 Energies <==================
	-----------------------------------------------------------
	 SCS Same-Spin Scale       =       0.3333333333333333 [-]
	 SCS Opposite-Spin Scale   =       1.2000000000000000 [-]
	 SCS Same-Spin Energy      =      -0.1864698564770351 [Eh]
	 SCS Opposite-Spin Energy  =      -2.0568915274766546 [Eh]
	 SCS Correlation Energy    =      -2.2433613839536894 [Eh]
	 SCS Total Energy          =    -515.6189575173361845 [Eh]
	-----------------------------------------------------------

  Dipole Moment: [D]
     X:     1.3667      Y:    -2.3927      Z:    -0.0031     Total:     2.7555

*** Psi4 exiting successfully. Buy a developer a beer!
