                               Psi4 1.4a3.dev225

  ==> Input File <==

--------------------------------------------------------------------------
#psi4
#
memory 32 gb

molecule  {
0 1
  O       -2.2261580     0.9189870    -0.1609950
  N        0.4211910     1.5299470     0.0903790
  C        0.0817250     0.2107030     0.0159890
  C        2.4145630    -0.5010270    -0.0428790
  C       -1.3460660    -0.1139160     0.0206840
  C        1.0420520    -0.8182650    -0.0594370
  C        2.7641530     0.8636850     0.0360660
  C       -2.0477590    -1.2949740     0.1722820
  C        3.4684270    -1.5756500    -0.0824610
  C        1.7493340     1.8260270     0.0926910
  C       -3.4286880    -0.9658200     0.0768380
  C       -3.4828100     0.3886030    -0.1245500
  H        0.7225460    -1.8551450    -0.1446860
  H        3.8080070     1.1710760     0.0438400
  H       -1.6649115    -2.1846778     0.3336202
  H        3.8398640    -1.7937090     0.9244500
  H        3.0687740    -2.5034170    -0.5007000
  H        4.3228250    -1.2652800    -0.6906580
  H        1.9977040     2.8869120     0.1452960
  H       -4.2730300    -1.6376780     0.1527080
  H       -4.2894270     1.0948070    -0.2563320
units angstrom
no_reorient  #important for SAPT in psi4, default
symmetry c1  #important for SAPT in psi4, default
}

set PROPERTIES_ORIGIN ["COM"]
properties('MP2/aug-cc-pvtz', properties = ['dipole'])
--------------------------------------------------------------------------

    Molecular point group: c1
  Charge       = 0
  Multiplicity = 1
  Basis Set: AUG-CC-PVTZ
    Blend: AUG-CC-PVTZ
  Basis Set: (AUG-CC-PVTZ AUX)
    Blend: AUG-CC-PVTZ-JKFIT

    Orbital Energies [Eh]
    ---------------------

    Doubly Occupied:

       1A    -20.621326     2A    -15.563800     3A    -11.296837
       4A    -11.294510     5A    -11.292674     6A    -11.278861
       7A    -11.272037     8A    -11.242772     9A    -11.239596
      10A    -11.238598    11A    -11.233144    12A    -11.227245
      13A     -1.453376    14A     -1.244285    15A     -1.104458
      16A     -1.090063    17A     -1.057651    18A     -0.985091
      19A     -0.968323    20A     -0.865242    21A     -0.836240
      22A     -0.807866    23A     -0.770833    24A     -0.730210
      25A     -0.673347    26A     -0.669337    27A     -0.640083
      28A     -0.633145    29A     -0.602378    30A     -0.590731
      31A     -0.586641    32A     -0.569313    33A     -0.559592
      34A     -0.547626    35A     -0.540377    36A     -0.525439
      37A     -0.509986    38A     -0.417748    39A     -0.402107
      40A     -0.375855    41A     -0.362648    42A     -0.287741

  @DF-RHF Final Energy:  -513.37112127115017

   => Energetics <=

    Nuclear Repulsion Energy =            629.4570022785190986
    One-Electron Energy =               -1945.2379868931830060
    Two-Electron Energy =                 802.4098633435136207
    Total Energy =                       -513.3711212711501730
  Basis Set: (AUG-CC-PVTZ AUX)
    Blend: AUG-CC-PVTZ-RI
    Molecular point group: c1

    Geometry (in Angstrom), charge = 0, multiplicity = 1:

       Center              X                  Y                   Z               Mass
    ------------   -----------------  -----------------  -----------------  -----------------
         O           -2.178764719223     0.879879751325    -0.160748286865    15.994914619570
         N            0.468584280777     1.490839751325     0.090625713135    14.003074004430
         C            0.129118280777     0.171595751325     0.016235713135    12.000000000000
         C            2.461956280777    -0.540134248675    -0.042632286865    12.000000000000
         C           -1.298672719223    -0.153023248675     0.020930713135    12.000000000000
         C            1.089445280777    -0.857372248675    -0.059190286865    12.000000000000
         C            2.811546280777     0.824577751325     0.036312713135    12.000000000000
         C           -2.000365719223    -1.334081248675     0.172528713135    12.000000000000
         C            3.515820280777    -1.614757248675    -0.082214286865    12.000000000000
         C            1.796727280777     1.786919751325     0.092937713135    12.000000000000
         C           -3.381294719223    -1.004927248675     0.077084713135    12.000000000000
         C           -3.435416719223     0.349495751325    -0.124303286865    12.000000000000
         H            0.769939280777    -1.894252248675    -0.144439286865     1.007825032230
         H            3.855400280777     1.131968751325     0.044086713135     1.007825032230
         H           -1.617518219223    -2.223785048675     0.333866913135     1.007825032230
         H            3.887257280777    -1.832816248675     0.924696713135     1.007825032230
         H            3.116167280777    -2.542524248675    -0.500453286865     1.007825032230
         H            4.370218280777    -1.304387248675    -0.690411286865     1.007825032230
         H            2.045097280777     2.847804751325     0.145542713135     1.007825032230
         H           -4.225636719223    -1.676785248675     0.152954713135     1.007825032230
         H           -4.242033719223     1.055699751325    -0.256085286865     1.007825032230

  Basis Set: AUG-CC-PVTZ
    Blend: AUG-CC-PVTZ
  Basis Set: (AUG-CC-PVTZ AUX)
    Blend: AUG-CC-PVTZ-JKFIT
	 Reference Energy          =    -513.3711212711501730 [Eh]
	 Singles Energy            =      -0.0000000000000000 [Eh]
	 Same-Spin Energy          =      -0.5589086134321395 [Eh]
	 Opposite-Spin Energy      =      -1.7131103648105055 [Eh]
	 Correlation Energy        =      -2.2720189782426452 [Eh]
	 Total Energy              =    -515.6431402493927862 [Eh]

	 ================> DF-SCS-MP2 Energies <==================
	-----------------------------------------------------------
	 SCS Same-Spin Scale       =       0.3333333333333333 [-]
	 SCS Opposite-Spin Scale   =       1.2000000000000000 [-]
	 SCS Same-Spin Energy      =      -0.1863028711440465 [Eh]
	 SCS Opposite-Spin Energy  =      -2.0557324377726065 [Eh]
	 SCS Correlation Energy    =      -2.2420353089166531 [Eh]
	 SCS Total Energy          =    -515.6131565800668568 [Eh]
	-----------------------------------------------------------

  Dipole Moment: [D]
     X:     1.5019      Y:    -2.3694      Z:    -0.0051     Total:     2.8053

*** Psi4 exiting successfully. Buy a developer a beer!
