                               Psi4 1.4a3.dev225

  ==> Input File <==

--------------------------------------------------------------------------
#psi4
#
memory 32 gb

molecule  {
0 1
  O       -2.2261580     0.9189870    -0.1609950
  N        0.4211910     1.5299470     0.0903790
  C        0.0817250     0.2107030     0.0159890
  C        2.4296445    -0.4859911    -0.0582745
  C       -1.3460660    -0.1139160     0.0206840
  C        1.0420520    -0.8182650    -0.0594370
  C        2.7641530     0.8636850     0.0360660
  C       -2.0477590    -1.2949740     0.1722820
  C        3.4684270    -1.5756500    -0.0824610
  C        1.7493340     1.8260270     0.0926910
  C       -3.4286880    -0.9658200     0.0768380
  C       -3.4828100     0.3886030    -0.1245500
  H        0.7225460    -1.8551450    -0.1446860
  H        3.8080070     1.1710760     0.0438400
  H       -1.6259220    -2.2752860     0.3500510
  H        3.8398640    -1.7937090     0.9244500
  H        3.0687740    -2.5034170    -0.5007000
  H        4.3228250    -1.2652800    -0.6906580
  H        1.9977040     2.8869120     0.1452960
  H       -4.2730300    -1.6376780     0.1527080
  H       -4.2894270     1.0948070    -0.2563320
units angstrom
no_reorient  #important for SAPT in psi4, default
symmetry c1  #important for SAPT in psi4, default
}

set PROPERTIES_ORIGIN ["COM"]
properties('MP2/aug-cc-pvtz', properties = ['dipole'])
--------------------------------------------------------------------------

    Molecular point group: c1
  Charge       = 0
  Multiplicity = 1
  Basis Set: AUG-CC-PVTZ
    Blend: AUG-CC-PVTZ
  Basis Set: (AUG-CC-PVTZ AUX)
    Blend: AUG-CC-PVTZ-JKFIT

    Orbital Energies [Eh]
    ---------------------

    Doubly Occupied:

       1A    -20.621591     2A    -15.564066     3A    -11.296934
       4A    -11.293705     5A    -11.292719     6A    -11.279918
       7A    -11.272051     8A    -11.243977     9A    -11.239601
      10A    -11.238338    11A    -11.237389    12A    -11.233540
      13A     -1.453602    14A     -1.244360    15A     -1.104566
      16A     -1.087561    17A     -1.057608    18A     -0.984484
      19A     -0.967700    20A     -0.862816    21A     -0.836892
      22A     -0.800249    23A     -0.764372    24A     -0.727212
      25A     -0.673400    26A     -0.669070    27A     -0.639852
      28A     -0.633376    29A     -0.599485    30A     -0.590698
      31A     -0.578562    32A     -0.566031    33A     -0.559268
      34A     -0.546564    35A     -0.541183    36A     -0.525409
      37A     -0.509455    38A     -0.418037    39A     -0.402365
      40A     -0.377530    41A     -0.360839    42A     -0.287779

  @DF-RHF Final Energy:  -513.37638765404574

   => Energetics <=

    Nuclear Repulsion Energy =            628.8600126036684514
    One-Electron Energy =               -1944.1044929875624803
    Two-Electron Energy =                 801.8680927298481720
    Total Energy =                       -513.3763876540457431
  Basis Set: (AUG-CC-PVTZ AUX)
    Blend: AUG-CC-PVTZ-RI
    Molecular point group: c1

    Geometry (in Angstrom), charge = 0, multiplicity = 1:

       Center              X                  Y                   Z               Mass
    ------------   -----------------  -----------------  -----------------  -----------------
         O           -2.180149485618     0.879319529558    -0.159690964268    15.994914619570
         N            0.467199514382     1.490279529558     0.091683035732    14.003074004430
         C            0.127733514382     0.171035529558     0.017293035732    12.000000000000
         C            2.475653014382    -0.525658570442    -0.056970464268    12.000000000000
         C           -1.300057485618    -0.153583470442     0.021988035732    12.000000000000
         C            1.088060514382    -0.857932470442    -0.058132964268    12.000000000000
         C            2.810161514382     0.824017529558     0.037370035732    12.000000000000
         C           -2.001750485618    -1.334641470442     0.173586035732    12.000000000000
         C            3.514435514382    -1.615317470442    -0.081156964268    12.000000000000
         C            1.795342514382     1.786359529558     0.093995035732    12.000000000000
         C           -3.382679485618    -1.005487470442     0.078142035732    12.000000000000
         C           -3.436801485618     0.348935529558    -0.123245964268    12.000000000000
         H            0.768554514382    -1.894812470442    -0.143381964268     1.007825032230
         H            3.854015514382     1.131408529558     0.045144035732     1.007825032230
         H           -1.579913485618    -2.314953470442     0.351355035732     1.007825032230
         H            3.885872514382    -1.833376470442     0.925754035732     1.007825032230
         H            3.114782514382    -2.543084470442    -0.499395964268     1.007825032230
         H            4.368833514382    -1.304947470442    -0.689353964268     1.007825032230
         H            2.043712514382     2.847244529558     0.146600035732     1.007825032230
         H           -4.227021485618    -1.677345470442     0.154012035732     1.007825032230
         H           -4.243418485618     1.055139529558    -0.255027964268     1.007825032230

  Basis Set: AUG-CC-PVTZ
    Blend: AUG-CC-PVTZ
  Basis Set: (AUG-CC-PVTZ AUX)
    Blend: AUG-CC-PVTZ-JKFIT
	 Reference Energy          =    -513.3763876540457431 [Eh]
	 Singles Energy            =      -0.0000000000000000 [Eh]
	 Same-Spin Energy          =      -0.5591074136877444 [Eh]
	 Opposite-Spin Energy      =      -1.7137065506557321 [Eh]
	 Correlation Energy        =      -2.2728139643434764 [Eh]
	 Total Energy              =    -515.6492016183892702 [Eh]

	 ================> DF-SCS-MP2 Energies <==================
	-----------------------------------------------------------
	 SCS Same-Spin Scale       =       0.3333333333333333 [-]
	 SCS Opposite-Spin Scale   =       1.2000000000000000 [-]
	 SCS Same-Spin Energy      =      -0.1863691378959148 [Eh]
	 SCS Opposite-Spin Energy  =      -2.0564478607868786 [Eh]
	 SCS Correlation Energy    =      -2.2428169986827933 [Eh]
	 SCS Total Energy          =    -515.6192046527285129 [Eh]
	-----------------------------------------------------------

  Dipole Moment: [D]
     X:     1.4987      Y:    -2.3645      Z:     0.0028     Total:     2.7994

*** Psi4 exiting successfully. Buy a developer a beer!
