                               Psi4 1.4a3.dev225

  ==> Input File <==

--------------------------------------------------------------------------
#psi4
#
memory 32 gb

molecule  {
0 1
  O       -2.2261580     0.9189870    -0.1609950
  N        0.4211910     1.5299470     0.0903790
  C        0.0817250     0.2107030     0.0159890
  C        2.4145630    -0.5010270    -0.0428790
  C       -1.3460660    -0.1139160     0.0206840
  C        1.0420520    -0.8182650    -0.0594370
  C        2.7641530     0.8636850     0.0360660
  C       -2.0477590    -1.2949740     0.1722820
  C        3.4684270    -1.5756500    -0.0824610
  C        1.7493340     1.8260270     0.0926910
  C       -3.4286880    -0.9658200     0.0768380
  C       -3.4828100     0.3886030    -0.1245500
  H        0.7225460    -1.8551450    -0.1446860
  H        3.9998565     1.2275713     0.0452688
  H       -1.6259220    -2.2752860     0.3500510
  H        3.8398640    -1.7937090     0.9244500
  H        3.0687740    -2.5034170    -0.5007000
  H        4.3228250    -1.2652800    -0.6906580
  H        1.9977040     2.8869120     0.1452960
  H       -4.2730300    -1.6376780     0.1527080
  H       -4.2894270     1.0948070    -0.2563320
units angstrom
no_reorient  #important for SAPT in psi4, default
symmetry c1  #important for SAPT in psi4, default
}

set PROPERTIES_ORIGIN ["COM"]
properties('MP2/aug-cc-pvtz', properties = ['dipole'])
--------------------------------------------------------------------------

    Molecular point group: c1
  Charge       = 0
  Multiplicity = 1
  Basis Set: AUG-CC-PVTZ
    Blend: AUG-CC-PVTZ
  Basis Set: (AUG-CC-PVTZ AUX)
    Blend: AUG-CC-PVTZ-JKFIT

    Orbital Energies [Eh]
    ---------------------

    Doubly Occupied:

       1A    -20.622596     2A    -15.565607     3A    -11.298041
       4A    -11.295665     5A    -11.293923     6A    -11.281013
       7A    -11.274377     8A    -11.259759     9A    -11.244308
      10A    -11.239727    11A    -11.239498    12A    -11.234484
      13A     -1.454636    14A     -1.245785    15A     -1.104239
      16A     -1.088358    17A     -1.057830    18A     -0.981990
      19A     -0.968209    20A     -0.858444    21A     -0.837238
      22A     -0.800802    23A     -0.764761    24A     -0.728544
      25A     -0.670331    26A     -0.656124    27A     -0.635687
      28A     -0.633389    29A     -0.598986    30A     -0.590682
      31A     -0.573336    32A     -0.566578    33A     -0.550351
      34A     -0.548210    35A     -0.541159    36A     -0.526773
      37A     -0.500150    38A     -0.418203    39A     -0.403239
      40A     -0.377238    41A     -0.363999    42A     -0.288848

  @DF-RHF Final Energy:  -513.35487013324996

   => Energetics <=

    Nuclear Repulsion Energy =            627.9794567238641321
    One-Electron Energy =               -1942.3024197183369779
    Two-Electron Energy =                 800.9680928612228854
    Total Energy =                       -513.3548701332499604
  Basis Set: (AUG-CC-PVTZ AUX)
    Blend: AUG-CC-PVTZ-RI
    Molecular point group: c1

    Geometry (in Angstrom), charge = 0, multiplicity = 1:

       Center              X                  Y                   Z               Mass
    ------------   -----------------  -----------------  -----------------  -----------------
         O           -2.180227268052     0.880095883703    -0.160861441649    15.994914619570
         N            0.467121731948     1.491055883703     0.090512558351    14.003074004430
         C            0.127655731948     0.171811883703     0.016122558351    12.000000000000
         C            2.460493731948    -0.539918116297    -0.042745441649    12.000000000000
         C           -1.300135268052    -0.152807116297     0.020817558351    12.000000000000
         C            1.087982731948    -0.857156116297    -0.059303441649    12.000000000000
         C            2.810083731948     0.824793883703     0.036199558351    12.000000000000
         C           -2.001828268052    -1.333865116297     0.172415558351    12.000000000000
         C            3.514357731948    -1.614541116297    -0.082327441649    12.000000000000
         C            1.795264731948     1.787135883703     0.092824558351    12.000000000000
         C           -3.382757268052    -1.004711116297     0.076971558351    12.000000000000
         C           -3.436879268052     0.349711883703    -0.124416441649    12.000000000000
         H            0.768476731948    -1.894036116297    -0.144552441649     1.007825032230
         H            4.045787231948     1.188680183703     0.045402358351     1.007825032230
         H           -1.579991268052    -2.314177116297     0.350184558351     1.007825032230
         H            3.885794731948    -1.832600116297     0.924583558351     1.007825032230
         H            3.114704731948    -2.542308116297    -0.500566441649     1.007825032230
         H            4.368755731948    -1.304171116297    -0.690524441649     1.007825032230
         H            2.043634731948     2.848020883703     0.145429558351     1.007825032230
         H           -4.227099268052    -1.676569116297     0.152841558351     1.007825032230
         H           -4.243496268052     1.055915883703    -0.256198441649     1.007825032230

  Basis Set: AUG-CC-PVTZ
    Blend: AUG-CC-PVTZ
  Basis Set: (AUG-CC-PVTZ AUX)
    Blend: AUG-CC-PVTZ-JKFIT
	 Reference Energy          =    -513.3548701332499604 [Eh]
	 Singles Energy            =      -0.0000000000000000 [Eh]
	 Same-Spin Energy          =      -0.5596436758114922 [Eh]
	 Opposite-Spin Energy      =      -1.7158732216633306 [Eh]
	 Correlation Energy        =      -2.2755168974748230 [Eh]
	 Total Energy              =    -515.6303870307248189 [Eh]

	 ================> DF-SCS-MP2 Energies <==================
	-----------------------------------------------------------
	 SCS Same-Spin Scale       =       0.3333333333333333 [-]
	 SCS Opposite-Spin Scale   =       1.2000000000000000 [-]
	 SCS Same-Spin Energy      =      -0.1865478919371641 [Eh]
	 SCS Opposite-Spin Energy  =      -2.0590478659959968 [Eh]
	 SCS Correlation Energy    =      -2.2455957579331609 [Eh]
	 SCS Total Energy          =    -515.6004658911831484 [Eh]
	-----------------------------------------------------------

  Dipole Moment: [D]
     X:     1.3784      Y:    -2.4022      Z:    -0.0051     Total:     2.7696

*** Psi4 exiting successfully. Buy a developer a beer!
