                               Psi4 1.4a3.dev225

  ==> Input File <==

--------------------------------------------------------------------------
#psi4
#
memory 32 gb

molecule  {
0 1
  O       -2.2261580     0.9189870    -0.1609950
  N        0.4211910     1.5299470     0.0903790
  C        0.0817250     0.2107030     0.0159890
  C        2.4145630    -0.5010270    -0.0428790
  C       -1.3460660    -0.1139160     0.0206840
  C        1.0420520    -0.8182650    -0.0594370
  C        2.7641530     0.8636850     0.0360660
  C       -2.0477590    -1.2949740     0.1722820
  C        3.4684270    -1.5756500    -0.0824610
  C        1.7493340     1.8260270     0.0926910
  C       -3.4286880    -0.9658200     0.0768380
  C       -3.4589129     0.3894267    -0.1240125
  H        0.7225460    -1.8551450    -0.1446860
  H        3.8080070     1.1710760     0.0438400
  H       -1.6259220    -2.2752860     0.3500510
  H        3.8398640    -1.7937090     0.9244500
  H        3.0687740    -2.5034170    -0.5007000
  H        4.3228250    -1.2652800    -0.6906580
  H        1.9977040     2.8869120     0.1452960
  H       -4.2730300    -1.6376780     0.1527080
  H       -4.2894270     1.0948070    -0.2563320
units angstrom
no_reorient  #important for SAPT in psi4, default
symmetry c1  #important for SAPT in psi4, default
}

set PROPERTIES_ORIGIN ["COM"]
properties('MP2/aug-cc-pvtz', properties = ['dipole'])
--------------------------------------------------------------------------

    Molecular point group: c1
  Charge       = 0
  Multiplicity = 1
  Basis Set: AUG-CC-PVTZ
    Blend: AUG-CC-PVTZ
  Basis Set: (AUG-CC-PVTZ AUX)
    Blend: AUG-CC-PVTZ-JKFIT

    Orbital Energies [Eh]
    ---------------------

    Doubly Occupied:

       1A    -20.625322     2A    -15.563237     3A    -11.296166
       4A    -11.294469     5A    -11.294301     6A    -11.278534
       7A    -11.271603     8A    -11.241953     9A    -11.239836
      10A    -11.239278    11A    -11.237911    12A    -11.232217
      13A     -1.464118    14A     -1.243990    15A     -1.103981
      16A     -1.089618    17A     -1.057887    18A     -0.984437
      19A     -0.967973    20A     -0.862391    21A     -0.835711
      22A     -0.802778    23A     -0.765958    24A     -0.727723
      25A     -0.672876    26A     -0.668070    27A     -0.640948
      28A     -0.638201    29A     -0.600393    30A     -0.590465
      31A     -0.578344    32A     -0.569528    33A     -0.558388
      34A     -0.546864    35A     -0.538677    36A     -0.525442
      37A     -0.509598    38A     -0.417444    39A     -0.403551
      40A     -0.375597    41A     -0.362266    42A     -0.287198

  @DF-RHF Final Energy:  -513.37744878720787

   => Energetics <=

    Nuclear Repulsion Energy =            629.4845816065748068
    One-Electron Energy =               -1945.3135813111127845
    Two-Electron Energy =                 802.4515509173302235
    Total Energy =                       -513.3774487872078680
  Basis Set: (AUG-CC-PVTZ AUX)
    Blend: AUG-CC-PVTZ-RI
    Molecular point group: c1

    Geometry (in Angstrom), charge = 0, multiplicity = 1:

       Center              X                  Y                   Z               Mass
    ------------   -----------------  -----------------  -----------------  -----------------
         O           -2.180814527768     0.880391687102    -0.160892937654    15.994914619570
         N            0.466534472232     1.491351687102     0.090481062346    14.003074004430
         C            0.127068472232     0.172107687102     0.016091062346    12.000000000000
         C            2.459906472232    -0.539622312898    -0.042776937654    12.000000000000
         C           -1.300722527768    -0.152511312898     0.020786062346    12.000000000000
         C            1.087395472232    -0.856860312898    -0.059334937654    12.000000000000
         C            2.809496472232     0.825089687102     0.036168062346    12.000000000000
         C           -2.002415527768    -1.333569312898     0.172384062346    12.000000000000
         C            3.513770472232    -1.614245312898    -0.082358937654    12.000000000000
         C            1.794677472232     1.787431687102     0.092793062346    12.000000000000
         C           -3.383344527768    -1.004415312898     0.076940062346    12.000000000000
         C           -3.413569427768     0.350831387102    -0.123910437654    12.000000000000
         H            0.767889472232    -1.893740312898    -0.144583937654     1.007825032230
         H            3.853350472232     1.132480687102     0.043942062346     1.007825032230
         H           -1.580578527768    -2.313881312898     0.350153062346     1.007825032230
         H            3.885207472232    -1.832304312898     0.924552062346     1.007825032230
         H            3.114117472232    -2.542012312898    -0.500597937654     1.007825032230
         H            4.368168472232    -1.303875312898    -0.690555937654     1.007825032230
         H            2.043047472232     2.848316687102     0.145398062346     1.007825032230
         H           -4.227686527768    -1.676273312898     0.152810062346     1.007825032230
         H           -4.244083527768     1.056211687102    -0.256229937654     1.007825032230

  Basis Set: AUG-CC-PVTZ
    Blend: AUG-CC-PVTZ
  Basis Set: (AUG-CC-PVTZ AUX)
    Blend: AUG-CC-PVTZ-JKFIT
	 Reference Energy          =    -513.3774487872078680 [Eh]
	 Singles Energy            =      -0.0000000000000000 [Eh]
	 Same-Spin Energy          =      -0.5590092421193915 [Eh]
	 Opposite-Spin Energy      =      -1.7130720880932691 [Eh]
	 Correlation Energy        =      -2.2720813302126608 [Eh]
	 Total Energy              =    -515.6495301174205679 [Eh]

	 ================> DF-SCS-MP2 Energies <==================
	-----------------------------------------------------------
	 SCS Same-Spin Scale       =       0.3333333333333333 [-]
	 SCS Opposite-Spin Scale   =       1.2000000000000000 [-]
	 SCS Same-Spin Energy      =      -0.1863364140397972 [Eh]
	 SCS Opposite-Spin Energy  =      -2.0556865057119227 [Eh]
	 SCS Correlation Energy    =      -2.2420229197517196 [Eh]
	 SCS Total Energy          =    -515.6194717069596436 [Eh]
	-----------------------------------------------------------

  Dipole Moment: [D]
     X:     1.4831      Y:    -2.3637      Z:    -0.0062     Total:     2.7905

*** Psi4 exiting successfully. Buy a developer a beer!
