                               Psi4 1.4a3.dev225

  ==> Input File <==

--------------------------------------------------------------------------
#psi4
#
memory 32 gb

molecule  {
0 1
  O       -2.2261580     0.9189870    -0.1609950
  N        0.4211910     1.5299470     0.0903790
  C        0.0817250     0.2107030     0.0159890
  C        2.4145630    -0.5010270    -0.0428790
  C       -1.3460660    -0.1139160     0.0206840
  C        1.0420520    -0.8182650    -0.0594370
  C        2.7641530     0.8636850     0.0360660
  C       -2.0477590    -1.2949740     0.1722820
  C        3.4684270    -1.5756500    -0.0824610
  C        1.7638345     1.8122763     0.0918819
  C       -3.4286880    -0.9658200     0.0768380
  C       -3.4828100     0.3886030    -0.1245500
  H        0.7225460    -1.8551450    -0.1446860
  H        3.8080070     1.1710760     0.0438400
  H       -1.6259220    -2.2752860     0.3500510
  H        3.8398640    -1.7937090     0.9244500
  H        3.0687740    -2.5034170    -0.5007000
  H        4.3228250    -1.2652800    -0.6906580
  H        1.9977040     2.8869120     0.1452960
  H       -4.2730300    -1.6376780     0.1527080
  H       -4.2894270     1.0948070    -0.2563320
units angstrom
no_reorient  #important for SAPT in psi4, default
symmetry c1  #important for SAPT in psi4, default
}

set PROPERTIES_ORIGIN ["COM"]
properties('MP2/aug-cc-pvtz', properties = ['dipole'])
--------------------------------------------------------------------------

    Molecular point group: c1
  Charge       = 0
  Multiplicity = 1
  Basis Set: AUG-CC-PVTZ
    Blend: AUG-CC-PVTZ
  Basis Set: (AUG-CC-PVTZ AUX)
    Blend: AUG-CC-PVTZ-JKFIT

    Orbital Energies [Eh]
    ---------------------

    Doubly Occupied:

       1A    -20.622038     2A    -15.564069     3A    -11.297318
       4A    -11.294460     5A    -11.293541     6A    -11.277470
       7A    -11.272450     8A    -11.242317     9A    -11.239791
      10A    -11.239298    11A    -11.236631    12A    -11.234039
      13A     -1.454070    14A     -1.242451    15A     -1.104543
      16A     -1.088149    17A     -1.058068    18A     -0.986339
      19A     -0.968709    20A     -0.862024    21A     -0.836391
      22A     -0.800225    23A     -0.765030    24A     -0.727554
      25A     -0.673981    26A     -0.669362    27A     -0.637536
      28A     -0.633469    29A     -0.599253    30A     -0.590993
      31A     -0.579368    32A     -0.566375    33A     -0.558983
      34A     -0.547252    35A     -0.540784    36A     -0.525126
      37A     -0.507428    38A     -0.419473    39A     -0.402897
      40A     -0.377738    41A     -0.360804    42A     -0.289237

  @DF-RHF Final Energy:  -513.37650997204344

   => Energetics <=

    Nuclear Repulsion Energy =            629.0564365116789531
    One-Electron Energy =               -1944.4918290128589433
    Two-Electron Energy =                 802.0588825291366675
    Total Energy =                       -513.3765099720434364
  Basis Set: (AUG-CC-PVTZ AUX)
    Blend: AUG-CC-PVTZ-RI
    Molecular point group: c1

    Geometry (in Angstrom), charge = 0, multiplicity = 1:

       Center              X                  Y                   Z               Mass
    ------------   -----------------  -----------------  -----------------  -----------------
         O           -2.180105655420     0.881491168738    -0.160791351175    15.994914619570
         N            0.467243344580     1.492451168738     0.090582648825    14.003074004430
         C            0.127777344580     0.173207168738     0.016192648825    12.000000000000
         C            2.460615344580    -0.538522831262    -0.042675351175    12.000000000000
         C           -1.300013655420    -0.151411831262     0.020887648825    12.000000000000
         C            1.088104344580    -0.855760831262    -0.059233351175    12.000000000000
         C            2.810205344580     0.826189168738     0.036269648825    12.000000000000
         C           -2.001706655420    -1.332469831262     0.172485648825    12.000000000000
         C            3.514479344580    -1.613145831262    -0.082257351175    12.000000000000
         C            1.809886844580     1.774780468738     0.092085548825    12.000000000000
         C           -3.382635655420    -1.003315831262     0.077041648825    12.000000000000
         C           -3.436757655420     0.351107168738    -0.124346351175    12.000000000000
         H            0.768598344580    -1.892640831262    -0.144482351175     1.007825032230
         H            3.854059344580     1.133580168738     0.044043648825     1.007825032230
         H           -1.579869655420    -2.312781831262     0.350254648825     1.007825032230
         H            3.885916344580    -1.831204831262     0.924653648825     1.007825032230
         H            3.114826344580    -2.540912831262    -0.500496351175     1.007825032230
         H            4.368877344580    -1.302775831262    -0.690454351175     1.007825032230
         H            2.043756344580     2.849416168738     0.145499648825     1.007825032230
         H           -4.226977655420    -1.675173831262     0.152911648825     1.007825032230
         H           -4.243374655420     1.057311168738    -0.256128351175     1.007825032230

  Basis Set: AUG-CC-PVTZ
    Blend: AUG-CC-PVTZ
  Basis Set: (AUG-CC-PVTZ AUX)
    Blend: AUG-CC-PVTZ-JKFIT
	 Reference Energy          =    -513.3765099720434364 [Eh]
	 Singles Energy            =      -0.0000000000000000 [Eh]
	 Same-Spin Energy          =      -0.5590910275994474 [Eh]
	 Opposite-Spin Energy      =      -1.7137793823115330 [Eh]
	 Correlation Energy        =      -2.2728704099109804 [Eh]
	 Total Energy              =    -515.6493803819544155 [Eh]

	 ================> DF-SCS-MP2 Energies <==================
	-----------------------------------------------------------
	 SCS Same-Spin Scale       =       0.3333333333333333 [-]
	 SCS Opposite-Spin Scale   =       1.2000000000000000 [-]
	 SCS Same-Spin Energy      =      -0.1863636758664824 [Eh]
	 SCS Opposite-Spin Energy  =      -2.0565352587738395 [Eh]
	 SCS Correlation Energy    =      -2.2428989346403219 [Eh]
	 SCS Total Energy          =    -515.6194089066837023 [Eh]
	-----------------------------------------------------------

  Dipole Moment: [D]
     X:     1.4780      Y:    -2.4039      Z:    -0.0062     Total:     2.8219

*** Psi4 exiting successfully. Buy a developer a beer!
