                               Psi4 1.4a3.dev225

  ==> Input File <==

--------------------------------------------------------------------------
#psi4
#
memory 32 gb

molecule  {
0 1
  O       -2.2261580     0.9189870    -0.1609950
  N        0.4211910     1.5299470     0.0903790
  C        0.0817250     0.2107030     0.0159890
  C        2.4145630    -0.5010270    -0.0428790
  C       -1.4307754    -0.0687553     0.0111236
  C        1.0420520    -0.8182650    -0.0594370
  C        2.7641530     0.8636850     0.0360660
  C       -2.0477590    -1.2949740     0.1722820
  C        3.4684270    -1.5756500    -0.0824610
  C        1.7493340     1.8260270     0.0926910
  C       -3.4286880    -0.9658200     0.0768380
  C       -3.4828100     0.3886030    -0.1245500
  H        0.7225460    -1.8551450    -0.1446860
  H        3.8080070     1.1710760     0.0438400
  H       -1.6259220    -2.2752860     0.3500510
  H        3.8398640    -1.7937090     0.9244500
  H        3.0687740    -2.5034170    -0.5007000
  H        4.3228250    -1.2652800    -0.6906580
  H        1.9977040     2.8869120     0.1452960
  H       -4.2730300    -1.6376780     0.1527080
  H       -4.2894270     1.0948070    -0.2563320
units angstrom
no_reorient  #important for SAPT in psi4, default
symmetry c1  #important for SAPT in psi4, default
}

set PROPERTIES_ORIGIN ["COM"]
properties('MP2/aug-cc-pvtz', properties = ['dipole'])
--------------------------------------------------------------------------

    Molecular point group: c1
  Charge       = 0
  Multiplicity = 1
  Basis Set: AUG-CC-PVTZ
    Blend: AUG-CC-PVTZ
  Basis Set: (AUG-CC-PVTZ AUX)
    Blend: AUG-CC-PVTZ-JKFIT

    Orbital Energies [Eh]
    ---------------------

    Doubly Occupied:

       1A    -20.634003     2A    -15.563745     3A    -11.300631
       4A    -11.297193     5A    -11.286555     6A    -11.278512
       7A    -11.272235     8A    -11.243120     9A    -11.239664
      10A    -11.238779    11A    -11.235480    12A    -11.229588
      13A     -1.496488    14A     -1.242706    15A     -1.104527
      16A     -1.090702    17A     -1.051763    18A     -0.987852
      19A     -0.968462    20A     -0.857269    21A     -0.832447
      22A     -0.811558    23A     -0.770254    24A     -0.729129
      25A     -0.673371    26A     -0.667731    27A     -0.656708
      28A     -0.639590    29A     -0.604237    30A     -0.590874
      31A     -0.579490    32A     -0.575112    33A     -0.558641
      34A     -0.548351    35A     -0.535764    36A     -0.523997
      37A     -0.499972    38A     -0.417770    39A     -0.401617
      40A     -0.372088    41A     -0.361392    42A     -0.290565

  @DF-RHF Final Energy:  -513.37026520091740

   => Energetics <=

    Nuclear Repulsion Energy =            629.4234392845709181
    One-Electron Energy =               -1945.0675450210273993
    Two-Electron Energy =                 802.2738405355389659
    Total Energy =                       -513.3702652009174017
  Basis Set: (AUG-CC-PVTZ AUX)
    Blend: AUG-CC-PVTZ-RI
    Molecular point group: c1

    Geometry (in Angstrom), charge = 0, multiplicity = 1:

       Center              X                  Y                   Z               Mass
    ------------   -----------------  -----------------  -----------------  -----------------
         O           -2.172621336122     0.877046937589    -0.160131159768    15.994914619570
         N            0.474727663878     1.488006937589     0.091242840232    14.003074004430
         C            0.135261663878     0.168762937589     0.016852840232    12.000000000000
         C            2.468099663878    -0.542967062411    -0.042015159768    12.000000000000
         C           -1.377238736122    -0.110695362411     0.011987440232    12.000000000000
         C            1.095588663878    -0.860205062411    -0.058573159768    12.000000000000
         C            2.817689663878     0.821744937589     0.036929840232    12.000000000000
         C           -1.994222336122    -1.336914062411     0.173145840232    12.000000000000
         C            3.521963663878    -1.617590062411    -0.081597159768    12.000000000000
         C            1.802870663878     1.784086937589     0.093554840232    12.000000000000
         C           -3.375151336122    -1.007760062411     0.077701840232    12.000000000000
         C           -3.429273336122     0.346662937589    -0.123686159768    12.000000000000
         H            0.776082663878    -1.897085062411    -0.143822159768     1.007825032230
         H            3.861543663878     1.129135937589     0.044703840232     1.007825032230
         H           -1.572385336122    -2.317226062411     0.350914840232     1.007825032230
         H            3.893400663878    -1.835649062411     0.925313840232     1.007825032230
         H            3.122310663878    -2.545357062411    -0.499836159768     1.007825032230
         H            4.376361663878    -1.307220062411    -0.689794159768     1.007825032230
         H            2.051240663878     2.844971937589     0.146159840232     1.007825032230
         H           -4.219493336122    -1.679618062411     0.153571840232     1.007825032230
         H           -4.235890336122     1.052866937589    -0.255468159768     1.007825032230

  Basis Set: AUG-CC-PVTZ
    Blend: AUG-CC-PVTZ
  Basis Set: (AUG-CC-PVTZ AUX)
    Blend: AUG-CC-PVTZ-JKFIT
	 Reference Energy          =    -513.3702652009174017 [Eh]
	 Singles Energy            =      -0.0000000000000000 [Eh]
	 Same-Spin Energy          =      -0.5581027290886931 [Eh]
	 Opposite-Spin Energy      =      -1.7110696468083473 [Eh]
	 Correlation Energy        =      -2.2691723758970404 [Eh]
	 Total Energy              =    -515.6394375768144300 [Eh]

	 ================> DF-SCS-MP2 Energies <==================
	-----------------------------------------------------------
	 SCS Same-Spin Scale       =       0.3333333333333333 [-]
	 SCS Opposite-Spin Scale   =       1.2000000000000000 [-]
	 SCS Same-Spin Energy      =      -0.1860342430295643 [Eh]
	 SCS Opposite-Spin Energy  =      -2.0532835761700166 [Eh]
	 SCS Correlation Energy    =      -2.2393178191995808 [Eh]
	 SCS Total Energy          =    -515.6095830201169292 [Eh]
	-----------------------------------------------------------

  Dipole Moment: [D]
     X:     1.4388      Y:    -2.2779      Z:    -0.0232     Total:     2.6943

*** Psi4 exiting successfully. Buy a developer a beer!
