                               Psi4 1.4a3.dev225

  ==> Input File <==

--------------------------------------------------------------------------
#psi4
#
memory 32 gb

molecule  {
0 1
  O       -2.2261580     0.9189870    -0.1609950
  N        0.4211910     1.5299470     0.0903790
  C        0.0817250     0.2107030     0.0159890
  C        2.4145630    -0.5010270    -0.0428790
  C       -1.3460660    -0.1139160     0.0206840
  C        1.0420520    -0.8182650    -0.0594370
  C        2.7641530     0.8636850     0.0360660
  C       -2.0477590    -1.2949740     0.1722820
  C        3.4824257    -1.5899244    -0.0829868
  C        1.7493340     1.8260270     0.0926910
  C       -3.4286880    -0.9658200     0.0768380
  C       -3.4828100     0.3886030    -0.1245500
  H        0.7225460    -1.8551450    -0.1446860
  H        3.8080070     1.1710760     0.0438400
  H       -1.6259220    -2.2752860     0.3500510
  H        3.8398640    -1.7937090     0.9244500
  H        3.0687740    -2.5034170    -0.5007000
  H        4.3228250    -1.2652800    -0.6906580
  H        1.9977040     2.8869120     0.1452960
  H       -4.2730300    -1.6376780     0.1527080
  H       -4.2894270     1.0948070    -0.2563320
units angstrom
no_reorient  #important for SAPT in psi4, default
symmetry c1  #important for SAPT in psi4, default
}

set PROPERTIES_ORIGIN ["COM"]
properties('MP2/aug-cc-pvtz', properties = ['dipole'])
--------------------------------------------------------------------------

    Molecular point group: c1
  Charge       = 0
  Multiplicity = 1
  Basis Set: AUG-CC-PVTZ
    Blend: AUG-CC-PVTZ
  Basis Set: (AUG-CC-PVTZ AUX)
    Blend: AUG-CC-PVTZ-JKFIT

    Orbital Energies [Eh]
    ---------------------

    Doubly Occupied:

       1A    -20.621875     2A    -15.563709     3A    -11.297268
       4A    -11.294412     5A    -11.293232     6A    -11.278708
       7A    -11.272633     8A    -11.242519     9A    -11.238999
      10A    -11.238928    11A    -11.238490    12A    -11.233871
      13A     -1.453913    14A     -1.244086    15A     -1.102124
      16A     -1.087756    17A     -1.057736    18A     -0.984222
      19A     -0.968095    20A     -0.862932    21A     -0.836502
      22A     -0.800235    23A     -0.764781    24A     -0.727339
      25A     -0.672965    26A     -0.668252    27A     -0.638982
      28A     -0.633542    29A     -0.599858    30A     -0.592659
      31A     -0.578905    32A     -0.566119    33A     -0.561616
      34A     -0.544054    35A     -0.539218    36A     -0.526116
      37A     -0.510784    38A     -0.417372    39A     -0.402467
      40A     -0.376185    41A     -0.362825    42A     -0.287888

  @DF-RHF Final Energy:  -513.37709487857501

   => Energetics <=

    Nuclear Repulsion Energy =            628.5831177758112744
    One-Electron Energy =               -1943.5520809407016714
    Two-Electron Energy =                 801.5918682863152753
    Total Energy =                       -513.3770948785750079
  Basis Set: (AUG-CC-PVTZ AUX)
    Blend: AUG-CC-PVTZ-RI
    Molecular point group: c1

    Geometry (in Angstrom), charge = 0, multiplicity = 1:

       Center              X                  Y                   Z               Mass
    ------------   -----------------  -----------------  -----------------  -----------------
         O           -2.180067800010     0.881530676267    -0.160812723112    15.994914619570
         N            0.467281199990     1.492490676267     0.090561276888    14.003074004430
         C            0.127815199990     0.173246676267     0.016171276888    12.000000000000
         C            2.460653199990    -0.538483323733    -0.042696723112    12.000000000000
         C           -1.299975800010    -0.151372323733     0.020866276888    12.000000000000
         C            1.088142199990    -0.855721323733    -0.059254723112    12.000000000000
         C            2.810243199990     0.826228676267     0.036248276888    12.000000000000
         C           -2.001668800010    -1.332430323733     0.172464276888    12.000000000000
         C            3.528515899990    -1.627380723733    -0.082804523112    12.000000000000
         C            1.795424199990     1.788570676267     0.092873276888    12.000000000000
         C           -3.382597800010    -1.003276323733     0.077020276888    12.000000000000
         C           -3.436719800010     0.351146676267    -0.124367723112    12.000000000000
         H            0.768636199990    -1.892601323733    -0.144503723112     1.007825032230
         H            3.854097199990     1.133619676267     0.044022276888     1.007825032230
         H           -1.579831800010    -2.312742323733     0.350233276888     1.007825032230
         H            3.885954199990    -1.831165323733     0.924632276888     1.007825032230
         H            3.114864199990    -2.540873323733    -0.500517723112     1.007825032230
         H            4.368915199990    -1.302736323733    -0.690475723112     1.007825032230
         H            2.043794199990     2.849455676267     0.145478276888     1.007825032230
         H           -4.226939800010    -1.675134323733     0.152890276888     1.007825032230
         H           -4.243336800010     1.057350676267    -0.256149723112     1.007825032230

  Basis Set: AUG-CC-PVTZ
    Blend: AUG-CC-PVTZ
  Basis Set: (AUG-CC-PVTZ AUX)
    Blend: AUG-CC-PVTZ-JKFIT
	 Reference Energy          =    -513.3770948785750079 [Eh]
	 Singles Energy            =      -0.0000000000000000 [Eh]
	 Same-Spin Energy          =      -0.5589186932655317 [Eh]
	 Opposite-Spin Energy      =      -1.7134962955091966 [Eh]
	 Correlation Energy        =      -2.2724149887747283 [Eh]
	 Total Energy              =    -515.6495098673497068 [Eh]

	 ================> DF-SCS-MP2 Energies <==================
	-----------------------------------------------------------
	 SCS Same-Spin Scale       =       0.3333333333333333 [-]
	 SCS Opposite-Spin Scale   =       1.2000000000000000 [-]
	 SCS Same-Spin Energy      =      -0.1863062310885105 [Eh]
	 SCS Opposite-Spin Energy  =      -2.0561955546110360 [Eh]
	 SCS Correlation Energy    =      -2.2425017856995466 [Eh]
	 SCS Total Energy          =    -515.6195966642745816 [Eh]
	-----------------------------------------------------------

  Dipole Moment: [D]
     X:     1.4802      Y:    -2.3686      Z:    -0.0057     Total:     2.7931

*** Psi4 exiting successfully. Buy a developer a beer!
