                               Psi4 1.4a3.dev225

  ==> Input File <==

--------------------------------------------------------------------------
#psi4
#
memory 32 gb

molecule  {
0 1
  O       -2.2261580     0.9189870    -0.1609950
  N        0.4211910     1.5299470     0.0903790
  C        0.0817250     0.2107030     0.0159890
  C        2.4145630    -0.5010270    -0.0428790
  C       -1.3460660    -0.1139160     0.0206840
  C        1.0420520    -0.8182650    -0.0594370
  C        2.7641530     0.8636850     0.0360660
  C       -2.0477590    -1.2949740     0.1722820
  C        3.5384205    -1.6470222    -0.0850899
  C        1.7493340     1.8260270     0.0926910
  C       -3.4286880    -0.9658200     0.0768380
  C       -3.4828100     0.3886030    -0.1245500
  H        0.7225460    -1.8551450    -0.1446860
  H        3.8080070     1.1710760     0.0438400
  H       -1.6259220    -2.2752860     0.3500510
  H        3.8398640    -1.7937090     0.9244500
  H        3.0687740    -2.5034170    -0.5007000
  H        4.3228250    -1.2652800    -0.6906580
  H        1.9977040     2.8869120     0.1452960
  H       -4.2730300    -1.6376780     0.1527080
  H       -4.2894270     1.0948070    -0.2563320
units angstrom
no_reorient  #important for SAPT in psi4, default
symmetry c1  #important for SAPT in psi4, default
}

set PROPERTIES_ORIGIN ["COM"]
properties('MP2/aug-cc-pvtz', properties = ['dipole'])
--------------------------------------------------------------------------

    Molecular point group: c1
  Charge       = 0
  Multiplicity = 1
  Basis Set: AUG-CC-PVTZ
    Blend: AUG-CC-PVTZ
  Basis Set: (AUG-CC-PVTZ AUX)
    Blend: AUG-CC-PVTZ-JKFIT

    Orbital Energies [Eh]
    ---------------------

    Doubly Occupied:

       1A    -20.621732     2A    -15.563588     3A    -11.297136
       4A    -11.294199     5A    -11.293067     6A    -11.278524
       7A    -11.275055     8A    -11.242475     9A    -11.238737
      10A    -11.238497    11A    -11.238292    12A    -11.233741
      13A     -1.453770    14A     -1.243678    15A     -1.095040
      16A     -1.087149    17A     -1.057480    18A     -0.983796
      19A     -0.968596    20A     -0.862096    21A     -0.837452
      22A     -0.799899    23A     -0.764361    24A     -0.725880
      25A     -0.672238    26A     -0.666807    27A     -0.636839
      28A     -0.632925    29A     -0.601803    30A     -0.601179
      31A     -0.579915    32A     -0.572092    33A     -0.565854
      34A     -0.542734    35A     -0.528290    36A     -0.518556
      37A     -0.512962    38A     -0.415776    39A     -0.402338
      40A     -0.376869    41A     -0.363545    42A     -0.287654

  @DF-RHF Final Energy:  -513.36992824717981

   => Energetics <=

    Nuclear Repulsion Energy =            627.2308940585041910
    One-Electron Energy =               -1940.8564042552848150
    Two-Electron Energy =                 800.2555819496008098
    Total Energy =                       -513.3699282471798142
  Basis Set: (AUG-CC-PVTZ AUX)
    Blend: AUG-CC-PVTZ-RI
    Molecular point group: c1

    Geometry (in Angstrom), charge = 0, multiplicity = 1:

       Center              X                  Y                   Z               Mass
    ------------   -----------------  -----------------  -----------------  -----------------
         O           -2.184292005077     0.885838090814    -0.160654066849    15.994914619570
         N            0.463056994923     1.496798090814     0.090719933151    14.003074004430
         C            0.123590994923     0.177554090814     0.016329933151    12.000000000000
         C            2.456428994923    -0.534175909186    -0.042538066849    12.000000000000
         C           -1.304200005077    -0.147064909186     0.021024933151    12.000000000000
         C            1.083917994923    -0.851413909186    -0.059096066849    12.000000000000
         C            2.806018994923     0.830536090814     0.036406933151    12.000000000000
         C           -2.005893005077    -1.328122909186     0.172622933151    12.000000000000
         C            3.580286494923    -1.680171109186    -0.084748966849    12.000000000000
         C            1.791199994923     1.792878090814     0.093031933151    12.000000000000
         C           -3.386822005077    -0.998968909186     0.077178933151    12.000000000000
         C           -3.440944005077     0.355454090814    -0.124209066849    12.000000000000
         H            0.764411994923    -1.888293909186    -0.144345066849     1.007825032230
         H            3.849872994923     1.137927090814     0.044180933151     1.007825032230
         H           -1.584056005077    -2.308434909186     0.350391933151     1.007825032230
         H            3.881729994923    -1.826857909186     0.924790933151     1.007825032230
         H            3.110639994923    -2.536565909186    -0.500359066849     1.007825032230
         H            4.364690994923    -1.298428909186    -0.690317066849     1.007825032230
         H            2.039569994923     2.853763090814     0.145636933151     1.007825032230
         H           -4.231164005077    -1.670826909186     0.153048933151     1.007825032230
         H           -4.247561005077     1.061658090814    -0.255991066849     1.007825032230

  Basis Set: AUG-CC-PVTZ
    Blend: AUG-CC-PVTZ
  Basis Set: (AUG-CC-PVTZ AUX)
    Blend: AUG-CC-PVTZ-JKFIT
	 Reference Energy          =    -513.3699282471798142 [Eh]
	 Singles Energy            =      -0.0000000000000000 [Eh]
	 Same-Spin Energy          =      -0.5586107194570393 [Eh]
	 Opposite-Spin Energy      =      -1.7135249382095004 [Eh]
	 Correlation Energy        =      -2.2721356576665395 [Eh]
	 Total Energy              =    -515.6420639048463954 [Eh]

	 ================> DF-SCS-MP2 Energies <==================
	-----------------------------------------------------------
	 SCS Same-Spin Scale       =       0.3333333333333333 [-]
	 SCS Opposite-Spin Scale   =       1.2000000000000000 [-]
	 SCS Same-Spin Energy      =      -0.1862035731523464 [Eh]
	 SCS Opposite-Spin Energy  =      -2.0562299258514005 [Eh]
	 SCS Correlation Energy    =      -2.2424334990037469 [Eh]
	 SCS Total Energy          =    -515.6123617461835238 [Eh]
	-----------------------------------------------------------

  Dipole Moment: [D]
     X:     1.4638      Y:    -2.3515      Z:    -0.0086     Total:     2.7699

*** Psi4 exiting successfully. Buy a developer a beer!
