                               Psi4 1.4a3.dev225

  ==> Input File <==

--------------------------------------------------------------------------
#psi4
#
memory 32 gb

molecule  {
0 1
  O       -2.2084357     0.8753411    -0.1539749
  N        0.4211910     1.5299470     0.0903790
  C        0.0817250     0.2107030     0.0159890
  C        2.4145630    -0.5010270    -0.0428790
  C       -1.3460660    -0.1139160     0.0206840
  C        1.0420520    -0.8182650    -0.0594370
  C        2.7641530     0.8636850     0.0360660
  C       -2.0477590    -1.2949740     0.1722820
  C        3.4684270    -1.5756500    -0.0824610
  C        1.7493340     1.8260270     0.0926910
  C       -3.4286880    -0.9658200     0.0768380
  C       -3.4828100     0.3886030    -0.1245500
  H        0.7225460    -1.8551450    -0.1446860
  H        3.8080070     1.1710760     0.0438400
  H       -1.6259220    -2.2752860     0.3500510
  H        3.8398640    -1.7937090     0.9244500
  H        3.0687740    -2.5034170    -0.5007000
  H        4.3228250    -1.2652800    -0.6906580
  H        1.9977040     2.8869120     0.1452960
  H       -4.2730300    -1.6376780     0.1527080
  H       -4.2894270     1.0948070    -0.2563320
units angstrom
no_reorient  #important for SAPT in psi4, default
symmetry c1  #important for SAPT in psi4, default
}

set PROPERTIES_ORIGIN ["COM"]
properties('MP2/aug-cc-pvtz', properties = ['dipole'])
--------------------------------------------------------------------------

    Molecular point group: c1
  Charge       = 0
  Multiplicity = 1
  Basis Set: AUG-CC-PVTZ
    Blend: AUG-CC-PVTZ
  Basis Set: (AUG-CC-PVTZ AUX)
    Blend: AUG-CC-PVTZ-JKFIT

    Orbital Energies [Eh]
    ---------------------

    Doubly Occupied:

       1A    -20.621834     2A    -15.564514     3A    -11.295018
       4A    -11.294055     5A    -11.291206     6A    -11.279147
       7A    -11.272092     8A    -11.242908     9A    -11.239636
      10A    -11.239124    11A    -11.234037    12A    -11.232866
      13A     -1.470297    14A     -1.244684    15A     -1.104700
      16A     -1.083819    17A     -1.060803    18A     -0.988475
      19A     -0.968693    20A     -0.863553    21A     -0.837115
      22A     -0.804360    23A     -0.763445    24A     -0.730794
      25A     -0.674243    26A     -0.669304    27A     -0.644679
      28A     -0.641638    29A     -0.602807    30A     -0.590850
      31A     -0.577495    32A     -0.564969    33A     -0.558769
      34A     -0.548595    35A     -0.537149    36A     -0.525574
      37A     -0.509314    38A     -0.418343    39A     -0.398152
      40A     -0.376561    41A     -0.362903    42A     -0.288284

  @DF-RHF Final Energy:  -513.37782857836532

   => Energetics <=

    Nuclear Repulsion Energy =            630.2812901035962341
    One-Electron Energy =               -1946.8846348758195290
    Two-Electron Energy =                 803.2255161938580841
    Total Energy =                       -513.3778285783653246
  Basis Set: (AUG-CC-PVTZ AUX)
    Blend: AUG-CC-PVTZ-RI
    Molecular point group: c1

    Geometry (in Angstrom), charge = 0, multiplicity = 1:

       Center              X                  Y                   Z               Mass
    ------------   -----------------  -----------------  -----------------  -----------------
         O           -2.163071491252     0.841196682327    -0.154538185962    15.994914619570
         N            0.466555208748     1.495802582327     0.089815714038    14.003074004430
         C            0.127089208748     0.176558582327     0.015425714038    12.000000000000
         C            2.459927208748    -0.535171417673    -0.043442285962    12.000000000000
         C           -1.300701791252    -0.148060417673     0.020120714038    12.000000000000
         C            1.087416208748    -0.852409417673    -0.060000285962    12.000000000000
         C            2.809517208748     0.829540582327     0.035502714038    12.000000000000
         C           -2.002394791252    -1.329118417673     0.171718714038    12.000000000000
         C            3.513791208748    -1.609794417673    -0.083024285962    12.000000000000
         C            1.794698208748     1.791882582327     0.092127714038    12.000000000000
         C           -3.383323791252    -0.999964417673     0.076274714038    12.000000000000
         C           -3.437445791252     0.354458582327    -0.125113285962    12.000000000000
         H            0.767910208748    -1.889289417673    -0.145249285962     1.007825032230
         H            3.853371208748     1.136931582327     0.043276714038     1.007825032230
         H           -1.580557791252    -2.309430417673     0.349487714038     1.007825032230
         H            3.885228208748    -1.827853417673     0.923886714038     1.007825032230
         H            3.114138208748    -2.537561417673    -0.501263285962     1.007825032230
         H            4.368189208748    -1.299424417673    -0.691221285962     1.007825032230
         H            2.043068208748     2.852767582327     0.144732714038     1.007825032230
         H           -4.227665791252    -1.671822417673     0.152144714038     1.007825032230
         H           -4.244062791252     1.060662582327    -0.256895285962     1.007825032230

  Basis Set: AUG-CC-PVTZ
    Blend: AUG-CC-PVTZ
  Basis Set: (AUG-CC-PVTZ AUX)
    Blend: AUG-CC-PVTZ-JKFIT
	 Reference Energy          =    -513.3778285783653246 [Eh]
	 Singles Energy            =      -0.0000000000000000 [Eh]
	 Same-Spin Energy          =      -0.5589558522396261 [Eh]
	 Opposite-Spin Energy      =      -1.7122340725891885 [Eh]
	 Correlation Energy        =      -2.2711899248288145 [Eh]
	 Total Energy              =    -515.6490185031941564 [Eh]

	 ================> DF-SCS-MP2 Energies <==================
	-----------------------------------------------------------
	 SCS Same-Spin Scale       =       0.3333333333333333 [-]
	 SCS Opposite-Spin Scale   =       1.2000000000000000 [-]
	 SCS Same-Spin Energy      =      -0.1863186174132087 [Eh]
	 SCS Opposite-Spin Energy  =      -2.0546808871070259 [Eh]
	 SCS Correlation Energy    =      -2.2409995045202344 [Eh]
	 SCS Total Energy          =    -515.6188280828855568 [Eh]
	-----------------------------------------------------------

  Dipole Moment: [D]
     X:     1.4582      Y:    -2.2478      Z:    -0.0260     Total:     2.6795

*** Psi4 exiting successfully. Buy a developer a beer!
