                               Psi4 1.4a3.dev225

  ==> Input File <==

--------------------------------------------------------------------------
#psi4
#
memory 32 gb

molecule  {
0 1
  O       -2.2261580     0.9189870    -0.1609950
  N        0.4211910     1.5299470     0.0903790
  C       -0.0545233     0.2532600     0.0200799
  C        2.4145630    -0.5010270    -0.0428790
  C       -1.3460660    -0.1139160     0.0206840
  C        1.0420520    -0.8182650    -0.0594370
  C        2.7641530     0.8636850     0.0360660
  C       -2.0477590    -1.2949740     0.1722820
  C        3.4684270    -1.5756500    -0.0824610
  C        1.7493340     1.8260270     0.0926910
  C       -3.4286880    -0.9658200     0.0768380
  C       -3.4828100     0.3886030    -0.1245500
  H        0.7225460    -1.8551450    -0.1446860
  H        3.8080070     1.1710760     0.0438400
  H       -1.6259220    -2.2752860     0.3500510
  H        3.8398640    -1.7937090     0.9244500
  H        3.0687740    -2.5034170    -0.5007000
  H        4.3228250    -1.2652800    -0.6906580
  H        1.9977040     2.8869120     0.1452960
  H       -4.2730300    -1.6376780     0.1527080
  H       -4.2894270     1.0948070    -0.2563320
units angstrom
no_reorient  #important for SAPT in psi4, default
symmetry c1  #important for SAPT in psi4, default
}

set PROPERTIES_ORIGIN ["COM"]
properties('MP2/aug-cc-pvtz', properties = ['dipole'])
--------------------------------------------------------------------------

    Molecular point group: c1
  Charge       = 0
  Multiplicity = 1
  Basis Set: AUG-CC-PVTZ
    Blend: AUG-CC-PVTZ
  Basis Set: (AUG-CC-PVTZ AUX)
    Blend: AUG-CC-PVTZ-JKFIT

    Orbital Energies [Eh]
    ---------------------

    Doubly Occupied:

       1A    -20.626033     2A    -15.558976     3A    -11.303268
       4A    -11.297141     5A    -11.293113     6A    -11.274297
       7A    -11.264666     8A    -11.251746     9A    -11.248797
      10A    -11.241478    11A    -11.235349    12A    -11.235133
      13A     -1.461813    14A     -1.233499    15A     -1.098943
      16A     -1.097768    17A     -1.069893    18A     -0.983713
      19A     -0.953691    20A     -0.877630    21A     -0.836242
      22A     -0.806674    23A     -0.768481    24A     -0.732122
      25A     -0.666992    26A     -0.662519    27A     -0.646356
      28A     -0.640320    29A     -0.594505    30A     -0.587175
      31A     -0.585355    32A     -0.573680    33A     -0.553774
      34A     -0.550488    35A     -0.541199    36A     -0.517458
      37A     -0.514859    38A     -0.411197    39A     -0.394541
      40A     -0.384477    41A     -0.355014    42A     -0.278060

  @DF-RHF Final Energy:  -513.34584503901874

   => Energetics <=

    Nuclear Repulsion Energy =            629.0219626560376582
    One-Electron Energy =               -1944.3187436153034469
    Two-Electron Energy =                 801.9509359202470478
    Total Energy =                       -513.3458450390187409
  Basis Set: (AUG-CC-PVTZ AUX)
    Blend: AUG-CC-PVTZ-RI
    Molecular point group: c1

    Geometry (in Angstrom), charge = 0, multiplicity = 1:

       Center              X                  Y                   Z               Mass
    ------------   -----------------  -----------------  -----------------  -----------------
         O           -2.168733280758     0.877243358734    -0.161161003444    15.994914619570
         N            0.478615719242     1.488203358734     0.090212996556    14.003074004430
         C            0.002901419242     0.211516358734     0.019913896556    12.000000000000
         C            2.471987719242    -0.542770641266    -0.043045003444    12.000000000000
         C           -1.288641280758    -0.155659641266     0.020517996556    12.000000000000
         C            1.099476719242    -0.860008641266    -0.059603003444    12.000000000000
         C            2.821577719242     0.821941358734     0.035899996556    12.000000000000
         C           -1.990334280758    -1.336717641266     0.172115996556    12.000000000000
         C            3.525851719242    -1.617393641266    -0.082627003444    12.000000000000
         C            1.806758719242     1.784283358734     0.092524996556    12.000000000000
         C           -3.371263280758    -1.007563641266     0.076671996556    12.000000000000
         C           -3.425385280758     0.346859358734    -0.124716003444    12.000000000000
         H            0.779970719242    -1.896888641266    -0.144852003444     1.007825032230
         H            3.865431719242     1.129332358734     0.043673996556     1.007825032230
         H           -1.568497280758    -2.317029641266     0.349884996556     1.007825032230
         H            3.897288719242    -1.835452641266     0.924283996556     1.007825032230
         H            3.126198719242    -2.545160641266    -0.500866003444     1.007825032230
         H            4.380249719242    -1.307023641266    -0.690824003444     1.007825032230
         H            2.055128719242     2.845168358734     0.145129996556     1.007825032230
         H           -4.215605280758    -1.679421641266     0.152541996556     1.007825032230
         H           -4.232002280758     1.053063358734    -0.256498003444     1.007825032230

  Basis Set: AUG-CC-PVTZ
    Blend: AUG-CC-PVTZ
  Basis Set: (AUG-CC-PVTZ AUX)
    Blend: AUG-CC-PVTZ-JKFIT
	 Reference Energy          =    -513.3458450390187409 [Eh]
	 Singles Energy            =      -0.0000000000000000 [Eh]
	 Same-Spin Energy          =      -0.5616826331878064 [Eh]
	 Opposite-Spin Energy      =      -1.7178256945734387 [Eh]
	 Correlation Energy        =      -2.2795083277612451 [Eh]
	 Total Energy              =    -515.6253533667800184 [Eh]

	 ================> DF-SCS-MP2 Energies <==================
	-----------------------------------------------------------
	 SCS Same-Spin Scale       =       0.3333333333333333 [-]
	 SCS Opposite-Spin Scale   =       1.2000000000000000 [-]
	 SCS Same-Spin Energy      =      -0.1872275443959355 [Eh]
	 SCS Opposite-Spin Energy  =      -2.0613908334881264 [Eh]
	 SCS Correlation Energy    =      -2.2486183778840618 [Eh]
	 SCS Total Energy          =    -515.5944634169028404 [Eh]
	-----------------------------------------------------------

  Dipole Moment: [D]
     X:     0.7905      Y:    -2.4790      Z:     0.0051     Total:     2.6020

*** Psi4 exiting successfully. Buy a developer a beer!
