                               Psi4 1.4a3.dev225

  ==> Input File <==

--------------------------------------------------------------------------
#psi4
#
memory 32 gb

molecule  {
0 1
  O       -2.2261580     0.9189870    -0.1609950
  N        0.4211910     1.5299470     0.0903790
  C        0.0817250     0.2107030     0.0159890
  C        2.4145630    -0.5010270    -0.0428790
  C       -1.3460660    -0.1139160     0.0206840
  C        1.0420520    -0.8182650    -0.0594370
  C        2.7641530     0.8636850     0.0360660
  C       -2.0477590    -1.2949740     0.1722820
  C        3.4684270    -1.5756500    -0.0824610
  C        1.7493340     1.8260270     0.0926910
  C       -3.4286880    -0.9658200     0.0768380
  C       -3.4367613     0.4080384    -0.1258855
  H        0.7225460    -1.8551450    -0.1446860
  H        3.8080070     1.1710760     0.0438400
  H       -1.6259220    -2.2752860     0.3500510
  H        3.8398640    -1.7937090     0.9244500
  H        3.0687740    -2.5034170    -0.5007000
  H        4.3228250    -1.2652800    -0.6906580
  H        1.9977040     2.8869120     0.1452960
  H       -4.2730300    -1.6376780     0.1527080
  H       -4.2894270     1.0948070    -0.2563320
units angstrom
no_reorient  #important for SAPT in psi4, default
symmetry c1  #important for SAPT in psi4, default
}

set PROPERTIES_ORIGIN ["COM"]
properties('MP2/aug-cc-pvtz', properties = ['dipole'])
--------------------------------------------------------------------------

    Molecular point group: c1
  Charge       = 0
  Multiplicity = 1
  Basis Set: AUG-CC-PVTZ
    Blend: AUG-CC-PVTZ
  Basis Set: (AUG-CC-PVTZ AUX)
    Blend: AUG-CC-PVTZ-JKFIT

    Orbital Energies [Eh]
    ---------------------

    Doubly Occupied:

       1A    -20.630215     2A    -15.562575     3A    -11.297365
       4A    -11.295020     5A    -11.294117     6A    -11.278284
       7A    -11.271307     8A    -11.241259     9A    -11.241099
      10A    -11.239014    11A    -11.237154    12A    -11.232251
      13A     -1.477093    14A     -1.243745    15A     -1.103534
      16A     -1.089903    17A     -1.056858    18A     -0.984879
      19A     -0.967918    20A     -0.861148    21A     -0.836025
      22A     -0.805765    23A     -0.767252    24A     -0.729042
      25A     -0.672813    26A     -0.667890    27A     -0.646842
      28A     -0.641117    29A     -0.603013    30A     -0.590251
      31A     -0.578051    32A     -0.572649    33A     -0.557606
      34A     -0.546681    35A     -0.533996    36A     -0.525416
      37A     -0.509259    38A     -0.417130    39A     -0.404291
      40A     -0.373894    41A     -0.361656    42A     -0.285164

  @DF-RHF Final Energy:  -513.37583239861726

   => Energetics <=

    Nuclear Repulsion Energy =            629.8712331736778651
    One-Electron Energy =               -1946.0330487071939842
    Two-Electron Energy =                 802.7859831348988564
    Total Energy =                       -513.3758323986172627
  Basis Set: (AUG-CC-PVTZ AUX)
    Blend: AUG-CC-PVTZ-RI
    Molecular point group: c1

    Geometry (in Angstrom), charge = 0, multiplicity = 1:

       Center              X                  Y                   Z               Mass
    ------------   -----------------  -----------------  -----------------  -----------------
         O           -2.182485627601     0.878987634628    -0.160751639960    15.994914619570
         N            0.464863372399     1.489947634628     0.090622360040    14.003074004430
         C            0.125397372399     0.170703634628     0.016232360040    12.000000000000
         C            2.458235372399    -0.541026365372    -0.042635639960    12.000000000000
         C           -1.302393627601    -0.153915365372     0.020927360040    12.000000000000
         C            1.085724372399    -0.858264365372    -0.059193639960    12.000000000000
         C            2.807825372399     0.823685634628     0.036309360040    12.000000000000
         C           -2.004086627601    -1.334973365372     0.172525360040    12.000000000000
         C            3.512099372399    -1.615649365372    -0.082217639960    12.000000000000
         C            1.793006372399     1.786027634628     0.092934360040    12.000000000000
         C           -3.385015627601    -1.005819365372     0.077081360040    12.000000000000
         C           -3.393088927601     0.368039034628    -0.125642139960    12.000000000000
         H            0.766218372399    -1.895144365372    -0.144442639960     1.007825032230
         H            3.851679372399     1.131076634628     0.044083360040     1.007825032230
         H           -1.582249627601    -2.315285365372     0.350294360040     1.007825032230
         H            3.883536372399    -1.833708365372     0.924693360040     1.007825032230
         H            3.112446372399    -2.543416365372    -0.500456639960     1.007825032230
         H            4.366497372399    -1.305279365372    -0.690414639960     1.007825032230
         H            2.041376372399     2.846912634628     0.145539360040     1.007825032230
         H           -4.229357627601    -1.677677365372     0.152951360040     1.007825032230
         H           -4.245754627601     1.054807634628    -0.256088639960     1.007825032230

  Basis Set: AUG-CC-PVTZ
    Blend: AUG-CC-PVTZ
  Basis Set: (AUG-CC-PVTZ AUX)
    Blend: AUG-CC-PVTZ-JKFIT
	 Reference Energy          =    -513.3758323986172627 [Eh]
	 Singles Energy            =      -0.0000000000000000 [Eh]
	 Same-Spin Energy          =      -0.5591653891659134 [Eh]
	 Opposite-Spin Energy      =      -1.7127594437058848 [Eh]
	 Correlation Energy        =      -2.2719248328717985 [Eh]
	 Total Energy              =    -515.6477572314890949 [Eh]

	 ================> DF-SCS-MP2 Energies <==================
	-----------------------------------------------------------
	 SCS Same-Spin Scale       =       0.3333333333333333 [-]
	 SCS Opposite-Spin Scale   =       1.2000000000000000 [-]
	 SCS Same-Spin Energy      =      -0.1863884630553045 [Eh]
	 SCS Opposite-Spin Energy  =      -2.0553113324470615 [Eh]
	 SCS Correlation Energy    =      -2.2416997955023659 [Eh]
	 SCS Total Energy          =    -515.6175321941195762 [Eh]
	-----------------------------------------------------------

  Dipole Moment: [D]
     X:     1.4908      Y:    -2.3267      Z:    -0.0118     Total:     2.7634

*** Psi4 exiting successfully. Buy a developer a beer!
