                               Psi4 1.4a3.dev225

  ==> Input File <==

--------------------------------------------------------------------------
#psi4
#
memory 32 gb

molecule  {
0 1
  O       -2.2261580     0.9189870    -0.1609950
  N        0.4211910     1.5299470     0.0903790
  C        0.0817250     0.2107030     0.0159890
  C        2.4145630    -0.5010270    -0.0428790
  C       -1.3460660    -0.1139160     0.0206840
  C        1.0420520    -0.8182650    -0.0594370
  C        2.7641530     0.8636850     0.0360660
  C       -2.0477590    -1.2949740     0.1722820
  C        3.4684270    -1.5756500    -0.0824610
  C        1.7493340     1.8260270     0.0926910
  C       -3.4286880    -0.9658200     0.0768380
  C       -3.5066907     0.3873668    -0.1250262
  H        0.7225460    -1.8551450    -0.1446860
  H        3.8080070     1.1710760     0.0438400
  H       -1.6259220    -2.2752860     0.3500510
  H        3.8398640    -1.7937090     0.9244500
  H        3.0687740    -2.5034170    -0.5007000
  H        4.3228250    -1.2652800    -0.6906580
  H        1.9977040     2.8869120     0.1452960
  H       -4.2730300    -1.6376780     0.1527080
  H       -4.2894270     1.0948070    -0.2563320
units angstrom
no_reorient  #important for SAPT in psi4, default
symmetry c1  #important for SAPT in psi4, default
}

set PROPERTIES_ORIGIN ["COM"]
properties('MP2/aug-cc-pvtz', properties = ['dipole'])
--------------------------------------------------------------------------

    Molecular point group: c1
  Charge       = 0
  Multiplicity = 1
  Basis Set: AUG-CC-PVTZ
    Blend: AUG-CC-PVTZ
  Basis Set: (AUG-CC-PVTZ AUX)
    Blend: AUG-CC-PVTZ-JKFIT

    Orbital Energies [Eh]
    ---------------------

    Doubly Occupied:

       1A    -20.618484     2A    -15.564217     3A    -11.298442
       4A    -11.294595     5A    -11.292246     6A    -11.278955
       7A    -11.272121     8A    -11.243102     9A    -11.239713
      10A    -11.239058    11A    -11.238192    12A    -11.235639
      13A     -1.444324    14A     -1.244389    15A     -1.104611
      16A     -1.086262    17A     -1.057724    18A     -0.984297
      19A     -0.968251    20A     -0.863972    21A     -0.836705
      22A     -0.798284    23A     -0.764012    24A     -0.727598
      25A     -0.673496    26A     -0.669313    27A     -0.639404
      28A     -0.628508    29A     -0.599521    30A     -0.590764
      31A     -0.579247    32A     -0.564127    33A     -0.559171
      34A     -0.548537    35A     -0.540641    36A     -0.525274
      37A     -0.510050    38A     -0.417901    39A     -0.401535
      40A     -0.376324    41A     -0.362799    42A     -0.288687

  @DF-RHF Final Energy:  -513.37565235246063

   => Energetics <=

    Nuclear Repulsion Energy =            628.3914902913712694
    One-Electron Energy =               -1943.1933048417370173
    Two-Electron Energy =                 801.4261621979050005
    Total Energy =                       -513.3756523524606337
  Basis Set: (AUG-CC-PVTZ AUX)
    Blend: AUG-CC-PVTZ-RI
    Molecular point group: c1

    Geometry (in Angstrom), charge = 0, multiplicity = 1:

       Center              X                  Y                   Z               Mass
    ------------   -----------------  -----------------  -----------------  -----------------
         O           -2.177210206923     0.880547084389    -0.160816464898    15.994914619570
         N            0.470138793077     1.491507084389     0.090557535102    14.003074004430
         C            0.130672793077     0.172263084389     0.016167535102    12.000000000000
         C            2.463510793077    -0.539466915611    -0.042700464898    12.000000000000
         C           -1.297118206923    -0.152355915611     0.020862535102    12.000000000000
         C            1.090999793077    -0.856704915611    -0.059258464898    12.000000000000
         C            2.813100793077     0.825245084389     0.036244535102    12.000000000000
         C           -1.998811206923    -1.333413915611     0.172460535102    12.000000000000
         C            3.517374793077    -1.614089915611    -0.082282464898    12.000000000000
         C            1.798281793077     1.787587084389     0.092869535102    12.000000000000
         C           -3.379740206923    -1.004259915611     0.077016535102    12.000000000000
         C           -3.457742906923     0.348926884389    -0.124847664898    12.000000000000
         H            0.771493793077    -1.893584915611    -0.144507464898     1.007825032230
         H            3.856954793077     1.132636084389     0.044018535102     1.007825032230
         H           -1.576974206923    -2.313725915611     0.350229535102     1.007825032230
         H            3.888811793077    -1.832148915611     0.924628535102     1.007825032230
         H            3.117721793077    -2.541856915611    -0.500521464898     1.007825032230
         H            4.371772793077    -1.303719915611    -0.690479464898     1.007825032230
         H            2.046651793077     2.848472084389     0.145474535102     1.007825032230
         H           -4.224082206923    -1.676117915611     0.152886535102     1.007825032230
         H           -4.240479206923     1.056367084389    -0.256153464898     1.007825032230

  Basis Set: AUG-CC-PVTZ
    Blend: AUG-CC-PVTZ
  Basis Set: (AUG-CC-PVTZ AUX)
    Blend: AUG-CC-PVTZ-JKFIT
	 Reference Energy          =    -513.3756523524606337 [Eh]
	 Singles Energy            =      -0.0000000000000000 [Eh]
	 Same-Spin Energy          =      -0.5591476451670063 [Eh]
	 Opposite-Spin Energy      =      -1.7142025647262025 [Eh]
	 Correlation Energy        =      -2.2733502098932088 [Eh]
	 Total Energy              =    -515.6490025623538713 [Eh]

	 ================> DF-SCS-MP2 Energies <==================
	-----------------------------------------------------------
	 SCS Same-Spin Scale       =       0.3333333333333333 [-]
	 SCS Opposite-Spin Scale   =       1.2000000000000000 [-]
	 SCS Same-Spin Energy      =      -0.1863825483890021 [Eh]
	 SCS Opposite-Spin Energy  =      -2.0570430776714428 [Eh]
	 SCS Correlation Energy    =      -2.2434256260604450 [Eh]
	 SCS Total Energy          =    -515.6190779785210907 [Eh]
	-----------------------------------------------------------

  Dipole Moment: [D]
     X:     1.4845      Y:    -2.3820      Z:    -0.0030     Total:     2.8068

*** Psi4 exiting successfully. Buy a developer a beer!
