                               Psi4 1.4a3.dev225

  ==> Input File <==

--------------------------------------------------------------------------
#psi4
#
memory 32 gb

molecule  {
0 1
  O       -2.2261580     0.9189870    -0.1609950
  N        0.4211910     1.5299470     0.0903790
  C        0.0817250     0.2107030     0.0159890
  C        2.4145630    -0.5010270    -0.0428790
  C       -1.3460660    -0.1139160     0.0206840
  C        1.0420520    -0.8182650    -0.0594370
  C        2.7641530     0.8636850     0.0360660
  C       -2.0477590    -1.2949740     0.1722820
  C        3.4684270    -1.5756500    -0.0824610
  C        1.7493340     1.8260270     0.0926910
  C       -3.4286880    -0.9658200     0.0768380
  C       -3.4835999     0.4083701    -0.1274892
  H        0.7225460    -1.8551450    -0.1446860
  H        3.8080070     1.1710760     0.0438400
  H       -1.6259220    -2.2752860     0.3500510
  H        3.8398640    -1.7937090     0.9244500
  H        3.0687740    -2.5034170    -0.5007000
  H        4.3228250    -1.2652800    -0.6906580
  H        1.9977040     2.8869120     0.1452960
  H       -4.2730300    -1.6376780     0.1527080
  H       -4.2894270     1.0948070    -0.2563320
units angstrom
no_reorient  #important for SAPT in psi4, default
symmetry c1  #important for SAPT in psi4, default
}

set PROPERTIES_ORIGIN ["COM"]
properties('MP2/aug-cc-pvtz', properties = ['dipole'])
--------------------------------------------------------------------------

    Molecular point group: c1
  Charge       = 0
  Multiplicity = 1
  Basis Set: AUG-CC-PVTZ
    Blend: AUG-CC-PVTZ
  Basis Set: (AUG-CC-PVTZ AUX)
    Blend: AUG-CC-PVTZ-JKFIT

    Orbital Energies [Eh]
    ---------------------

    Doubly Occupied:

       1A    -20.623615     2A    -15.563588     3A    -11.297244
       4A    -11.294856     5A    -11.294592     6A    -11.278733
       7A    -11.271856     8A    -11.242446     9A    -11.239471
      10A    -11.239458    11A    -11.238333    12A    -11.235750
      13A     -1.456450    14A     -1.244185    15A     -1.104196
      16A     -1.086191    17A     -1.056577    18A     -0.984559
      19A     -0.968235    20A     -0.862739    21A     -0.836872
      22A     -0.800869    23A     -0.765048    24A     -0.729251
      25A     -0.673500    26A     -0.669096    27A     -0.641582
      28A     -0.634697    29A     -0.601930    30A     -0.590609
      31A     -0.578003    32A     -0.567222    33A     -0.558363
      34A     -0.547811    35A     -0.538817    36A     -0.525450
      37A     -0.509806    38A     -0.417619    39A     -0.401941
      40A     -0.374590    41A     -0.362211    42A     -0.286605

  @DF-RHF Final Energy:  -513.37608177656557

   => Energetics <=

    Nuclear Repulsion Energy =            628.7604524757895206
    One-Electron Energy =               -1943.8831362400774196
    Two-Electron Energy =                 801.7466019877224426
    Total Energy =                       -513.3760817765655702
  Basis Set: (AUG-CC-PVTZ AUX)
    Blend: AUG-CC-PVTZ-RI
    Molecular point group: c1

    Geometry (in Angstrom), charge = 0, multiplicity = 1:

       Center              X                  Y                   Z               Mass
    ------------   -----------------  -----------------  -----------------  -----------------
         O           -2.178952159289     0.878962611433    -0.160630658054    15.994914619570
         N            0.468396840711     1.489922611433     0.090743341946    14.003074004430
         C            0.128930840711     0.170678611433     0.016353341946    12.000000000000
         C            2.461768840711    -0.541051388567    -0.042514658054    12.000000000000
         C           -1.298860159289    -0.153940388567     0.021048341946    12.000000000000
         C            1.089257840711    -0.858289388567    -0.059072658054    12.000000000000
         C            2.811358840711     0.823660611433     0.036430341946    12.000000000000
         C           -2.000553159289    -1.334998388567     0.172646341946    12.000000000000
         C            3.515632840711    -1.615674388567    -0.082096658054    12.000000000000
         C            1.796539840711     1.786002611433     0.093055341946    12.000000000000
         C           -3.381482159289    -1.005844388567     0.077202341946    12.000000000000
         C           -3.436394059289     0.368345711433    -0.127124858054    12.000000000000
         H            0.769751840711    -1.895169388567    -0.144321658054     1.007825032230
         H            3.855212840711     1.131051611433     0.044204341946     1.007825032230
         H           -1.578716159289    -2.315310388567     0.350415341946     1.007825032230
         H            3.887069840711    -1.833733388567     0.924814341946     1.007825032230
         H            3.115979840711    -2.543441388567    -0.500335658054     1.007825032230
         H            4.370030840711    -1.305304388567    -0.690293658054     1.007825032230
         H            2.044909840711     2.846887611433     0.145660341946     1.007825032230
         H           -4.225824159289    -1.677702388567     0.153072341946     1.007825032230
         H           -4.242221159289     1.054782611433    -0.255967658054     1.007825032230

  Basis Set: AUG-CC-PVTZ
    Blend: AUG-CC-PVTZ
  Basis Set: (AUG-CC-PVTZ AUX)
    Blend: AUG-CC-PVTZ-JKFIT
	 Reference Energy          =    -513.3760817765655702 [Eh]
	 Singles Energy            =      -0.0000000000000000 [Eh]
	 Same-Spin Energy          =      -0.5593288341759632 [Eh]
	 Opposite-Spin Energy      =      -1.7139088304476835 [Eh]
	 Correlation Energy        =      -2.2732376646236467 [Eh]
	 Total Energy              =    -515.6493194411891636 [Eh]

	 ================> DF-SCS-MP2 Energies <==================
	-----------------------------------------------------------
	 SCS Same-Spin Scale       =       0.3333333333333333 [-]
	 SCS Opposite-Spin Scale   =       1.2000000000000000 [-]
	 SCS Same-Spin Energy      =      -0.1864429447253211 [Eh]
	 SCS Opposite-Spin Energy  =      -2.0566905965372202 [Eh]
	 SCS Correlation Energy    =      -2.2431335412625413 [Eh]
	 SCS Total Energy          =    -515.6192153178280932 [Eh]
	-----------------------------------------------------------

  Dipole Moment: [D]
     X:     1.4969      Y:    -2.3442      Z:    -0.0085     Total:     2.7814

*** Psi4 exiting successfully. Buy a developer a beer!
