                               Psi4 1.4a3.dev225

  ==> Input File <==

--------------------------------------------------------------------------
#psi4
#
memory 32 gb

molecule  {
0 1
  O       -2.2261580     0.9189870    -0.1609950
  N        0.4211910     1.5299470     0.0903790
  C        0.0817250     0.2107030     0.0159890
  C        2.4145630    -0.5010270    -0.0428790
  C       -1.3460660    -0.1139160     0.0206840
  C        1.0420520    -0.8182650    -0.0594370
  C        2.7641530     0.8636850     0.0360660
  C       -2.0477590    -1.2949740     0.1722820
  C        3.4684270    -1.5756500    -0.0824610
  C        1.7493340     1.8260270     0.0926910
  C       -3.4286880    -0.9658200     0.0768380
  C       -3.4828100     0.3886030    -0.1245500
  H        0.7225460    -1.8551450    -0.1446860
  H        3.6161575     1.1145807     0.0424112
  H       -1.6259220    -2.2752860     0.3500510
  H        3.8398640    -1.7937090     0.9244500
  H        3.0687740    -2.5034170    -0.5007000
  H        4.3228250    -1.2652800    -0.6906580
  H        1.9977040     2.8869120     0.1452960
  H       -4.2730300    -1.6376780     0.1527080
  H       -4.2894270     1.0948070    -0.2563320
units angstrom
no_reorient  #important for SAPT in psi4, default
symmetry c1  #important for SAPT in psi4, default
}

set PROPERTIES_ORIGIN ["COM"]
properties('MP2/aug-cc-pvtz', properties = ['dipole'])
--------------------------------------------------------------------------

    Molecular point group: c1
  Charge       = 0
  Multiplicity = 1
  Basis Set: AUG-CC-PVTZ
    Blend: AUG-CC-PVTZ
  Basis Set: (AUG-CC-PVTZ AUX)
    Blend: AUG-CC-PVTZ-JKFIT

    Orbital Energies [Eh]
    ---------------------

    Doubly Occupied:

       1A    -20.621595     2A    -15.562462     3A    -11.296931
       4A    -11.293942     5A    -11.293012     6A    -11.277534
       7A    -11.270442     8A    -11.241305     9A    -11.239611
      10A    -11.238672    11A    -11.233646    12A    -11.214614
      13A     -1.453629    14A     -1.243408    15A     -1.106986
      16A     -1.087950    17A     -1.059489    18A     -0.991173
      19A     -0.968468    20A     -0.873900    21A     -0.835616
      22A     -0.800549    23A     -0.766648    24A     -0.727934
      25A     -0.704800    26A     -0.668169    27A     -0.641889
      28A     -0.633414    29A     -0.600756    30A     -0.590833
      31A     -0.584927    32A     -0.566207    33A     -0.562280
      34A     -0.547040    35A     -0.540254    36A     -0.524566
      37A     -0.513535    38A     -0.417244    39A     -0.402156
      40A     -0.375506    41A     -0.361601    42A     -0.287638

  @DF-RHF Final Energy:  -513.34297078655823

   => Energetics <=

    Nuclear Repulsion Energy =            630.1304777014659066
    One-Electron Energy =               -1946.5022346424921125
    Two-Electron Energy =                 803.0287861544679799
    Total Energy =                       -513.3429707865582259
  Basis Set: (AUG-CC-PVTZ AUX)
    Blend: AUG-CC-PVTZ-RI
    Molecular point group: c1

    Geometry (in Angstrom), charge = 0, multiplicity = 1:

       Center              X                  Y                   Z               Mass
    ------------   -----------------  -----------------  -----------------  -----------------
         O           -2.177796229435     0.880811769102    -0.160843336478    15.994914619570
         N            0.469552770565     1.491771769102     0.090530663522    14.003074004430
         C            0.130086770565     0.172527769102     0.016140663522    12.000000000000
         C            2.462924770565    -0.539202230898    -0.042727336478    12.000000000000
         C           -1.297704229435    -0.152091230898     0.020835663522    12.000000000000
         C            1.090413770565    -0.856440230898    -0.059285336478    12.000000000000
         C            2.812514770565     0.825509769102     0.036217663522    12.000000000000
         C           -1.999397229435    -1.333149230898     0.172433663522    12.000000000000
         C            3.516788770565    -1.613825230898    -0.082309336478    12.000000000000
         C            1.797695770565     1.787851769102     0.092842663522    12.000000000000
         C           -3.380326229435    -1.003995230898     0.076989663522    12.000000000000
         C           -3.434448229435     0.350427769102    -0.124398336478    12.000000000000
         H            0.770907770565    -1.893320230898    -0.144534336478     1.007825032230
         H            3.664519270565     1.076405469102     0.042562863522     1.007825032230
         H           -1.577560229435    -2.313461230898     0.350202663522     1.007825032230
         H            3.888225770565    -1.831884230898     0.924601663522     1.007825032230
         H            3.117135770565    -2.541592230898    -0.500548336478     1.007825032230
         H            4.371186770565    -1.303455230898    -0.690506336478     1.007825032230
         H            2.046065770565     2.848736769102     0.145447663522     1.007825032230
         H           -4.224668229435    -1.675853230898     0.152859663522     1.007825032230
         H           -4.241065229435     1.056631769102    -0.256180336478     1.007825032230

  Basis Set: AUG-CC-PVTZ
    Blend: AUG-CC-PVTZ
  Basis Set: (AUG-CC-PVTZ AUX)
    Blend: AUG-CC-PVTZ-JKFIT
	 Reference Energy          =    -513.3429707865582259 [Eh]
	 Singles Energy            =      -0.0000000000000000 [Eh]
	 Same-Spin Energy          =      -0.5587891813755091 [Eh]
	 Opposite-Spin Energy      =      -1.7129859284211473 [Eh]
	 Correlation Energy        =      -2.2717751097966565 [Eh]
	 Total Energy              =    -515.6147458963548615 [Eh]

	 ================> DF-SCS-MP2 Energies <==================
	-----------------------------------------------------------
	 SCS Same-Spin Scale       =       0.3333333333333333 [-]
	 SCS Opposite-Spin Scale   =       1.2000000000000000 [-]
	 SCS Same-Spin Energy      =      -0.1862630604585030 [Eh]
	 SCS Opposite-Spin Energy  =      -2.0555831141053766 [Eh]
	 SCS Correlation Energy    =      -2.2418461745638796 [Eh]
	 SCS Total Energy          =    -515.5848169611221010 [Eh]
	-----------------------------------------------------------

  Dipole Moment: [D]
     X:     1.5233      Y:    -2.3622      Z:    -0.0050     Total:     2.8108

*** Psi4 exiting successfully. Buy a developer a beer!
