                               Psi4 1.4a3.dev225

  ==> Input File <==

--------------------------------------------------------------------------
#psi4
#
memory 32 gb

molecule  {
0 1
  O       -2.2261580     0.9189870    -0.1609950
  N        0.4211910     1.5299470     0.0903790
  C        0.0817250     0.2107030     0.0159890
  C        2.4145630    -0.5010270    -0.0428790
  C       -1.3460660    -0.1139160     0.0206840
  C        1.0420520    -0.8182650    -0.0594370
  C        2.7641530     0.8636850     0.0360660
  C       -2.0477590    -1.2949740     0.1722820
  C        3.4684270    -1.5756500    -0.0824610
  C        1.7493340     1.8260270     0.0926910
  C       -3.4286880    -0.9658200     0.0768380
  C       -3.5288587     0.3691676    -0.1232145
  H        0.7225460    -1.8551450    -0.1446860
  H        3.8080070     1.1710760     0.0438400
  H       -1.6259220    -2.2752860     0.3500510
  H        3.8398640    -1.7937090     0.9244500
  H        3.0687740    -2.5034170    -0.5007000
  H        4.3228250    -1.2652800    -0.6906580
  H        1.9977040     2.8869120     0.1452960
  H       -4.2730300    -1.6376780     0.1527080
  H       -4.2894270     1.0948070    -0.2563320
units angstrom
no_reorient  #important for SAPT in psi4, default
symmetry c1  #important for SAPT in psi4, default
}

set PROPERTIES_ORIGIN ["COM"]
properties('MP2/aug-cc-pvtz', properties = ['dipole'])
--------------------------------------------------------------------------

    Molecular point group: c1
  Charge       = 0
  Multiplicity = 1
  Basis Set: AUG-CC-PVTZ
    Blend: AUG-CC-PVTZ
  Basis Set: (AUG-CC-PVTZ AUX)
    Blend: AUG-CC-PVTZ-JKFIT

    Orbital Energies [Eh]
    ---------------------

    Doubly Occupied:

       1A    -20.613796     2A    -15.564737     3A    -11.299467
       4A    -11.294563     5A    -11.290246     6A    -11.279125
       7A    -11.272332     8A    -11.243656     9A    -11.239909
      10A    -11.239670    11A    -11.237100    12A    -11.235578
      13A     -1.433789    14A     -1.244533    15A     -1.104960
      16A     -1.086657    17A     -1.058484    18A     -0.984218
      19A     -0.968246    20A     -0.865066    21A     -0.836689
      22A     -0.796013    23A     -0.763105    24A     -0.726289
      25A     -0.673572    26A     -0.669550    27A     -0.637864
      28A     -0.623082    29A     -0.597727    30A     -0.590849
      31A     -0.580557    32A     -0.563385    33A     -0.558511
      34A     -0.549164    35A     -0.539871    36A     -0.525050
      37A     -0.510164    38A     -0.418117    39A     -0.401629
      40A     -0.377632    41A     -0.363216    42A     -0.290387

  @DF-RHF Final Energy:  -513.37359289840811

   => Energetics <=

    Nuclear Repulsion Energy =            628.0338008131835750
    One-Electron Energy =               -1942.5176801862096454
    Two-Electron Energy =                 801.1102864746178511
    Total Energy =                       -513.3735928984081056
  Basis Set: (AUG-CC-PVTZ AUX)
    Blend: AUG-CC-PVTZ-RI
    Molecular point group: c1

    Geometry (in Angstrom), charge = 0, multiplicity = 1:

       Center              X                  Y                   Z               Mass
    ------------   -----------------  -----------------  -----------------  -----------------
         O           -2.175537869886     0.881920018177    -0.160953138166    15.994914619570
         N            0.471811130114     1.492880018177     0.090420861834    14.003074004430
         C            0.132345130114     0.173636018177     0.016030861834    12.000000000000
         C            2.465183130114    -0.538093981823    -0.042837138166    12.000000000000
         C           -1.295445869886    -0.150982981823     0.020725861834    12.000000000000
         C            1.092672130114    -0.855331981823    -0.059395138166    12.000000000000
         C            2.814773130114     0.826618018177     0.036107861834    12.000000000000
         C           -1.997138869886    -1.332040981823     0.172323861834    12.000000000000
         C            3.519047130114    -1.612716981823    -0.082419138166    12.000000000000
         C            1.799954130114     1.788960018177     0.092732861834    12.000000000000
         C           -3.378067869886    -1.002886981823     0.076879861834    12.000000000000
         C           -3.478238569886     0.332100618177    -0.123172638166    12.000000000000
         H            0.773166130114    -1.892211981823    -0.144644138166     1.007825032230
         H            3.858627130114     1.134009018177     0.043881861834     1.007825032230
         H           -1.575301869886    -2.312352981823     0.350092861834     1.007825032230
         H            3.890484130114    -1.830775981823     0.924491861834     1.007825032230
         H            3.119394130114    -2.540483981823    -0.500658138166     1.007825032230
         H            4.373445130114    -1.302346981823    -0.690616138166     1.007825032230
         H            2.048324130114     2.849845018177     0.145337861834     1.007825032230
         H           -4.222409869886    -1.674744981823     0.152749861834     1.007825032230
         H           -4.238806869886     1.057740018177    -0.256290138166     1.007825032230

  Basis Set: AUG-CC-PVTZ
    Blend: AUG-CC-PVTZ
  Basis Set: (AUG-CC-PVTZ AUX)
    Blend: AUG-CC-PVTZ-JKFIT
	 Reference Energy          =    -513.3735928984081056 [Eh]
	 Singles Energy            =      -0.0000000000000000 [Eh]
	 Same-Spin Energy          =      -0.5590192651361334 [Eh]
	 Opposite-Spin Energy      =      -1.7145264436519292 [Eh]
	 Correlation Energy        =      -2.2735457087880624 [Eh]
	 Total Energy              =    -515.6471386071962115 [Eh]

	 ================> DF-SCS-MP2 Energies <==================
	-----------------------------------------------------------
	 SCS Same-Spin Scale       =       0.3333333333333333 [-]
	 SCS Opposite-Spin Scale   =       1.2000000000000000 [-]
	 SCS Same-Spin Energy      =      -0.1863397550453778 [Eh]
	 SCS Opposite-Spin Energy  =      -2.0574317323823150 [Eh]
	 SCS Correlation Energy    =      -2.2437714874276926 [Eh]
	 SCS Total Energy          =    -515.6173643858357991 [Eh]
	-----------------------------------------------------------

  Dipole Moment: [D]
     X:     1.4713      Y:    -2.4135      Z:     0.0015     Total:     2.8266

*** Psi4 exiting successfully. Buy a developer a beer!
