                               Psi4 1.4a3.dev225

  ==> Input File <==

--------------------------------------------------------------------------
#psi4
#
memory 32 gb

molecule  {
0 1
  O       -2.2261580     0.9189870    -0.1609950
  N        0.4211910     1.5299470     0.0903790
  C        0.0817250     0.2107030     0.0159890
  C        2.4145630    -0.5010270    -0.0428790
  C       -1.3460660    -0.1139160     0.0206840
  C        0.9057871    -0.6722604    -0.0487345
  C        2.7641530     0.8636850     0.0360660
  C       -2.0477590    -1.2949740     0.1722820
  C        3.4684270    -1.5756500    -0.0824610
  C        1.7493340     1.8260270     0.0926910
  C       -3.4286880    -0.9658200     0.0768380
  C       -3.4828100     0.3886030    -0.1245500
  H        0.7225460    -1.8551450    -0.1446860
  H        3.8080070     1.1710760     0.0438400
  H       -1.6259220    -2.2752860     0.3500510
  H        3.8398640    -1.7937090     0.9244500
  H        3.0687740    -2.5034170    -0.5007000
  H        4.3228250    -1.2652800    -0.6906580
  H        1.9977040     2.8869120     0.1452960
  H       -4.2730300    -1.6376780     0.1527080
  H       -4.2894270     1.0948070    -0.2563320
units angstrom
no_reorient  #important for SAPT in psi4, default
symmetry c1  #important for SAPT in psi4, default
}

set PROPERTIES_ORIGIN ["COM"]
properties('MP2/aug-cc-pvtz', properties = ['dipole'])
--------------------------------------------------------------------------

    Molecular point group: c1
  Charge       = 0
  Multiplicity = 1
  Basis Set: AUG-CC-PVTZ
    Blend: AUG-CC-PVTZ
  Basis Set: (AUG-CC-PVTZ AUX)
    Blend: AUG-CC-PVTZ-JKFIT

    Orbital Energies [Eh]
    ---------------------

    Doubly Occupied:

       1A    -20.617232     2A    -15.560784     3A    -11.292073
       4A    -11.287401     5A    -11.286206     6A    -11.282751
       7A    -11.261651     8A    -11.249115     9A    -11.241481
      10A    -11.238686    11A    -11.230849    12A    -11.228658
      13A     -1.449021    14A     -1.255792    15A     -1.095796
      16A     -1.090964    17A     -1.069814    18A     -0.986269
      19A     -0.980180    20A     -0.850683    21A     -0.843890
      22A     -0.793382    23A     -0.764689    24A     -0.733599
      25A     -0.677433    26A     -0.664171    27A     -0.631298
      28A     -0.625666    29A     -0.604485    30A     -0.595995
      31A     -0.576006    32A     -0.565534    33A     -0.561533
      34A     -0.549610    35A     -0.541303    36A     -0.534438
      37A     -0.474830    38A     -0.419279    39A     -0.403811
      40A     -0.384584    41A     -0.353443    42A     -0.292500

  @DF-RHF Final Energy:  -513.31709561171181

   => Energetics <=

    Nuclear Repulsion Energy =            631.6991786330402192
    One-Electron Energy =               -1949.7387777149419890
    Two-Electron Energy =                 804.7225034701899631
    Total Energy =                       -513.3170956117118067
  Basis Set: (AUG-CC-PVTZ AUX)
    Blend: AUG-CC-PVTZ-RI
    Molecular point group: c1

    Geometry (in Angstrom), charge = 0, multiplicity = 1:

       Center              X                  Y                   Z               Mass
    ------------   -----------------  -----------------  -----------------  -----------------
         O           -2.168732028466     0.869439350575    -0.161659777512    15.994914619570
         N            0.478616971534     1.480399350575     0.089714222488    14.003074004430
         C            0.139150971534     0.161155350575     0.015324222488    12.000000000000
         C            2.471988971534    -0.550574649425    -0.043543777512    12.000000000000
         C           -1.288640028466    -0.163463649425     0.020019222488    12.000000000000
         C            0.963213071534    -0.721808049425    -0.049399277512    12.000000000000
         C            2.821578971534     0.814137350575     0.035401222488    12.000000000000
         C           -1.990333028466    -1.344521649425     0.171617222488    12.000000000000
         C            3.525852971534    -1.625197649425    -0.083125777512    12.000000000000
         C            1.806759971534     1.776479350575     0.092026222488    12.000000000000
         C           -3.371262028466    -1.015367649425     0.076173222488    12.000000000000
         C           -3.425384028466     0.339055350575    -0.125214777512    12.000000000000
         H            0.779971971534    -1.904692649425    -0.145350777512     1.007825032230
         H            3.865432971534     1.121528350575     0.043175222488     1.007825032230
         H           -1.568496028466    -2.324833649425     0.349386222488     1.007825032230
         H            3.897289971534    -1.843256649425     0.923785222488     1.007825032230
         H            3.126199971534    -2.552964649425    -0.501364777512     1.007825032230
         H            4.380250971534    -1.314827649425    -0.691322777512     1.007825032230
         H            2.055129971534     2.837364350575     0.144631222488     1.007825032230
         H           -4.215604028466    -1.687225649425     0.152043222488     1.007825032230
         H           -4.232001028466     1.045259350575    -0.256996777512     1.007825032230

  Basis Set: AUG-CC-PVTZ
    Blend: AUG-CC-PVTZ
  Basis Set: (AUG-CC-PVTZ AUX)
    Blend: AUG-CC-PVTZ-JKFIT
	 Reference Energy          =    -513.3170956117118067 [Eh]
	 Singles Energy            =      -0.0000000000000000 [Eh]
	 Same-Spin Energy          =      -0.5590232947350566 [Eh]
	 Opposite-Spin Energy      =      -1.7158223834168593 [Eh]
	 Correlation Energy        =      -2.2748456781519160 [Eh]
	 Total Energy              =    -515.5919412898637120 [Eh]

	 ================> DF-SCS-MP2 Energies <==================
	-----------------------------------------------------------
	 SCS Same-Spin Scale       =       0.3333333333333333 [-]
	 SCS Opposite-Spin Scale   =       1.2000000000000000 [-]
	 SCS Same-Spin Energy      =      -0.1863410982450189 [Eh]
	 SCS Opposite-Spin Energy  =      -2.0589868601002310 [Eh]
	 SCS Correlation Energy    =      -2.2453279583452499 [Eh]
	 SCS Total Energy          =    -515.5624235700570352 [Eh]
	-----------------------------------------------------------

  Dipole Moment: [D]
     X:     1.9911      Y:    -2.3012      Z:     0.0012     Total:     3.0430

*** Psi4 exiting successfully. Buy a developer a beer!
