                               Psi4 1.4a3.dev225

  ==> Input File <==

--------------------------------------------------------------------------
#psi4
#
memory 32 gb

molecule  {
0 1
  O       -2.2261580     0.9189870    -0.1609950
  N        0.4211910     1.5299470     0.0903790
  C        0.0817250     0.2107030     0.0159890
  C        2.4384722    -0.5068946    -0.0434819
  C       -1.3460660    -0.1139160     0.0206840
  C        1.0420520    -0.8182650    -0.0594370
  C        2.7641530     0.8636850     0.0360660
  C       -2.0477590    -1.2949740     0.1722820
  C        3.4684270    -1.5756500    -0.0824610
  C        1.7493340     1.8260270     0.0926910
  C       -3.4286880    -0.9658200     0.0768380
  C       -3.4828100     0.3886030    -0.1245500
  H        0.7225460    -1.8551450    -0.1446860
  H        3.8080070     1.1710760     0.0438400
  H       -1.6259220    -2.2752860     0.3500510
  H        3.8398640    -1.7937090     0.9244500
  H        3.0687740    -2.5034170    -0.5007000
  H        4.3228250    -1.2652800    -0.6906580
  H        1.9977040     2.8869120     0.1452960
  H       -4.2730300    -1.6376780     0.1527080
  H       -4.2894270     1.0948070    -0.2563320
units angstrom
no_reorient  #important for SAPT in psi4, default
symmetry c1  #important for SAPT in psi4, default
}

set PROPERTIES_ORIGIN ["COM"]
properties('MP2/aug-cc-pvtz', properties = ['dipole'])
--------------------------------------------------------------------------

    Molecular point group: c1
  Charge       = 0
  Multiplicity = 1
  Basis Set: AUG-CC-PVTZ
    Blend: AUG-CC-PVTZ
  Basis Set: (AUG-CC-PVTZ AUX)
    Blend: AUG-CC-PVTZ-JKFIT

    Orbital Energies [Eh]
    ---------------------

    Doubly Occupied:

       1A    -20.621552     2A    -15.563739     3A    -11.297005
       4A    -11.293884     5A    -11.292718     6A    -11.279337
       7A    -11.273885     8A    -11.244416     9A    -11.239441
      10A    -11.238845    11A    -11.238312    12A    -11.233494
      13A     -1.453566    14A     -1.243449    15A     -1.104984
      16A     -1.087454    17A     -1.057175    18A     -0.983996
      19A     -0.970110    20A     -0.861744    21A     -0.835956
      22A     -0.799920    23A     -0.764468    24A     -0.727698
      25A     -0.671935    26A     -0.668817    27A     -0.640332
      28A     -0.633365    29A     -0.599252    30A     -0.592964
      31A     -0.578026    32A     -0.566013    33A     -0.560221
      34A     -0.552545    35A     -0.540674    36A     -0.524558
      37A     -0.506149    38A     -0.418261    39A     -0.402158
      40A     -0.375804    41A     -0.359773    42A     -0.287548

  @DF-RHF Final Energy:  -513.37535898506303

   => Energetics <=

    Nuclear Repulsion Energy =            628.6480172124026922
    One-Electron Energy =               -1943.6756676433219582
    Two-Electron Energy =                 801.6522914458562354
    Total Energy =                       -513.3753589850630306
  Basis Set: (AUG-CC-PVTZ AUX)
    Blend: AUG-CC-PVTZ-RI
    Molecular point group: c1

    Geometry (in Angstrom), charge = 0, multiplicity = 1:

       Center              X                  Y                   Z               Mass
    ------------   -----------------  -----------------  -----------------  -----------------
         O           -2.180815440583     0.880896473678    -0.160806906746    15.994914619570
         N            0.466533559417     1.491856473678     0.090567093254    14.003074004430
         C            0.127067559417     0.172612473678     0.016177093254    12.000000000000
         C            2.483814759417    -0.544985126322    -0.043293806746    12.000000000000
         C           -1.300723440583    -0.152006526322     0.020872093254    12.000000000000
         C            1.087394559417    -0.856355526322    -0.059248906746    12.000000000000
         C            2.809495559417     0.825594473678     0.036254093254    12.000000000000
         C           -2.002416440583    -1.333064526322     0.172470093254    12.000000000000
         C            3.513769559417    -1.613740526322    -0.082272906746    12.000000000000
         C            1.794676559417     1.787936473678     0.092879093254    12.000000000000
         C           -3.383345440583    -1.003910526322     0.077026093254    12.000000000000
         C           -3.437467440583     0.350512473678    -0.124361906746    12.000000000000
         H            0.767888559417    -1.893235526322    -0.144497906746     1.007825032230
         H            3.853349559417     1.132985473678     0.044028093254     1.007825032230
         H           -1.580579440583    -2.313376526322     0.350239093254     1.007825032230
         H            3.885206559417    -1.831799526322     0.924638093254     1.007825032230
         H            3.114116559417    -2.541507526322    -0.500511906746     1.007825032230
         H            4.368167559417    -1.303370526322    -0.690469906746     1.007825032230
         H            2.043046559417     2.848821473678     0.145484093254     1.007825032230
         H           -4.227687440583    -1.675768526322     0.152896093254     1.007825032230
         H           -4.244084440583     1.056716473678    -0.256143906746     1.007825032230

  Basis Set: AUG-CC-PVTZ
    Blend: AUG-CC-PVTZ
  Basis Set: (AUG-CC-PVTZ AUX)
    Blend: AUG-CC-PVTZ-JKFIT
	 Reference Energy          =    -513.3753589850630306 [Eh]
	 Singles Energy            =      -0.0000000000000000 [Eh]
	 Same-Spin Energy          =      -0.5593304447922625 [Eh]
	 Opposite-Spin Energy      =      -1.7140339097988824 [Eh]
	 Correlation Energy        =      -2.2733643545911448 [Eh]
	 Total Energy              =    -515.6487233396542251 [Eh]

	 ================> DF-SCS-MP2 Energies <==================
	-----------------------------------------------------------
	 SCS Same-Spin Scale       =       0.3333333333333333 [-]
	 SCS Opposite-Spin Scale   =       1.2000000000000000 [-]
	 SCS Same-Spin Energy      =      -0.1864434815974208 [Eh]
	 SCS Opposite-Spin Energy  =      -2.0568406917586586 [Eh]
	 SCS Correlation Energy    =      -2.2432841733560793 [Eh]
	 SCS Total Energy          =    -515.6186431584191041 [Eh]
	-----------------------------------------------------------

  Dipole Moment: [D]
     X:     1.5333      Y:    -2.3993      Z:    -0.0038     Total:     2.8473

*** Psi4 exiting successfully. Buy a developer a beer!
