                               Psi4 1.4a3.dev225

  ==> Input File <==

--------------------------------------------------------------------------
#psi4
#
memory 32 gb

molecule  {
0 1
  O       -2.2261580     0.9189870    -0.1609950
  N        0.4211910     1.5299470     0.0903790
  C        0.0817250     0.2107030     0.0159890
  C        2.5244817    -0.4070982     0.0198355
  C       -1.3460660    -0.1139160     0.0206840
  C        1.0420520    -0.8182650    -0.0594370
  C        2.7641530     0.8636850     0.0360660
  C       -2.0477590    -1.2949740     0.1722820
  C        3.4684270    -1.5756500    -0.0824610
  C        1.7493340     1.8260270     0.0926910
  C       -3.4286880    -0.9658200     0.0768380
  C       -3.4828100     0.3886030    -0.1245500
  H        0.7225460    -1.8551450    -0.1446860
  H        3.8080070     1.1710760     0.0438400
  H       -1.6259220    -2.2752860     0.3500510
  H        3.8398640    -1.7937090     0.9244500
  H        3.0687740    -2.5034170    -0.5007000
  H        4.3228250    -1.2652800    -0.6906580
  H        1.9977040     2.8869120     0.1452960
  H       -4.2730300    -1.6376780     0.1527080
  H       -4.2894270     1.0948070    -0.2563320
units angstrom
no_reorient  #important for SAPT in psi4, default
symmetry c1  #important for SAPT in psi4, default
}

set PROPERTIES_ORIGIN ["COM"]
properties('MP2/aug-cc-pvtz', properties = ['dipole'])
--------------------------------------------------------------------------

    Molecular point group: c1
  Charge       = 0
  Multiplicity = 1
  Basis Set: AUG-CC-PVTZ
    Blend: AUG-CC-PVTZ
  Basis Set: (AUG-CC-PVTZ AUX)
    Blend: AUG-CC-PVTZ-JKFIT

    Orbital Energies [Eh]
    ---------------------

    Doubly Occupied:

       1A    -20.619514     2A    -15.566006     3A    -11.294619
       4A    -11.289586     5A    -11.288745     6A    -11.286397
       7A    -11.271144     8A    -11.250613     9A    -11.241281
      10A    -11.234700    11A    -11.231359    12A    -11.229159
      13A     -1.451455    14A     -1.245329    15A     -1.113239
      16A     -1.085112    17A     -1.054645    18A     -0.986547
      19A     -0.964260    20A     -0.867706    21A     -0.835112
      22A     -0.798524    23A     -0.761164    24A     -0.724627
      25A     -0.677519    26A     -0.666214    27A     -0.641401
      28A     -0.631269    29A     -0.599091    30A     -0.593262
      31A     -0.578432    32A     -0.568604    33A     -0.562168
      34A     -0.551934    35A     -0.536729    36A     -0.525451
      37A     -0.489711    38A     -0.418201    39A     -0.403275
      40A     -0.387529    41A     -0.353078    42A     -0.285625

  @DF-RHF Final Energy:  -513.35021370372783

   => Energetics <=

    Nuclear Repulsion Energy =            628.4856178526428039
    One-Electron Energy =               -1943.3509954840028513
    Two-Electron Energy =                 801.5151639276321021
    Total Energy =                       -513.3502137037278317
  Basis Set: (AUG-CC-PVTZ AUX)
    Blend: AUG-CC-PVTZ-RI
    Molecular point group: c1

    Geometry (in Angstrom), charge = 0, multiplicity = 1:

       Center              X                  Y                   Z               Mass
    ------------   -----------------  -----------------  -----------------  -----------------
         O           -2.187303931758     0.873367909266    -0.165583523180    15.994914619570
         N            0.460045068242     1.484327909266     0.085790476820    14.003074004430
         C            0.120579068242     0.165083909266     0.011400476820    12.000000000000
         C            2.563335768242    -0.452717290734     0.015246976820    12.000000000000
         C           -1.307211931758    -0.159535090734     0.016095476820    12.000000000000
         C            1.080906068242    -0.863884090734    -0.064025523180    12.000000000000
         C            2.803007068242     0.818065909266     0.031477476820    12.000000000000
         C           -2.008904931758    -1.340593090734     0.167693476820    12.000000000000
         C            3.507281068242    -1.621269090734    -0.087049523180    12.000000000000
         C            1.788188068242     1.780407909266     0.088102476820    12.000000000000
         C           -3.389833931758    -1.011439090734     0.072249476820    12.000000000000
         C           -3.443955931758     0.342983909266    -0.129138523180    12.000000000000
         H            0.761400068242    -1.900764090734    -0.149274523180     1.007825032230
         H            3.846861068242     1.125456909266     0.039251476820     1.007825032230
         H           -1.587067931758    -2.320905090734     0.345462476820     1.007825032230
         H            3.878718068242    -1.839328090734     0.919861476820     1.007825032230
         H            3.107628068242    -2.549036090734    -0.505288523180     1.007825032230
         H            4.361679068242    -1.310899090734    -0.695246523180     1.007825032230
         H            2.036558068242     2.841292909266     0.140707476820     1.007825032230
         H           -4.234175931758    -1.683297090734     0.148119476820     1.007825032230
         H           -4.250572931758     1.049187909266    -0.260920523180     1.007825032230

  Basis Set: AUG-CC-PVTZ
    Blend: AUG-CC-PVTZ
  Basis Set: (AUG-CC-PVTZ AUX)
    Blend: AUG-CC-PVTZ-JKFIT
	 Reference Energy          =    -513.3502137037278317 [Eh]
	 Singles Energy            =      -0.0000000000000000 [Eh]
	 Same-Spin Energy          =      -0.5588918598843818 [Eh]
	 Opposite-Spin Energy      =      -1.7149764988797154 [Eh]
	 Correlation Energy        =      -2.2738683587640973 [Eh]
	 Total Energy              =    -515.6240820624918797 [Eh]

	 ================> DF-SCS-MP2 Energies <==================
	-----------------------------------------------------------
	 SCS Same-Spin Scale       =       0.3333333333333333 [-]
	 SCS Opposite-Spin Scale   =       1.2000000000000000 [-]
	 SCS Same-Spin Energy      =      -0.1862972866281273 [Eh]
	 SCS Opposite-Spin Energy  =      -2.0579717986556583 [Eh]
	 SCS Correlation Energy    =      -2.2442690852837854 [Eh]
	 SCS Total Energy          =    -515.5944827890116358 [Eh]
	-----------------------------------------------------------

  Dipole Moment: [D]
     X:     1.6293      Y:    -2.3409      Z:    -0.0266     Total:     2.8522

*** Psi4 exiting successfully. Buy a developer a beer!
