                               Psi4 1.4a3.dev225

  ==> Input File <==

--------------------------------------------------------------------------
#psi4
#
memory 32 gb

molecule  {
0 1
  O       -2.2261580     0.9189870    -0.1609950
  N        0.4211910     1.5299470     0.0903790
  C        0.0358209     0.2233025     0.0172641
  C        2.4145630    -0.5010270    -0.0428790
  C       -1.3460660    -0.1139160     0.0206840
  C        1.0420520    -0.8182650    -0.0594370
  C        2.7641530     0.8636850     0.0360660
  C       -2.0477590    -1.2949740     0.1722820
  C        3.4684270    -1.5756500    -0.0824610
  C        1.7493340     1.8260270     0.0926910
  C       -3.4286880    -0.9658200     0.0768380
  C       -3.4828100     0.3886030    -0.1245500
  H        0.7225460    -1.8551450    -0.1446860
  H        3.8080070     1.1710760     0.0438400
  H       -1.6259220    -2.2752860     0.3500510
  H        3.8398640    -1.7937090     0.9244500
  H        3.0687740    -2.5034170    -0.5007000
  H        4.3228250    -1.2652800    -0.6906580
  H        1.9977040     2.8869120     0.1452960
  H       -4.2730300    -1.6376780     0.1527080
  H       -4.2894270     1.0948070    -0.2563320
units angstrom
no_reorient  #important for SAPT in psi4, default
symmetry c1  #important for SAPT in psi4, default
}

set PROPERTIES_ORIGIN ["COM"]
properties('MP2/aug-cc-pvtz', properties = ['dipole'])
--------------------------------------------------------------------------

    Molecular point group: c1
  Charge       = 0
  Multiplicity = 1
  Basis Set: AUG-CC-PVTZ
    Blend: AUG-CC-PVTZ
  Basis Set: (AUG-CC-PVTZ AUX)
    Blend: AUG-CC-PVTZ-JKFIT

    Orbital Energies [Eh]
    ---------------------

    Doubly Occupied:

       1A    -20.623349     2A    -15.562165     3A    -11.296558
       4A    -11.296452     5A    -11.295334     6A    -11.277204
       7A    -11.269515     8A    -11.245033     9A    -11.243072
      10A    -11.238158    11A    -11.237480    12A    -11.236328
      13A     -1.456461    14A     -1.240469    15A     -1.101876
      16A     -1.091112    17A     -1.060824    18A     -0.984500
      19A     -0.963336    20A     -0.867588    21A     -0.835943
      22A     -0.802460    23A     -0.766207    24A     -0.729368
      25A     -0.671157    26A     -0.665921    27A     -0.641668
      28A     -0.636198    29A     -0.598976    30A     -0.588910
      31A     -0.581115    32A     -0.568604    33A     -0.557550
      34A     -0.546301    35A     -0.543661    36A     -0.522365
      37A     -0.513001    38A     -0.411139    39A     -0.404554
      40A     -0.378501    41A     -0.359726    42A     -0.285072

  @DF-RHF Final Energy:  -513.37252319945537

   => Energetics <=

    Nuclear Repulsion Energy =            628.9207747159904329
    One-Electron Energy =               -1944.1961684502364278
    Two-Electron Energy =                 801.9028705347905088
    Total Energy =                       -513.3725231994553724
  Basis Set: (AUG-CC-PVTZ AUX)
    Blend: AUG-CC-PVTZ-RI
    Molecular point group: c1

    Geometry (in Angstrom), charge = 0, multiplicity = 1:

       Center              X                  Y                   Z               Mass
    ------------   -----------------  -----------------  -----------------  -----------------
         O           -2.175548778400     0.879503329718    -0.160948581636    15.994914619570
         N            0.471800221600     1.490463329718     0.090425418364    14.003074004430
         C            0.086430121600     0.183818829718     0.017310518364    12.000000000000
         C            2.465172221600    -0.540510670282    -0.042832581636    12.000000000000
         C           -1.295456778400    -0.153399670282     0.020730418364    12.000000000000
         C            1.092661221600    -0.857748670282    -0.059390581636    12.000000000000
         C            2.814762221600     0.824201329718     0.036112418364    12.000000000000
         C           -1.997149778400    -1.334457670282     0.172328418364    12.000000000000
         C            3.519036221600    -1.615133670282    -0.082414581636    12.000000000000
         C            1.799943221600     1.786543329718     0.092737418364    12.000000000000
         C           -3.378078778400    -1.005303670282     0.076884418364    12.000000000000
         C           -3.432200778400     0.349119329718    -0.124503581636    12.000000000000
         H            0.773155221600    -1.894628670282    -0.144639581636     1.007825032230
         H            3.858616221600     1.131592329718     0.043886418364     1.007825032230
         H           -1.575312778400    -2.314769670282     0.350097418364     1.007825032230
         H            3.890473221600    -1.833192670282     0.924496418364     1.007825032230
         H            3.119383221600    -2.542900670282    -0.500653581636     1.007825032230
         H            4.373434221600    -1.304763670282    -0.690611581636     1.007825032230
         H            2.048313221600     2.847428329718     0.145342418364     1.007825032230
         H           -4.222420778400    -1.677161670282     0.152754418364     1.007825032230
         H           -4.238817778400     1.055323329718    -0.256285581636     1.007825032230

  Basis Set: AUG-CC-PVTZ
    Blend: AUG-CC-PVTZ
  Basis Set: (AUG-CC-PVTZ AUX)
    Blend: AUG-CC-PVTZ-JKFIT
	 Reference Energy          =    -513.3725231994553724 [Eh]
	 Singles Energy            =      -0.0000000000000000 [Eh]
	 Same-Spin Energy          =      -0.5597855804482122 [Eh]
	 Opposite-Spin Energy      =      -1.7146311983444340 [Eh]
	 Correlation Energy        =      -2.2744167787926464 [Eh]
	 Total Energy              =    -515.6469399782480423 [Eh]

	 ================> DF-SCS-MP2 Energies <==================
	-----------------------------------------------------------
	 SCS Same-Spin Scale       =       0.3333333333333333 [-]
	 SCS Opposite-Spin Scale   =       1.2000000000000000 [-]
	 SCS Same-Spin Energy      =      -0.1865951934827374 [Eh]
	 SCS Opposite-Spin Energy  =      -2.0575574380133208 [Eh]
	 SCS Correlation Energy    =      -2.2441526314960583 [Eh]
	 SCS Total Energy          =    -515.6166758309514080 [Eh]
	-----------------------------------------------------------

  Dipole Moment: [D]
     X:     1.2502      Y:    -2.4122      Z:    -0.0015     Total:     2.7169

*** Psi4 exiting successfully. Buy a developer a beer!
