                               Psi4 1.4a3.dev225

  ==> Input File <==

--------------------------------------------------------------------------
#psi4
#
memory 32 gb

molecule  {
0 1
  O       -2.2261580     0.9189870    -0.1609950
  N        0.4211910     1.5299470     0.0903790
  C        0.0817250     0.2107030     0.0159890
  C        2.4145630    -0.5010270    -0.0428790
  C       -1.3460660    -0.1139160     0.0206840
  C        1.0420520    -0.8182650    -0.0594370
  C        2.7641530     0.8636850     0.0360660
  C       -2.0477590    -1.2949740     0.1722820
  C        3.4684270    -1.5756500    -0.0824610
  C        1.7493340     1.8260270     0.0926910
  C       -3.5242829    -0.9667314     0.0736838
  C       -3.4828100     0.3886030    -0.1245500
  H        0.7225460    -1.8551450    -0.1446860
  H        3.8080070     1.1710760     0.0438400
  H       -1.6259220    -2.2752860     0.3500510
  H        3.8398640    -1.7937090     0.9244500
  H        3.0687740    -2.5034170    -0.5007000
  H        4.3228250    -1.2652800    -0.6906580
  H        1.9977040     2.8869120     0.1452960
  H       -4.2730300    -1.6376780     0.1527080
  H       -4.2894270     1.0948070    -0.2563320
units angstrom
no_reorient  #important for SAPT in psi4, default
symmetry c1  #important for SAPT in psi4, default
}

set PROPERTIES_ORIGIN ["COM"]
properties('MP2/aug-cc-pvtz', properties = ['dipole'])
--------------------------------------------------------------------------

    Molecular point group: c1
  Charge       = 0
  Multiplicity = 1
  Basis Set: AUG-CC-PVTZ
    Blend: AUG-CC-PVTZ
  Basis Set: (AUG-CC-PVTZ AUX)
    Blend: AUG-CC-PVTZ-JKFIT

    Orbital Energies [Eh]
    ---------------------

    Doubly Occupied:

       1A    -20.621358     2A    -15.564545     3A    -11.298412
       4A    -11.297894     5A    -11.295139     6A    -11.279108
       7A    -11.272135     8A    -11.245651     9A    -11.242955
      10A    -11.239687    11A    -11.239072    12A    -11.236442
      13A     -1.452672    14A     -1.244775    15A     -1.104555
      16A     -1.075844    17A     -1.056575    18A     -0.985665
      19A     -0.968189    20A     -0.864240    21A     -0.835205
      22A     -0.808849    23A     -0.763767    24A     -0.727038
      25A     -0.674119    26A     -0.669775    27A     -0.639293
      28A     -0.632821    29A     -0.611736    30A     -0.590832
      31A     -0.589386    32A     -0.563357    33A     -0.555521
      34A     -0.546753    35A     -0.528006    36A     -0.522663
      37A     -0.509351    38A     -0.418249    39A     -0.394813
      40A     -0.375732    41A     -0.362830    42A     -0.292708

  @DF-RHF Final Energy:  -513.36750302191808

   => Energetics <=

    Nuclear Repulsion Energy =            627.1999289593045432
    One-Electron Energy =               -1940.7394283518890461
    Two-Electron Energy =                 800.1719963706664203
    Total Energy =                       -513.3675030219180826
  Basis Set: (AUG-CC-PVTZ AUX)
    Blend: AUG-CC-PVTZ-RI
    Molecular point group: c1

    Geometry (in Angstrom), charge = 0, multiplicity = 1:

       Center              X                  Y                   Z               Mass
    ------------   -----------------  -----------------  -----------------  -----------------
         O           -2.171800142292     0.880522581724    -0.160614438617    15.994914619570
         N            0.475548857708     1.491482581724     0.090759561383    14.003074004430
         C            0.136082857708     0.172238581724     0.016369561383    12.000000000000
         C            2.468920857708    -0.539491418276    -0.042498438617    12.000000000000
         C           -1.291708142292    -0.152380418276     0.021064561383    12.000000000000
         C            1.096409857708    -0.856729418276    -0.059056438617    12.000000000000
         C            2.818510857708     0.825220581724     0.036446561383    12.000000000000
         C           -1.993401142292    -1.333438418276     0.172662561383    12.000000000000
         C            3.522784857708    -1.614114418276    -0.082080438617    12.000000000000
         C            1.803691857708     1.787562581724     0.093071561383    12.000000000000
         C           -3.469925042292    -1.005195818276     0.074064361383    12.000000000000
         C           -3.428452142292     0.350138581724    -0.124169438617    12.000000000000
         H            0.776903857708    -1.893609418276    -0.144305438617     1.007825032230
         H            3.862364857708     1.132611581724     0.044220561383     1.007825032230
         H           -1.571564142292    -2.313750418276     0.350431561383     1.007825032230
         H            3.894221857708    -1.832173418276     0.924830561383     1.007825032230
         H            3.123131857708    -2.541881418276    -0.500319438617     1.007825032230
         H            4.377182857708    -1.303744418276    -0.690277438617     1.007825032230
         H            2.052061857708     2.848447581724     0.145676561383     1.007825032230
         H           -4.218672142292    -1.676142418276     0.153088561383     1.007825032230
         H           -4.235069142292     1.056342581724    -0.255951438617     1.007825032230

  Basis Set: AUG-CC-PVTZ
    Blend: AUG-CC-PVTZ
  Basis Set: (AUG-CC-PVTZ AUX)
    Blend: AUG-CC-PVTZ-JKFIT
	 Reference Energy          =    -513.3675030219180826 [Eh]
	 Singles Energy            =      -0.0000000000000000 [Eh]
	 Same-Spin Energy          =      -0.5577235340182323 [Eh]
	 Opposite-Spin Energy      =      -1.7133176480948558 [Eh]
	 Correlation Energy        =      -2.2710411821130880 [Eh]
	 Total Energy              =    -515.6385442040311773 [Eh]

	 ================> DF-SCS-MP2 Energies <==================
	-----------------------------------------------------------
	 SCS Same-Spin Scale       =       0.3333333333333333 [-]
	 SCS Opposite-Spin Scale   =       1.2000000000000000 [-]
	 SCS Same-Spin Energy      =      -0.1859078446727441 [Eh]
	 SCS Opposite-Spin Energy  =      -2.0559811777138268 [Eh]
	 SCS Correlation Energy    =      -2.2418890223865708 [Eh]
	 SCS Total Energy          =    -515.6093920443046272 [Eh]
	-----------------------------------------------------------

  Dipole Moment: [D]
     X:     1.5605      Y:    -2.3749      Z:    -0.0024     Total:     2.8418

*** Psi4 exiting successfully. Buy a developer a beer!
