                               Psi4 1.4a3.dev225

  ==> Input File <==

--------------------------------------------------------------------------
#psi4
#
memory 32 gb

molecule  {
0 1
  O       -2.2261580     0.9189870    -0.1609950
  N        0.4211910     1.5299470     0.0903790
  C        0.0817250     0.2107030     0.0159890
  C        2.4145630    -0.5010270    -0.0428790
  C       -1.3460660    -0.1139160     0.0206840
  C        1.0420520    -0.8182650    -0.0594370
  C        2.7641530     0.8636850     0.0360660
  C       -2.0477590    -1.2949740     0.1722820
  C        3.4684270    -1.5756500    -0.0824610
  C        1.7493340     1.8260270     0.0926910
  C       -3.4286880    -0.9658200     0.0768380
  C       -3.5781610     0.3811870    -0.1260853
  H        0.7225460    -1.8551450    -0.1446860
  H        3.8080070     1.1710760     0.0438400
  H       -1.6259220    -2.2752860     0.3500510
  H        3.8398640    -1.7937090     0.9244500
  H        3.0687740    -2.5034170    -0.5007000
  H        4.3228250    -1.2652800    -0.6906580
  H        1.9977040     2.8869120     0.1452960
  H       -4.2730300    -1.6376780     0.1527080
  H       -4.2894270     1.0948070    -0.2563320
units angstrom
no_reorient  #important for SAPT in psi4, default
symmetry c1  #important for SAPT in psi4, default
}

set PROPERTIES_ORIGIN ["COM"]
properties('MP2/aug-cc-pvtz', properties = ['dipole'])
--------------------------------------------------------------------------

    Molecular point group: c1
  Charge       = 0
  Multiplicity = 1
  Basis Set: AUG-CC-PVTZ
    Blend: AUG-CC-PVTZ
  Basis Set: (AUG-CC-PVTZ AUX)
    Blend: AUG-CC-PVTZ-JKFIT

    Orbital Energies [Eh]
    ---------------------

    Doubly Occupied:

       1A    -20.608068     2A    -15.565626     3A    -11.301807
       4A    -11.294945     5A    -11.290237     6A    -11.279563
       7A    -11.272870     8A    -11.244763     9A    -11.241712
      10A    -11.240718    11A    -11.240344    12A    -11.235775
      13A     -1.418538    14A     -1.244930    15A     -1.105538
      16A     -1.082431    17A     -1.057613    18A     -0.984508
      19A     -0.968702    20A     -0.866611    21A     -0.838591
      22A     -0.795652    23A     -0.761615    24A     -0.726149
      25A     -0.674532    26A     -0.671013    27A     -0.638766
      28A     -0.614546    29A     -0.602507    30A     -0.590998
      31A     -0.578951    32A     -0.566777    33A     -0.556807
      34A     -0.549701    35A     -0.531630    36A     -0.524736
      37A     -0.510156    38A     -0.418547    39A     -0.399361
      40A     -0.377196    41A     -0.363570    42A     -0.290903

  @DF-RHF Final Energy:  -513.36389061185389

   => Energetics <=

    Nuclear Repulsion Energy =            626.8446831931725001
    One-Electron Energy =               -1940.1611410396556039
    Two-Electron Energy =                 799.9525672346291003
    Total Energy =                       -513.3638906118538898
  Basis Set: (AUG-CC-PVTZ AUX)
    Blend: AUG-CC-PVTZ-RI
    Molecular point group: c1

    Geometry (in Angstrom), charge = 0, multiplicity = 1:

       Center              X                  Y                   Z               Mass
    ------------   -----------------  -----------------  -----------------  -----------------
         O           -2.171818541923     0.881013283794    -0.160736567200    15.994914619570
         N            0.475530458077     1.491973283794     0.090637432800    14.003074004430
         C            0.136064458077     0.172729283794     0.016247432800    12.000000000000
         C            2.468902458077    -0.539000716206    -0.042620567200    12.000000000000
         C           -1.291726541923    -0.151889716206     0.020942432800    12.000000000000
         C            1.096391458077    -0.856238716206    -0.059178567200    12.000000000000
         C            2.818492458077     0.825711283794     0.036324432800    12.000000000000
         C           -1.993419541923    -1.332947716206     0.172540432800    12.000000000000
         C            3.522766458077    -1.613623716206    -0.082202567200    12.000000000000
         C            1.803673458077     1.788053283794     0.092949432800    12.000000000000
         C           -3.374348541923    -1.003793716206     0.077096432800    12.000000000000
         C           -3.523821541923     0.343213283794    -0.125826867200    12.000000000000
         H            0.776885458077    -1.893118716206    -0.144427567200     1.007825032230
         H            3.862346458077     1.133102283794     0.044098432800     1.007825032230
         H           -1.571582541923    -2.313259716206     0.350309432800     1.007825032230
         H            3.894203458077    -1.831682716206     0.924708432800     1.007825032230
         H            3.123113458077    -2.541390716206    -0.500441567200     1.007825032230
         H            4.377164458077    -1.303253716206    -0.690399567200     1.007825032230
         H            2.052043458077     2.848938283794     0.145554432800     1.007825032230
         H           -4.218690541923    -1.675651716206     0.152966432800     1.007825032230
         H           -4.235087541923     1.056833283794    -0.256073567200     1.007825032230

  Basis Set: AUG-CC-PVTZ
    Blend: AUG-CC-PVTZ
  Basis Set: (AUG-CC-PVTZ AUX)
    Blend: AUG-CC-PVTZ-JKFIT
	 Reference Energy          =    -513.3638906118538898 [Eh]
	 Singles Energy            =      -0.0000000000000000 [Eh]
	 Same-Spin Energy          =      -0.5594357360427957 [Eh]
	 Opposite-Spin Energy      =      -1.7161098142928437 [Eh]
	 Correlation Energy        =      -2.2755455503356394 [Eh]
	 Total Energy              =    -515.6394361621895541 [Eh]

	 ================> DF-SCS-MP2 Energies <==================
	-----------------------------------------------------------
	 SCS Same-Spin Scale       =       0.3333333333333333 [-]
	 SCS Opposite-Spin Scale   =       1.2000000000000000 [-]
	 SCS Same-Spin Energy      =      -0.1864785786809319 [Eh]
	 SCS Opposite-Spin Energy  =      -2.0593317771514124 [Eh]
	 SCS Correlation Energy    =      -2.2458103558323441 [Eh]
	 SCS Total Energy          =    -515.6097009676861944 [Eh]
	-----------------------------------------------------------

  Dipole Moment: [D]
     X:     1.4898      Y:    -2.4155      Z:     0.0026     Total:     2.8380

*** Psi4 exiting successfully. Buy a developer a beer!
