                               Psi4 1.4a3.dev225

  ==> Input File <==

--------------------------------------------------------------------------
#psi4
#
memory 32 gb

molecule  {
0 1
  O       -2.2261580     0.9189870    -0.1609950
  N        0.4211910     1.5299470     0.0903790
  C        0.0817250     0.2107030     0.0159890
  C        2.5107658    -0.5219860    -0.0451447
  C       -1.3460660    -0.1139160     0.0206840
  C        1.0420520    -0.8182650    -0.0594370
  C        2.7641530     0.8636850     0.0360660
  C       -2.0477590    -1.2949740     0.1722820
  C        3.4684270    -1.5756500    -0.0824610
  C        1.7493340     1.8260270     0.0926910
  C       -3.4286880    -0.9658200     0.0768380
  C       -3.4828100     0.3886030    -0.1245500
  H        0.7225460    -1.8551450    -0.1446860
  H        3.8080070     1.1710760     0.0438400
  H       -1.6259220    -2.2752860     0.3500510
  H        3.8398640    -1.7937090     0.9244500
  H        3.0687740    -2.5034170    -0.5007000
  H        4.3228250    -1.2652800    -0.6906580
  H        1.9977040     2.8869120     0.1452960
  H       -4.2730300    -1.6376780     0.1527080
  H       -4.2894270     1.0948070    -0.2563320
units angstrom
no_reorient  #important for SAPT in psi4, default
symmetry c1  #important for SAPT in psi4, default
}

set PROPERTIES_ORIGIN ["COM"]
properties('MP2/aug-cc-pvtz', properties = ['dipole'])
--------------------------------------------------------------------------

    Molecular point group: c1
  Charge       = 0
  Multiplicity = 1
  Basis Set: AUG-CC-PVTZ
    Blend: AUG-CC-PVTZ
  Basis Set: (AUG-CC-PVTZ AUX)
    Blend: AUG-CC-PVTZ-JKFIT

    Orbital Energies [Eh]
    ---------------------

    Doubly Occupied:

       1A    -20.620456     2A    -15.563637     3A    -11.296086
       4A    -11.292090     5A    -11.291053     6A    -11.281169
       7A    -11.279854     8A    -11.249388     9A    -11.240138
      10A    -11.239218    11A    -11.236330    12A    -11.232265
      13A     -1.452404    14A     -1.241483    15A     -1.109865
      16A     -1.086115    17A     -1.055442    18A     -0.986336
      19A     -0.972139    20A     -0.858444    21A     -0.834443
      22A     -0.798621    23A     -0.763140    24A     -0.727613
      25A     -0.670504    26A     -0.667454    27A     -0.643187
      28A     -0.632411    29A     -0.600803    30A     -0.598377
      31A     -0.576192    32A     -0.574017    33A     -0.563693
      34A     -0.559641    35A     -0.538582    36A     -0.522273
      37A     -0.491901    38A     -0.419430    39A     -0.401149
      40A     -0.375712    41A     -0.351683    42A     -0.286251

  @DF-RHF Final Energy:  -513.36123586026201

   => Energetics <=

    Nuclear Repulsion Energy =            627.8595191088453475
    One-Electron Energy =               -1942.0795279493058842
    Two-Electron Energy =                 800.8587729801986370
    Total Energy =                       -513.3612358602620134
  Basis Set: (AUG-CC-PVTZ AUX)
    Blend: AUG-CC-PVTZ-RI
    Molecular point group: c1

    Geometry (in Angstrom), charge = 0, multiplicity = 1:

       Center              X                  Y                   Z               Mass
    ------------   -----------------  -----------------  -----------------  -----------------
         O           -2.186269214708     0.882034957400    -0.160681466381    15.994914619570
         N            0.461079785292     1.492994957400     0.090692533619    14.003074004430
         C            0.121613785292     0.173750957400     0.016302533619    12.000000000000
         C            2.550654585292    -0.558938042600    -0.044831166381    12.000000000000
         C           -1.306177214708    -0.150868042600     0.020997533619    12.000000000000
         C            1.081940785292    -0.855217042600    -0.059123466381    12.000000000000
         C            2.804041785292     0.826732957400     0.036379533619    12.000000000000
         C           -2.007870214708    -1.331926042600     0.172595533619    12.000000000000
         C            3.508315785292    -1.612602042600    -0.082147466381    12.000000000000
         C            1.789222785292     1.789074957400     0.093004533619    12.000000000000
         C           -3.388799214708    -1.002772042600     0.077151533619    12.000000000000
         C           -3.442921214708     0.351650957400    -0.124236466381    12.000000000000
         H            0.762434785292    -1.892097042600    -0.144372466381     1.007825032230
         H            3.847895785292     1.134123957400     0.044153533619     1.007825032230
         H           -1.586033214708    -2.312238042600     0.350364533619     1.007825032230
         H            3.879752785292    -1.830661042600     0.924763533619     1.007825032230
         H            3.108662785292    -2.540369042600    -0.500386466381     1.007825032230
         H            4.362713785292    -1.302232042600    -0.690344466381     1.007825032230
         H            2.037592785292     2.849959957400     0.145609533619     1.007825032230
         H           -4.233141214708    -1.674630042600     0.153021533619     1.007825032230
         H           -4.249538214708     1.057854957400    -0.256018466381     1.007825032230

  Basis Set: AUG-CC-PVTZ
    Blend: AUG-CC-PVTZ
  Basis Set: (AUG-CC-PVTZ AUX)
    Blend: AUG-CC-PVTZ-JKFIT
	 Reference Energy          =    -513.3612358602620134 [Eh]
	 Singles Energy            =      -0.0000000000000000 [Eh]
	 Same-Spin Energy          =      -0.5602992901679396 [Eh]
	 Opposite-Spin Energy      =      -1.7157795636527733 [Eh]
	 Correlation Energy        =      -2.2760788538207128 [Eh]
	 Total Energy              =    -515.6373147140827768 [Eh]

	 ================> DF-SCS-MP2 Energies <==================
	-----------------------------------------------------------
	 SCS Same-Spin Scale       =       0.3333333333333333 [-]
	 SCS Opposite-Spin Scale   =       1.2000000000000000 [-]
	 SCS Same-Spin Energy      =      -0.1867664300559798 [Eh]
	 SCS Opposite-Spin Energy  =      -2.0589354763833279 [Eh]
	 SCS Correlation Energy    =      -2.2457019064393076 [Eh]
	 SCS Total Energy          =    -515.6069377667013214 [Eh]
	-----------------------------------------------------------

  Dipole Moment: [D]
     X:     1.6868      Y:    -2.4827      Z:    -0.0008     Total:     3.0015

*** Psi4 exiting successfully. Buy a developer a beer!
