                               Psi4 1.4a3.dev225

  ==> Input File <==

--------------------------------------------------------------------------
#psi4
#
memory 32 gb

molecule  {
0 1
  O       -2.2261580     0.9189870    -0.1609950
  N        0.4211910     1.5299470     0.0903790
  C        0.0817250     0.2107030     0.0159890
  C        2.4145630    -0.5010270    -0.0428790
  C       -1.3460660    -0.1139160     0.0206840
  C        1.0420520    -0.8182650    -0.0594370
  C        2.7641530     0.8636850     0.0360660
  C       -2.0477590    -1.2949740     0.1722820
  C        3.6084140    -1.7183945    -0.0877188
  C        1.7493340     1.8260270     0.0926910
  C       -3.4286880    -0.9658200     0.0768380
  C       -3.4828100     0.3886030    -0.1245500
  H        0.7225460    -1.8551450    -0.1446860
  H        3.8080070     1.1710760     0.0438400
  H       -1.6259220    -2.2752860     0.3500510
  H        3.8398640    -1.7937090     0.9244500
  H        3.0687740    -2.5034170    -0.5007000
  H        4.3228250    -1.2652800    -0.6906580
  H        1.9977040     2.8869120     0.1452960
  H       -4.2730300    -1.6376780     0.1527080
  H       -4.2894270     1.0948070    -0.2563320
units angstrom
no_reorient  #important for SAPT in psi4, default
symmetry c1  #important for SAPT in psi4, default
}

set PROPERTIES_ORIGIN ["COM"]
properties('MP2/aug-cc-pvtz', properties = ['dipole'])
--------------------------------------------------------------------------

    Molecular point group: c1
  Charge       = 0
  Multiplicity = 1
  Basis Set: AUG-CC-PVTZ
    Blend: AUG-CC-PVTZ
  Basis Set: (AUG-CC-PVTZ AUX)
    Blend: AUG-CC-PVTZ-JKFIT

    Orbital Energies [Eh]
    ---------------------

    Doubly Occupied:

       1A    -20.621532     2A    -15.563382     3A    -11.296945
       4A    -11.293885     5A    -11.292841     6A    -11.278244
       7A    -11.276868     8A    -11.242428     9A    -11.240423
      10A    -11.238501    11A    -11.238477    12A    -11.233560
      13A     -1.453569    14A     -1.243202    15A     -1.090010
      16A     -1.084987    17A     -1.057144    18A     -0.983330
      19A     -0.970081    20A     -0.861195    21A     -0.838058
      22A     -0.799495    23A     -0.763886    24A     -0.724468
      25A     -0.671533    26A     -0.665601    27A     -0.635479
      28A     -0.631892    29A     -0.613575    30A     -0.605608
      31A     -0.586467    32A     -0.576470    33A     -0.565606
      34A     -0.542686    35A     -0.529682    36A     -0.513931
      37A     -0.490529    38A     -0.412448    39A     -0.402090
      40A     -0.377325    41A     -0.363830    42A     -0.287348

  @DF-RHF Final Energy:  -513.34985739440992

   => Energetics <=

    Nuclear Repulsion Energy =            625.6124558076397761
    One-Electron Energy =               -1937.6074018040837927
    Two-Electron Energy =                 798.6450886020342068
    Total Energy =                       -513.3498573944099235
  Basis Set: (AUG-CC-PVTZ AUX)
    Blend: AUG-CC-PVTZ-RI
    Molecular point group: c1

    Geometry (in Angstrom), charge = 0, multiplicity = 1:

       Center              X                  Y                   Z               Mass
    ------------   -----------------  -----------------  -----------------  -----------------
         O           -2.189572261410     0.891222362769    -0.160455744635    15.994914619570
         N            0.457776738590     1.502182362769     0.090918255365    14.003074004430
         C            0.118310738590     0.182938362769     0.016528255365    12.000000000000
         C            2.451148738590    -0.528791637231    -0.042339744635    12.000000000000
         C           -1.309480261410    -0.141680637231     0.021223255365    12.000000000000
         C            1.078637738590    -0.846029637231    -0.058897744635    12.000000000000
         C            2.800738738590     0.835920362769     0.036605255365    12.000000000000
         C           -2.011173261410    -1.322738637231     0.172821255365    12.000000000000
         C            3.644999738590    -1.746159137231    -0.087179544635    12.000000000000
         C            1.785919738590     1.798262362769     0.093230255365    12.000000000000
         C           -3.392102261410    -0.993584637231     0.077377255365    12.000000000000
         C           -3.446224261410     0.360838362769    -0.124010744635    12.000000000000
         H            0.759131738590    -1.882909637231    -0.144146744635     1.007825032230
         H            3.844592738590     1.143311362769     0.044379255365     1.007825032230
         H           -1.589336261410    -2.303050637231     0.350590255365     1.007825032230
         H            3.876449738590    -1.821473637231     0.924989255365     1.007825032230
         H            3.105359738590    -2.531181637231    -0.500160744635     1.007825032230
         H            4.359410738590    -1.293044637231    -0.690118744635     1.007825032230
         H            2.034289738590     2.859147362769     0.145835255365     1.007825032230
         H           -4.236444261410    -1.665442637231     0.153247255365     1.007825032230
         H           -4.252841261410     1.067042362769    -0.255792744635     1.007825032230

  Basis Set: AUG-CC-PVTZ
    Blend: AUG-CC-PVTZ
  Basis Set: (AUG-CC-PVTZ AUX)
    Blend: AUG-CC-PVTZ-JKFIT
	 Reference Energy          =    -513.3498573944099235 [Eh]
	 Singles Energy            =      -0.0000000000000000 [Eh]
	 Same-Spin Energy          =      -0.5588425094354332 [Eh]
	 Opposite-Spin Energy      =      -1.7146506296648991 [Eh]
	 Correlation Energy        =      -2.2734931391003323 [Eh]
	 Total Energy              =    -515.6233505335102336 [Eh]

	 ================> DF-SCS-MP2 Energies <==================
	-----------------------------------------------------------
	 SCS Same-Spin Scale       =       0.3333333333333333 [-]
	 SCS Opposite-Spin Scale   =       1.2000000000000000 [-]
	 SCS Same-Spin Energy      =      -0.1862808364784777 [Eh]
	 SCS Opposite-Spin Energy  =      -2.0575807555978787 [Eh]
	 SCS Correlation Energy    =      -2.2438615920763563 [Eh]
	 SCS Total Energy          =    -515.5937189864862376 [Eh]
	-----------------------------------------------------------

  Dipole Moment: [D]
     X:     1.4258      Y:    -2.3172      Z:    -0.0103     Total:     2.7208

*** Psi4 exiting successfully. Buy a developer a beer!
