                               Psi4 1.4a3.dev225

  ==> Input File <==

--------------------------------------------------------------------------
#psi4
#
memory 32 gb

molecule  {
0 1
  O       -2.2261580     0.9189870    -0.1609950
  N        0.4211910     1.5299470     0.0903790
  C        0.0817250     0.2107030     0.0159890
  C        2.3476293    -0.5702562    -0.0849723
  C       -1.3460660    -0.1139160     0.0206840
  C        1.0420520    -0.8182650    -0.0594370
  C        2.7641530     0.8636850     0.0360660
  C       -2.0477590    -1.2949740     0.1722820
  C        3.4684270    -1.5756500    -0.0824610
  C        1.7493340     1.8260270     0.0926910
  C       -3.4286880    -0.9658200     0.0768380
  C       -3.4828100     0.3886030    -0.1245500
  H        0.7225460    -1.8551450    -0.1446860
  H        3.8080070     1.1710760     0.0438400
  H       -1.6259220    -2.2752860     0.3500510
  H        3.8398640    -1.7937090     0.9244500
  H        3.0687740    -2.5034170    -0.5007000
  H        4.3228250    -1.2652800    -0.6906580
  H        1.9977040     2.8869120     0.1452960
  H       -4.2730300    -1.6376780     0.1527080
  H       -4.2894270     1.0948070    -0.2563320
units angstrom
no_reorient  #important for SAPT in psi4, default
symmetry c1  #important for SAPT in psi4, default
}

set PROPERTIES_ORIGIN ["COM"]
properties('MP2/aug-cc-pvtz', properties = ['dipole'])
--------------------------------------------------------------------------

    Molecular point group: c1
  Charge       = 0
  Multiplicity = 1
  Basis Set: AUG-CC-PVTZ
    Blend: AUG-CC-PVTZ
  Basis Set: (AUG-CC-PVTZ AUX)
    Blend: AUG-CC-PVTZ-JKFIT

    Orbital Energies [Eh]
    ---------------------

    Doubly Occupied:

       1A    -20.623450     2A    -15.563309     3A    -11.299221
       4A    -11.298026     5A    -11.295706     6A    -11.273455
       7A    -11.269636     8A    -11.243155     9A    -11.241728
      10A    -11.239488    11A    -11.235611    12A    -11.235558
      13A     -1.455595    14A     -1.243909    15A     -1.107222
      16A     -1.088995    17A     -1.057477    18A     -0.984630
      19A     -0.968715    20A     -0.867931    21A     -0.830804
      22A     -0.799490    23A     -0.767231    24A     -0.730803
      25A     -0.673623    26A     -0.664465    27A     -0.638953
      28A     -0.635128    29A     -0.601082    30A     -0.590367
      31A     -0.580997    32A     -0.567523    33A     -0.561106
      34A     -0.555833    35A     -0.538571    36A     -0.525330
      37A     -0.497177    38A     -0.415764    39A     -0.403471
      40A     -0.373039    41A     -0.369866    42A     -0.287622

  @DF-RHF Final Energy:  -513.36612943413900

   => Energetics <=

    Nuclear Repulsion Energy =            629.1872643155169271
    One-Electron Energy =               -1944.7046633603656574
    Two-Electron Energy =                 802.1512696107098463
    Total Energy =                       -513.3661294341389976
  Basis Set: (AUG-CC-PVTZ AUX)
    Blend: AUG-CC-PVTZ-RI
    Molecular point group: c1

    Geometry (in Angstrom), charge = 0, multiplicity = 1:

       Center              X                  Y                   Z               Mass
    ------------   -----------------  -----------------  -----------------  -----------------
         O           -2.173962321392     0.885676424526    -0.157676902569    15.994914619570
         N            0.473386678608     1.496636424526     0.093697097431    14.003074004430
         C            0.133920678608     0.177392424526     0.019307097431    12.000000000000
         C            2.399824978608    -0.603566775474    -0.081654202569    12.000000000000
         C           -1.293870321392    -0.147226575474     0.024002097431    12.000000000000
         C            1.094247678608    -0.851575575474    -0.056118902569    12.000000000000
         C            2.816348678608     0.830374424526     0.039384097431    12.000000000000
         C           -1.995563321392    -1.328284575474     0.175600097431    12.000000000000
         C            3.520622678608    -1.608960575474    -0.079142902569    12.000000000000
         C            1.801529678608     1.792716424526     0.096009097431    12.000000000000
         C           -3.376492321392    -0.999130575474     0.080156097431    12.000000000000
         C           -3.430614321392     0.355292424526    -0.121231902569    12.000000000000
         H            0.774741678608    -1.888455575474    -0.141367902569     1.007825032230
         H            3.860202678608     1.137765424526     0.047158097431     1.007825032230
         H           -1.573726321392    -2.308596575474     0.353369097431     1.007825032230
         H            3.892059678608    -1.827019575474     0.927768097431     1.007825032230
         H            3.120969678608    -2.536727575474    -0.497381902569     1.007825032230
         H            4.375020678608    -1.298590575474    -0.687339902569     1.007825032230
         H            2.049899678608     2.853601424526     0.148614097431     1.007825032230
         H           -4.220834321392    -1.670988575474     0.156026097431     1.007825032230
         H           -4.237231321392     1.061496424526    -0.253013902569     1.007825032230

  Basis Set: AUG-CC-PVTZ
    Blend: AUG-CC-PVTZ
  Basis Set: (AUG-CC-PVTZ AUX)
    Blend: AUG-CC-PVTZ-JKFIT
	 Reference Energy          =    -513.3661294341389976 [Eh]
	 Singles Energy            =      -0.0000000000000000 [Eh]
	 Same-Spin Energy          =      -0.5587681511664723 [Eh]
	 Opposite-Spin Energy      =      -1.7141303315333003 [Eh]
	 Correlation Energy        =      -2.2728984826997727 [Eh]
	 Total Energy              =    -515.6390279168388133 [Eh]

	 ================> DF-SCS-MP2 Energies <==================
	-----------------------------------------------------------
	 SCS Same-Spin Scale       =       0.3333333333333333 [-]
	 SCS Opposite-Spin Scale   =       1.2000000000000000 [-]
	 SCS Same-Spin Energy      =      -0.1862560503888241 [Eh]
	 SCS Opposite-Spin Energy  =      -2.0569563978399601 [Eh]
	 SCS Correlation Energy    =      -2.2432124482287841 [Eh]
	 SCS Total Energy          =    -515.6093418823677439 [Eh]
	-----------------------------------------------------------

  Dipole Moment: [D]
     X:     1.3859      Y:    -2.3985      Z:     0.0115     Total:     2.7701

*** Psi4 exiting successfully. Buy a developer a beer!
