                               Psi4 1.4a3.dev225

  ==> Input File <==

--------------------------------------------------------------------------
#psi4
#
memory 32 gb

molecule  {
0 1
  O       -2.2261580     0.9189870    -0.1609950
  N        0.4211910     1.5299470     0.0903790
  C        0.0817250     0.2107030     0.0159890
  C        2.4145630    -0.5010270    -0.0428790
  C       -1.3460660    -0.1139160     0.0206840
  C        1.0079858    -0.7817638    -0.0567614
  C        2.7641530     0.8636850     0.0360660
  C       -2.0477590    -1.2949740     0.1722820
  C        3.4684270    -1.5756500    -0.0824610
  C        1.7493340     1.8260270     0.0926910
  C       -3.4286880    -0.9658200     0.0768380
  C       -3.4828100     0.3886030    -0.1245500
  H        0.7225460    -1.8551450    -0.1446860
  H        3.8080070     1.1710760     0.0438400
  H       -1.6259220    -2.2752860     0.3500510
  H        3.8398640    -1.7937090     0.9244500
  H        3.0687740    -2.5034170    -0.5007000
  H        4.3228250    -1.2652800    -0.6906580
  H        1.9977040     2.8869120     0.1452960
  H       -4.2730300    -1.6376780     0.1527080
  H       -4.2894270     1.0948070    -0.2563320
units angstrom
no_reorient  #important for SAPT in psi4, default
symmetry c1  #important for SAPT in psi4, default
}

set PROPERTIES_ORIGIN ["COM"]
properties('MP2/aug-cc-pvtz', properties = ['dipole'])
--------------------------------------------------------------------------

    Molecular point group: c1
  Charge       = 0
  Multiplicity = 1
  Basis Set: AUG-CC-PVTZ
    Blend: AUG-CC-PVTZ
  Basis Set: (AUG-CC-PVTZ AUX)
    Blend: AUG-CC-PVTZ-JKFIT

    Orbital Energies [Eh]
    ---------------------

    Doubly Occupied:

       1A    -20.620698     2A    -15.563037     3A    -11.295923
       4A    -11.291436     5A    -11.287418     6A    -11.279588
       7A    -11.276027     8A    -11.242167     9A    -11.242042
      10A    -11.239261    11A    -11.236850    12A    -11.232558
      13A     -1.452670    14A     -1.246346    15A     -1.101927
      16A     -1.087168    17A     -1.060700    18A     -0.984359
      19A     -0.971760    20A     -0.859439    21A     -0.838674
      22A     -0.798640    23A     -0.764643    24A     -0.729663
      25A     -0.671863    26A     -0.669672    27A     -0.636496
      28A     -0.632338    29A     -0.601007    30A     -0.591988
      31A     -0.577456    32A     -0.564987    33A     -0.560070
      34A     -0.549693    35A     -0.539714    36A     -0.528156
      37A     -0.503265    38A     -0.419048    39A     -0.401850
      40A     -0.376933    41A     -0.360863    42A     -0.288974

  @DF-RHF Final Energy:  -513.37412059757958

   => Energetics <=

    Nuclear Repulsion Energy =            629.5468880195952579
    One-Electron Energy =               -1945.4872806267496799
    Two-Electron Energy =                 802.5662720095749592
    Total Energy =                       -513.3741205975795765
  Basis Set: (AUG-CC-PVTZ AUX)
    Blend: AUG-CC-PVTZ-RI
    Molecular point group: c1

    Geometry (in Angstrom), charge = 0, multiplicity = 1:

       Center              X                  Y                   Z               Mass
    ------------   -----------------  -----------------  -----------------  -----------------
         O           -2.176441820560     0.877700203674    -0.161054234289    15.994914619570
         N            0.470907179440     1.488660203674     0.090319765711    14.003074004430
         C            0.131441179440     0.169416203674     0.015929765711    12.000000000000
         C            2.464279179440    -0.542313796326    -0.042938234289    12.000000000000
         C           -1.296349820560    -0.155202796326     0.020624765711    12.000000000000
         C            1.057701979440    -0.823050596326    -0.056820634289    12.000000000000
         C            2.813869179440     0.822398203674     0.036006765711    12.000000000000
         C           -1.998042820560    -1.336260796326     0.172222765711    12.000000000000
         C            3.518143179440    -1.616936796326    -0.082520234289    12.000000000000
         C            1.799050179440     1.784740203674     0.092631765711    12.000000000000
         C           -3.378971820560    -1.007106796326     0.076778765711    12.000000000000
         C           -3.433093820560     0.347316203674    -0.124609234289    12.000000000000
         H            0.772262179440    -1.896431796326    -0.144745234289     1.007825032230
         H            3.857723179440     1.129789203674     0.043780765711     1.007825032230
         H           -1.576205820560    -2.316572796326     0.349991765711     1.007825032230
         H            3.889580179440    -1.834995796326     0.924390765711     1.007825032230
         H            3.118490179440    -2.544703796326    -0.500759234289     1.007825032230
         H            4.372541179440    -1.306566796326    -0.690717234289     1.007825032230
         H            2.047420179440     2.845625203674     0.145236765711     1.007825032230
         H           -4.223313820560    -1.678964796326     0.152648765711     1.007825032230
         H           -4.239710820560     1.053520203674    -0.256391234289     1.007825032230

  Basis Set: AUG-CC-PVTZ
    Blend: AUG-CC-PVTZ
  Basis Set: (AUG-CC-PVTZ AUX)
    Blend: AUG-CC-PVTZ-JKFIT
	 Reference Energy          =    -513.3741205975795765 [Eh]
	 Singles Energy            =      -0.0000000000000000 [Eh]
	 Same-Spin Energy          =      -0.5591393376117282 [Eh]
	 Opposite-Spin Energy      =      -1.7138182554295049 [Eh]
	 Correlation Energy        =      -2.2729575930412329 [Eh]
	 Total Energy              =    -515.6470781906208458 [Eh]

	 ================> DF-SCS-MP2 Energies <==================
	-----------------------------------------------------------
	 SCS Same-Spin Scale       =       0.3333333333333333 [-]
	 SCS Opposite-Spin Scale   =       1.2000000000000000 [-]
	 SCS Same-Spin Energy      =      -0.1863797792039094 [Eh]
	 SCS Opposite-Spin Energy  =      -2.0565819065154058 [Eh]
	 SCS Correlation Energy    =      -2.2429616857193153 [Eh]
	 SCS Total Energy          =    -515.6170822832989415 [Eh]
	-----------------------------------------------------------

  Dipole Moment: [D]
     X:     1.6037      Y:    -2.3697      Z:    -0.0040     Total:     2.8614

*** Psi4 exiting successfully. Buy a developer a beer!
