                               Psi4 1.4a3.dev225

  ==> Input File <==

--------------------------------------------------------------------------
#psi4
#
memory 32 gb

molecule  {
0 1
  O       -2.2261580     0.9189870    -0.1609950
  N        0.4211910     1.5299470     0.0903790
  C       -0.0096136     0.2374939     0.0186283
  C        2.4145630    -0.5010270    -0.0428790
  C       -1.3460660    -0.1139160     0.0206840
  C        1.0420520    -0.8182650    -0.0594370
  C        2.7641530     0.8636850     0.0360660
  C       -2.0477590    -1.2949740     0.1722820
  C        3.4684270    -1.5756500    -0.0824610
  C        1.7493340     1.8260270     0.0926910
  C       -3.4286880    -0.9658200     0.0768380
  C       -3.4828100     0.3886030    -0.1245500
  H        0.7225460    -1.8551450    -0.1446860
  H        3.8080070     1.1710760     0.0438400
  H       -1.6259220    -2.2752860     0.3500510
  H        3.8398640    -1.7937090     0.9244500
  H        3.0687740    -2.5034170    -0.5007000
  H        4.3228250    -1.2652800    -0.6906580
  H        1.9977040     2.8869120     0.1452960
  H       -4.2730300    -1.6376780     0.1527080
  H       -4.2894270     1.0948070    -0.2563320
units angstrom
no_reorient  #important for SAPT in psi4, default
symmetry c1  #important for SAPT in psi4, default
}

set PROPERTIES_ORIGIN ["COM"]
properties('MP2/aug-cc-pvtz', properties = ['dipole'])
--------------------------------------------------------------------------

    Molecular point group: c1
  Charge       = 0
  Multiplicity = 1
  Basis Set: AUG-CC-PVTZ
    Blend: AUG-CC-PVTZ
  Basis Set: (AUG-CC-PVTZ AUX)
    Blend: AUG-CC-PVTZ-JKFIT

    Orbital Energies [Eh]
    ---------------------

    Doubly Occupied:

       1A    -20.624717     2A    -15.560587     3A    -11.299789
       4A    -11.296631     5A    -11.294733     6A    -11.275721
       7A    -11.267121     8A    -11.247335     9A    -11.247155
      10A    -11.238851    11A    -11.236779    12A    -11.236365
      13A     -1.459071    14A     -1.236908    15A     -1.099932
      16A     -1.094552    17A     -1.064988    18A     -0.984269
      19A     -0.958475    20A     -0.872474    21A     -0.835944
      22A     -0.804582    23A     -0.767369    24A     -0.730888
      25A     -0.669069    26A     -0.663729    27A     -0.643925
      28A     -0.638537    29A     -0.597183    30A     -0.587221
      31A     -0.583896    32A     -0.571104    33A     -0.555561
      34A     -0.547650    35A     -0.543810    36A     -0.519684
      37A     -0.514546    38A     -0.408905    39A     -0.401959
      40A     -0.381396    41A     -0.357237    42A     -0.281737

  @DF-RHF Final Energy:  -513.36204504233683

   => Energetics <=

    Nuclear Repulsion Energy =            628.9514102047909319
    One-Electron Energy =               -1944.2221444518556837
    Two-Electron Energy =                 801.9086892047280344
    Total Energy =                       -513.3620450423368311
  Basis Set: (AUG-CC-PVTZ AUX)
    Blend: AUG-CC-PVTZ-RI
    Molecular point group: c1

    Geometry (in Angstrom), charge = 0, multiplicity = 1:

       Center              X                  Y                   Z               Mass
    ------------   -----------------  -----------------  -----------------  -----------------
         O           -2.172121234323     0.878432741310    -0.161051495845    15.994914619570
         N            0.475227765677     1.489392741310     0.090322504155    14.003074004430
         C            0.044423165677     0.196939641310     0.018571804155    12.000000000000
         C            2.468599765677    -0.541581258690    -0.042935495845    12.000000000000
         C           -1.292029234323    -0.154470258690     0.020627504155    12.000000000000
         C            1.096088765677    -0.858819258690    -0.059493495845    12.000000000000
         C            2.818189765677     0.823130741310     0.036009504155    12.000000000000
         C           -1.993722234323    -1.335528258690     0.172225504155    12.000000000000
         C            3.522463765677    -1.616204258690    -0.082517495845    12.000000000000
         C            1.803370765677     1.785472741310     0.092634504155    12.000000000000
         C           -3.374651234323    -1.006374258690     0.076781504155    12.000000000000
         C           -3.428773234323     0.348048741310    -0.124606495845    12.000000000000
         H            0.776582765677    -1.895699258690    -0.144742495845     1.007825032230
         H            3.862043765677     1.130521741310     0.043783504155     1.007825032230
         H           -1.571885234323    -2.315840258690     0.349994504155     1.007825032230
         H            3.893900765677    -1.834263258690     0.924393504155     1.007825032230
         H            3.122810765677    -2.543971258690    -0.500756495845     1.007825032230
         H            4.376861765677    -1.305834258690    -0.690714495845     1.007825032230
         H            2.051740765677     2.846357741310     0.145239504155     1.007825032230
         H           -4.218993234323    -1.678232258690     0.152651504155     1.007825032230
         H           -4.235390234323     1.054252741310    -0.256388495845     1.007825032230

  Basis Set: AUG-CC-PVTZ
    Blend: AUG-CC-PVTZ
  Basis Set: (AUG-CC-PVTZ AUX)
    Blend: AUG-CC-PVTZ-JKFIT
	 Reference Energy          =    -513.3620450423368311 [Eh]
	 Singles Energy            =      -0.0000000000000000 [Eh]
	 Same-Spin Energy          =      -0.5606554074397699 [Eh]
	 Opposite-Spin Energy      =      -1.7160359937737719 [Eh]
	 Correlation Energy        =      -2.2766914012135420 [Eh]
	 Total Energy              =    -515.6387364435503287 [Eh]

	 ================> DF-SCS-MP2 Energies <==================
	-----------------------------------------------------------
	 SCS Same-Spin Scale       =       0.3333333333333333 [-]
	 SCS Opposite-Spin Scale   =       1.2000000000000000 [-]
	 SCS Same-Spin Energy      =      -0.1868851358132566 [Eh]
	 SCS Opposite-Spin Energy  =      -2.0592431925285264 [Eh]
	 SCS Correlation Energy    =      -2.2461283283417832 [Eh]
	 SCS Total Energy          =    -515.6081733706786281 [Eh]
	-----------------------------------------------------------

  Dipole Moment: [D]
     X:     1.0182      Y:    -2.4482      Z:     0.0019     Total:     2.6515

*** Psi4 exiting successfully. Buy a developer a beer!
