                               Psi4 1.4a3.dev225

  ==> Input File <==

--------------------------------------------------------------------------
#psi4
#
memory 32 gb

molecule  {
0 1
  O       -2.2261580     0.9189870    -0.1609950
  N        0.4211910     1.5299470     0.0903790
  C        0.0817250     0.2107030     0.0159890
  C        2.4145630    -0.5010270    -0.0428790
  C       -1.3460660    -0.1139160     0.0206840
  C        1.0420520    -0.8182650    -0.0594370
  C        2.7641530     0.8636850     0.0360660
  C       -2.0477590    -1.2949740     0.1722820
  C        3.3984335    -1.5042778    -0.0798321
  C        1.7493340     1.8260270     0.0926910
  C       -3.4286880    -0.9658200     0.0768380
  C       -3.4828100     0.3886030    -0.1245500
  H        0.7225460    -1.8551450    -0.1446860
  H        3.8080070     1.1710760     0.0438400
  H       -1.6259220    -2.2752860     0.3500510
  H        3.8398640    -1.7937090     0.9244500
  H        3.0687740    -2.5034170    -0.5007000
  H        4.3228250    -1.2652800    -0.6906580
  H        1.9977040     2.8869120     0.1452960
  H       -4.2730300    -1.6376780     0.1527080
  H       -4.2894270     1.0948070    -0.2563320
units angstrom
no_reorient  #important for SAPT in psi4, default
symmetry c1  #important for SAPT in psi4, default
}

set PROPERTIES_ORIGIN ["COM"]
properties('MP2/aug-cc-pvtz', properties = ['dipole'])
--------------------------------------------------------------------------

    Molecular point group: c1
  Charge       = 0
  Multiplicity = 1
  Basis Set: AUG-CC-PVTZ
    Blend: AUG-CC-PVTZ
  Basis Set: (AUG-CC-PVTZ AUX)
    Blend: AUG-CC-PVTZ-JKFIT

    Orbital Energies [Eh]
    ---------------------

    Doubly Occupied:

       1A    -20.622035     2A    -15.563759     3A    -11.297409
       4A    -11.294622     5A    -11.293428     6A    -11.278864
       7A    -11.266918     8A    -11.243625     9A    -11.242613
      10A    -11.239157    11A    -11.238490    12A    -11.234018
      13A     -1.454073    14A     -1.244779    15A     -1.117936
      16A     -1.088189    17A     -1.058071    18A     -0.984988
      19A     -0.969193    20A     -0.864444    21A     -0.833813
      22A     -0.800750    23A     -0.765390    24A     -0.730082
      25A     -0.674497    26A     -0.671433    27A     -0.644538
      28A     -0.634086    29A     -0.599215    30A     -0.582978
      31A     -0.579084    32A     -0.572046    33A     -0.565175
      34A     -0.549341    35A     -0.537867    36A     -0.520474
      37A     -0.500874    38A     -0.418759    39A     -0.402554
      40A     -0.374705    41A     -0.359977    42A     -0.288196

  @DF-RHF Final Energy:  -513.36491058380955

   => Energetics <=

    Nuclear Repulsion Energy =            630.7540918992655179
    One-Electron Energy =               -1947.8331173495741950
    Two-Electron Energy =                 803.7141148664990169
    Total Energy =                       -513.3649105838095466
  Basis Set: (AUG-CC-PVTZ AUX)
    Blend: AUG-CC-PVTZ-RI
    Molecular point group: c1

    Geometry (in Angstrom), charge = 0, multiplicity = 1:

       Center              X                  Y                   Z               Mass
    ------------   -----------------  -----------------  -----------------  -----------------
         O           -2.173731492410     0.875069561991    -0.161050711277    15.994914619570
         N            0.473617507590     1.486029561991     0.090323288723    14.003074004430
         C            0.134151507590     0.166785561991     0.015933288723    12.000000000000
         C            2.466989507590    -0.544944438009    -0.042934711277    12.000000000000
         C           -1.293639492410    -0.157833438009     0.020628288723    12.000000000000
         C            1.094478507590    -0.862182438009    -0.059492711277    12.000000000000
         C            2.816579507590     0.819767561991     0.036010288723    12.000000000000
         C           -1.995332492410    -1.338891438009     0.172226288723    12.000000000000
         C            3.450860007590    -1.548195238009    -0.079887811277    12.000000000000
         C            1.801760507590     1.782109561991     0.092635288723    12.000000000000
         C           -3.376261492410    -1.009737438009     0.076782288723    12.000000000000
         C           -3.430383492410     0.344685561991    -0.124605711277    12.000000000000
         H            0.774972507590    -1.899062438009    -0.144741711277     1.007825032230
         H            3.860433507590     1.127158561991     0.043784288723     1.007825032230
         H           -1.573495492410    -2.319203438009     0.349995288723     1.007825032230
         H            3.892290507590    -1.837626438009     0.924394288723     1.007825032230
         H            3.121200507590    -2.547334438009    -0.500755711277     1.007825032230
         H            4.375251507590    -1.309197438009    -0.690713711277     1.007825032230
         H            2.050130507590     2.842994561991     0.145240288723     1.007825032230
         H           -4.220603492410    -1.681595438009     0.152652288723     1.007825032230
         H           -4.237000492410     1.050889561991    -0.256387711277     1.007825032230

  Basis Set: AUG-CC-PVTZ
    Blend: AUG-CC-PVTZ
  Basis Set: (AUG-CC-PVTZ AUX)
    Blend: AUG-CC-PVTZ-JKFIT
	 Reference Energy          =    -513.3649105838095466 [Eh]
	 Singles Energy            =      -0.0000000000000000 [Eh]
	 Same-Spin Energy          =      -0.5603731738339527 [Eh]
	 Opposite-Spin Energy      =      -1.7151336857683499 [Eh]
	 Correlation Energy        =      -2.2755068596023027 [Eh]
	 Total Energy              =    -515.6404174434118204 [Eh]

	 ================> DF-SCS-MP2 Energies <==================
	-----------------------------------------------------------
	 SCS Same-Spin Scale       =       0.3333333333333333 [-]
	 SCS Opposite-Spin Scale   =       1.2000000000000000 [-]
	 SCS Same-Spin Energy      =      -0.1867910579446509 [Eh]
	 SCS Opposite-Spin Energy  =      -2.0581604229220196 [Eh]
	 SCS Correlation Energy    =      -2.2449514808666704 [Eh]
	 SCS Total Energy          =    -515.6098620646762356 [Eh]
	-----------------------------------------------------------

  Dipole Moment: [D]
     X:     1.4951      Y:    -2.3885      Z:     0.0019     Total:     2.8179

*** Psi4 exiting successfully. Buy a developer a beer!
