                               Psi4 1.4a3.dev225

  ==> Input File <==

--------------------------------------------------------------------------
#psi4
#
memory 32 gb

molecule  {
0 1
  O       -2.2261580     0.9189870    -0.1609950
  N        0.4211910     1.5299470     0.0903790
  C        0.0817250     0.2107030     0.0159890
  C        2.4145630    -0.5010270    -0.0428790
  C       -1.3460660    -0.1139160     0.0206840
  C        1.0420520    -0.8182650    -0.0594370
  C        2.7641530     0.8636850     0.0360660
  C       -2.0477590    -1.2949740     0.1722820
  C        3.4684270    -1.5756500    -0.0824610
  C        1.7493340     1.8260270     0.0926910
  C       -3.4764816    -0.9671016     0.0753827
  C       -3.4828100     0.3886030    -0.1245500
  H        0.7225460    -1.8551450    -0.1446860
  H        3.8080070     1.1710760     0.0438400
  H       -1.6259220    -2.2752860     0.3500510
  H        3.8398640    -1.7937090     0.9244500
  H        3.0687740    -2.5034170    -0.5007000
  H        4.3228250    -1.2652800    -0.6906580
  H        1.9977040     2.8869120     0.1452960
  H       -4.2730300    -1.6376780     0.1527080
  H       -4.2894270     1.0948070    -0.2563320
units angstrom
no_reorient  #important for SAPT in psi4, default
symmetry c1  #important for SAPT in psi4, default
}

set PROPERTIES_ORIGIN ["COM"]
properties('MP2/aug-cc-pvtz', properties = ['dipole'])
--------------------------------------------------------------------------

    Molecular point group: c1
  Charge       = 0
  Multiplicity = 1
  Basis Set: AUG-CC-PVTZ
    Blend: AUG-CC-PVTZ
  Basis Set: (AUG-CC-PVTZ AUX)
    Blend: AUG-CC-PVTZ-JKFIT

    Orbital Energies [Eh]
    ---------------------

    Doubly Occupied:

       1A    -20.621528     2A    -15.564120     3A    -11.297789
       4A    -11.295455     5A    -11.294778     6A    -11.278908
       7A    -11.271980     8A    -11.242720     9A    -11.242487
      10A    -11.239578    11A    -11.238762    12A    -11.235086
      13A     -1.453162    14A     -1.244463    15A     -1.104387
      16A     -1.081124    17A     -1.057359    18A     -0.984988
      19A     -0.968131    20A     -0.863591    21A     -0.835585
      22A     -0.804311    23A     -0.763889    24A     -0.727462
      25A     -0.673572    26A     -0.669240    27A     -0.639407
      28A     -0.633116    29A     -0.603990    30A     -0.590711
      31A     -0.585610    32A     -0.563580    33A     -0.557866
      34A     -0.546892    35A     -0.534867    36A     -0.525318
      37A     -0.509883    38A     -0.417935    39A     -0.398186
      40A     -0.375923    41A     -0.362661    42A     -0.290364

  @DF-RHF Final Energy:  -513.37517891143068

   => Energetics <=

    Nuclear Repulsion Energy =            628.0431793306455575
    One-Electron Energy =               -1942.4551883491162698
    Two-Electron Energy =                 801.0368301070399184
    Total Energy =                       -513.3751789114306803
  Basis Set: (AUG-CC-PVTZ AUX)
    Blend: AUG-CC-PVTZ-RI
    Molecular point group: c1

    Geometry (in Angstrom), charge = 0, multiplicity = 1:

       Center              X                  Y                   Z               Mass
    ------------   -----------------  -----------------  -----------------  -----------------
         O           -2.175406235959     0.880550509330    -0.160742602339    15.994914619570
         N            0.471942764041     1.491510509330     0.090631397661    14.003074004430
         C            0.132476764041     0.172266509330     0.016241397661    12.000000000000
         C            2.465314764041    -0.539463490670    -0.042626602339    12.000000000000
         C           -1.295314235959    -0.152352490670     0.020936397661    12.000000000000
         C            1.092803764041    -0.856701490670    -0.059184602339    12.000000000000
         C            2.814904764041     0.825248509330     0.036318397661    12.000000000000
         C           -1.997007235959    -1.333410490670     0.172534397661    12.000000000000
         C            3.519178764041    -1.614086490670    -0.082208602339    12.000000000000
         C            1.800085764041     1.787590509330     0.092943397661    12.000000000000
         C           -3.425729835959    -1.005538090670     0.075635097661    12.000000000000
         C           -3.432058235959     0.350166509330    -0.124297602339    12.000000000000
         H            0.773297764041    -1.893581490670    -0.144433602339     1.007825032230
         H            3.858758764041     1.132639509330     0.044092397661     1.007825032230
         H           -1.575170235959    -2.313722490670     0.350303397661     1.007825032230
         H            3.890615764041    -1.832145490670     0.924702397661     1.007825032230
         H            3.119525764041    -2.541853490670    -0.500447602339     1.007825032230
         H            4.373576764041    -1.303716490670    -0.690405602339     1.007825032230
         H            2.048455764041     2.848475509330     0.145548397661     1.007825032230
         H           -4.222278235959    -1.676114490670     0.152960397661     1.007825032230
         H           -4.238675235959     1.056370509330    -0.256079602339     1.007825032230

  Basis Set: AUG-CC-PVTZ
    Blend: AUG-CC-PVTZ
  Basis Set: (AUG-CC-PVTZ AUX)
    Blend: AUG-CC-PVTZ-JKFIT
	 Reference Energy          =    -513.3751789114306803 [Eh]
	 Singles Energy            =      -0.0000000000000000 [Eh]
	 Same-Spin Energy          =      -0.5583227717523271 [Eh]
	 Opposite-Spin Energy      =      -1.7132835569234695 [Eh]
	 Correlation Energy        =      -2.2716063286757966 [Eh]
	 Total Energy              =    -515.6467852401065102 [Eh]

	 ================> DF-SCS-MP2 Energies <==================
	-----------------------------------------------------------
	 SCS Same-Spin Scale       =       0.3333333333333333 [-]
	 SCS Opposite-Spin Scale   =       1.2000000000000000 [-]
	 SCS Same-Spin Energy      =      -0.1861075905841090 [Eh]
	 SCS Opposite-Spin Energy  =      -2.0559402683081633 [Eh]
	 SCS Correlation Energy    =      -2.2420478588922723 [Eh]
	 SCS Total Energy          =    -515.6172267703229863 [Eh]
	-----------------------------------------------------------

  Dipole Moment: [D]
     X:     1.5182      Y:    -2.3749      Z:    -0.0035     Total:     2.8187

*** Psi4 exiting successfully. Buy a developer a beer!
