                               Psi4 1.4a3.dev225

  ==> Input File <==

--------------------------------------------------------------------------
#psi4
#
memory 32 gb

molecule  {
0 1
  O       -2.2261580     0.9189870    -0.1609950
  N        0.4211910     1.5299470     0.0903790
  C        0.0817250     0.2107030     0.0159890
  C        2.3574916    -0.5643969     0.0185357
  C       -1.3460660    -0.1139160     0.0206840
  C        1.0420520    -0.8182650    -0.0594370
  C        2.7641530     0.8636850     0.0360660
  C       -2.0477590    -1.2949740     0.1722820
  C        3.4684270    -1.5756500    -0.0824610
  C        1.7493340     1.8260270     0.0926910
  C       -3.4286880    -0.9658200     0.0768380
  C       -3.4828100     0.3886030    -0.1245500
  H        0.7225460    -1.8551450    -0.1446860
  H        3.8080070     1.1710760     0.0438400
  H       -1.6259220    -2.2752860     0.3500510
  H        3.8398640    -1.7937090     0.9244500
  H        3.0687740    -2.5034170    -0.5007000
  H        4.3228250    -1.2652800    -0.6906580
  H        1.9977040     2.8869120     0.1452960
  H       -4.2730300    -1.6376780     0.1527080
  H       -4.2894270     1.0948070    -0.2563320
units angstrom
no_reorient  #important for SAPT in psi4, default
symmetry c1  #important for SAPT in psi4, default
}

set PROPERTIES_ORIGIN ["COM"]
properties('MP2/aug-cc-pvtz', properties = ['dipole'])
--------------------------------------------------------------------------

    Molecular point group: c1
  Charge       = 0
  Multiplicity = 1
  Basis Set: AUG-CC-PVTZ
    Blend: AUG-CC-PVTZ
  Basis Set: (AUG-CC-PVTZ AUX)
    Blend: AUG-CC-PVTZ-JKFIT

    Orbital Energies [Eh]
    ---------------------

    Doubly Occupied:

       1A    -20.623107     2A    -15.562983     3A    -11.298774
       4A    -11.297285     5A    -11.295353     6A    -11.274098
       7A    -11.270596     8A    -11.242689     9A    -11.241339
      10A    -11.239535    11A    -11.236708    12A    -11.235264
      13A     -1.455259    14A     -1.243702    15A     -1.106230
      16A     -1.088771    17A     -1.057532    18A     -0.984381
      19A     -0.968850    20A     -0.866743    21A     -0.831566
      22A     -0.799657    23A     -0.766834    24A     -0.730202
      25A     -0.673320    26A     -0.664980    27A     -0.639400
      28A     -0.634653    29A     -0.600741    30A     -0.591027
      31A     -0.580525    32A     -0.567261    33A     -0.560049
      34A     -0.555451    35A     -0.538013    36A     -0.524721
      37A     -0.500664    38A     -0.415830    39A     -0.403217
      40A     -0.370678    41A     -0.370476    42A     -0.287769

  @DF-RHF Final Energy:  -513.36851258568015

   => Energetics <=

    Nuclear Repulsion Energy =            629.1380615098261160
    One-Electron Energy =               -1944.6206876298731459
    Two-Electron Energy =                 802.1141135343667656
    Total Energy =                       -513.3685125856801506
  Basis Set: (AUG-CC-PVTZ AUX)
    Blend: AUG-CC-PVTZ-RI
    Molecular point group: c1

    Geometry (in Angstrom), charge = 0, multiplicity = 1:

       Center              X                  Y                   Z               Mass
    ------------   -----------------  -----------------  -----------------  -----------------
         O           -2.174706325793     0.885234403396    -0.165485467258    15.994914619570
         N            0.472642674207     1.496194403396     0.085888532742    14.003074004430
         C            0.133176674207     0.176950403396     0.011498532742    12.000000000000
         C            2.408943274207    -0.598149496604     0.014045232742    12.000000000000
         C           -1.294614325793    -0.147668596604     0.016193532742    12.000000000000
         C            1.093503674207    -0.852017596604    -0.063927467258    12.000000000000
         C            2.815604674207     0.829932403396     0.031575532742    12.000000000000
         C           -1.996307325793    -1.328726596604     0.167791532742    12.000000000000
         C            3.519878674207    -1.609402596604    -0.086951467258    12.000000000000
         C            1.800785674207     1.792274403396     0.088200532742    12.000000000000
         C           -3.377236325793    -0.999572596604     0.072347532742    12.000000000000
         C           -3.431358325793     0.354850403396    -0.129040467258    12.000000000000
         H            0.773997674207    -1.888897596604    -0.149176467258     1.007825032230
         H            3.859458674207     1.137323403396     0.039349532742     1.007825032230
         H           -1.574470325793    -2.309038596604     0.345560532742     1.007825032230
         H            3.891315674207    -1.827461596604     0.919959532742     1.007825032230
         H            3.120225674207    -2.537169596604    -0.505190467258     1.007825032230
         H            4.374276674207    -1.299032596604    -0.695148467258     1.007825032230
         H            2.049155674207     2.853159403396     0.140805532742     1.007825032230
         H           -4.221578325793    -1.671430596604     0.148217532742     1.007825032230
         H           -4.237975325793     1.061054403396    -0.260822467258     1.007825032230

  Basis Set: AUG-CC-PVTZ
    Blend: AUG-CC-PVTZ
  Basis Set: (AUG-CC-PVTZ AUX)
    Blend: AUG-CC-PVTZ-JKFIT
	 Reference Energy          =    -513.3685125856801506 [Eh]
	 Singles Energy            =      -0.0000000000000000 [Eh]
	 Same-Spin Energy          =      -0.5588679069829179 [Eh]
	 Opposite-Spin Energy      =      -1.7140060975942388 [Eh]
	 Correlation Energy        =      -2.2728740045771567 [Eh]
	 Total Energy              =    -515.6413865902572979 [Eh]

	 ================> DF-SCS-MP2 Energies <==================
	-----------------------------------------------------------
	 SCS Same-Spin Scale       =       0.3333333333333333 [-]
	 SCS Opposite-Spin Scale   =       1.2000000000000000 [-]
	 SCS Same-Spin Energy      =      -0.1862893023276393 [Eh]
	 SCS Opposite-Spin Energy  =      -2.0568073171130865 [Eh]
	 SCS Correlation Energy    =      -2.2430966194407258 [Eh]
	 SCS Total Energy          =    -515.6116092051208852 [Eh]
	-----------------------------------------------------------

  Dipole Moment: [D]
     X:     1.4179      Y:    -2.4024      Z:    -0.0340     Total:     2.7898

*** Psi4 exiting successfully. Buy a developer a beer!
