                               Psi4 1.4a3.dev225

  ==> Input File <==

--------------------------------------------------------------------------
#psi4
#
memory 32 gb

molecule  {
0 1
  O       -2.2261580     0.9189870    -0.1609950
  N        0.4211910     1.5299470     0.0903790
  C        0.0817250     0.2107030     0.0159890
  C        2.4145630    -0.5010270    -0.0428790
  C       -1.3460660    -0.1139160     0.0206840
  C        1.0420520    -0.8182650    -0.0594370
  C        2.7641530     0.8636850     0.0360660
  C       -2.0477590    -1.2949740     0.1722820
  C        3.4684270    -1.5756500    -0.0824610
  C        1.7493340     1.8260270     0.0926910
  C       -3.4286880    -0.9658200     0.0768380
  C       -3.4828100     0.3886030    -0.1245500
  H        0.7225460    -1.8551450    -0.1446860
  H        3.8080070     1.1710760     0.0438400
  H       -1.6259220    -2.2752860     0.3500510
  H        3.8398640    -1.7937090     0.9244500
  H        3.0687740    -2.5034170    -0.5007000
  H        4.3228250    -1.2652800    -0.6906580
  H        1.9863197     2.8382850     0.1428848
  H       -4.2730300    -1.6376780     0.1527080
  H       -4.2894270     1.0948070    -0.2563320
units angstrom
no_reorient  #important for SAPT in psi4, default
symmetry c1  #important for SAPT in psi4, default
}

set PROPERTIES_ORIGIN ["COM"]
properties('MP2/aug-cc-pvtz', properties = ['dipole'])
--------------------------------------------------------------------------

    Molecular point group: c1
  Charge       = 0
  Multiplicity = 1
  Basis Set: AUG-CC-PVTZ
    Blend: AUG-CC-PVTZ
  Basis Set: (AUG-CC-PVTZ AUX)
    Blend: AUG-CC-PVTZ-JKFIT

    Orbital Energies [Eh]
    ---------------------

    Doubly Occupied:

       1A    -20.621789     2A    -15.563321     3A    -11.297144
       4A    -11.294092     5A    -11.293152     6A    -11.272927
       7A    -11.271585     8A    -11.242421     9A    -11.239331
      10A    -11.238826    11A    -11.238095    12A    -11.233799
      13A     -1.453826    14A     -1.244129    15A     -1.104064
      16A     -1.087796    17A     -1.058562    18A     -0.984896
      19A     -0.967927    20A     -0.864008    21A     -0.839287
      22A     -0.801184    23A     -0.764784    24A     -0.728561
      25A     -0.673338    26A     -0.668481    27A     -0.644935
      28A     -0.633707    29A     -0.602184    30A     -0.590467
      31A     -0.578763    32A     -0.566204    33A     -0.558899
      34A     -0.547745    35A     -0.540564    36A     -0.525119
      37A     -0.511400    38A     -0.418014    39A     -0.402375
      40A     -0.375776    41A     -0.362335    42A     -0.287804

  @DF-RHF Final Energy:  -513.37668282543302

   => Energetics <=

    Nuclear Repulsion Energy =            629.2076489207585155
    One-Electron Energy =               -1944.7814325038164043
    Two-Electron Energy =                 802.1971007576247530
    Total Energy =                       -513.3766828254330221
  Basis Set: (AUG-CC-PVTZ AUX)
    Blend: AUG-CC-PVTZ-RI
    Molecular point group: c1

    Geometry (in Angstrom), charge = 0, multiplicity = 1:

       Center              X                  Y                   Z               Mass
    ------------   -----------------  -----------------  -----------------  -----------------
         O           -2.178939620141     0.880761917158    -0.160837112192    15.994914619570
         N            0.468409379859     1.491721917158     0.090536887808    14.003074004430
         C            0.128943379859     0.172477917158     0.016146887808    12.000000000000
         C            2.461781379859    -0.539252082842    -0.042721112192    12.000000000000
         C           -1.298847620141    -0.152141082842     0.020841887808    12.000000000000
         C            1.089270379859    -0.856490082842    -0.059279112192    12.000000000000
         C            2.811371379859     0.825459917158     0.036223887808    12.000000000000
         C           -2.000540620141    -1.333199082842     0.172439887808    12.000000000000
         C            3.515645379859    -1.613875082842    -0.082303112192    12.000000000000
         C            1.796552379859     1.787801917158     0.092848887808    12.000000000000
         C           -3.381469620141    -1.004045082842     0.076995887808    12.000000000000
         C           -3.435591620141     0.350377917158    -0.124392112192    12.000000000000
         H            0.769764379859    -1.893370082842    -0.144528112192     1.007825032230
         H            3.855225379859     1.132850917158     0.043997887808     1.007825032230
         H           -1.578703620141    -2.313511082842     0.350208887808     1.007825032230
         H            3.887082379859    -1.831934082842     0.924607887808     1.007825032230
         H            3.115992379859    -2.541642082842    -0.500542112192     1.007825032230
         H            4.370043379859    -1.303505082842    -0.690500112192     1.007825032230
         H            2.033538079859     2.800059917158     0.143042687808     1.007825032230
         H           -4.225811620141    -1.675903082842     0.152865887808     1.007825032230
         H           -4.242208620141     1.056581917158    -0.256174112192     1.007825032230

  Basis Set: AUG-CC-PVTZ
    Blend: AUG-CC-PVTZ
  Basis Set: (AUG-CC-PVTZ AUX)
    Blend: AUG-CC-PVTZ-JKFIT
	 Reference Energy          =    -513.3766828254330221 [Eh]
	 Singles Energy            =      -0.0000000000000000 [Eh]
	 Same-Spin Energy          =      -0.5589588032387267 [Eh]
	 Opposite-Spin Energy      =      -1.7132624132974390 [Eh]
	 Correlation Energy        =      -2.2722212165361659 [Eh]
	 Total Energy              =    -515.6489040419692174 [Eh]

	 ================> DF-SCS-MP2 Energies <==================
	-----------------------------------------------------------
	 SCS Same-Spin Scale       =       0.3333333333333333 [-]
	 SCS Opposite-Spin Scale   =       1.2000000000000000 [-]
	 SCS Same-Spin Energy      =      -0.1863196010795756 [Eh]
	 SCS Opposite-Spin Energy  =      -2.0559148959569269 [Eh]
	 SCS Correlation Energy    =      -2.2422344970365025 [Eh]
	 SCS Total Energy          =    -515.6189173224695423 [Eh]
	-----------------------------------------------------------

  Dipole Moment: [D]
     X:     1.4971      Y:    -2.3554      Z:    -0.0039     Total:     2.7909

*** Psi4 exiting successfully. Buy a developer a beer!
