                               Psi4 1.4a3.dev225

  ==> Input File <==

--------------------------------------------------------------------------
#psi4
#
memory 32 gb

molecule  {
0 1
  O       -2.2261580     0.9189870    -0.1609950
  N        0.4211910     1.5299470     0.0903790
  C        0.0817250     0.2107030     0.0159890
  C        2.4145630    -0.5010270    -0.0428790
  C       -1.3460660    -0.1139160     0.0206840
  C        1.0420520    -0.8182650    -0.0594370
  C        2.7641530     0.8636850     0.0360660
  C       -2.0477590    -1.2949740     0.1722820
  C        3.4684270    -1.5756500    -0.0824610
  C        1.7493340     1.8260270     0.0926910
  C       -3.4286880    -0.9658200     0.0768380
  C       -3.5012295     0.3808289    -0.1240158
  H        0.7225460    -1.8551450    -0.1446860
  H        3.8080070     1.1710760     0.0438400
  H       -1.6259220    -2.2752860     0.3500510
  H        3.8398640    -1.7937090     0.9244500
  H        3.0687740    -2.5034170    -0.5007000
  H        4.3228250    -1.2652800    -0.6906580
  H        1.9977040     2.8869120     0.1452960
  H       -4.2730300    -1.6376780     0.1527080
  H       -4.2894270     1.0948070    -0.2563320
units angstrom
no_reorient  #important for SAPT in psi4, default
symmetry c1  #important for SAPT in psi4, default
}

set PROPERTIES_ORIGIN ["COM"]
properties('MP2/aug-cc-pvtz', properties = ['dipole'])
--------------------------------------------------------------------------

    Molecular point group: c1
  Charge       = 0
  Multiplicity = 1
  Basis Set: AUG-CC-PVTZ
    Blend: AUG-CC-PVTZ
  Basis Set: (AUG-CC-PVTZ AUX)
    Blend: AUG-CC-PVTZ-JKFIT

    Orbital Energies [Eh]
    ---------------------

    Doubly Occupied:

       1A    -20.618646     2A    -15.564150     3A    -11.298194
       4A    -11.294512     5A    -11.291929     6A    -11.278906
       7A    -11.272061     8A    -11.242998     9A    -11.239669
      10A    -11.238978    11A    -11.238172    12A    -11.234584
      13A     -1.445548    14A     -1.244341    15A     -1.104573
      16A     -1.087277    17A     -1.058103    18A     -0.984245
      19A     -0.968169    20A     -0.863936    21A     -0.836352
      22A     -0.798418    23A     -0.764134    24A     -0.727184
      25A     -0.673334    26A     -0.669035    27A     -0.638862
      28A     -0.629293    29A     -0.598632    30A     -0.590733
      31A     -0.579613    32A     -0.563884    33A     -0.559466
      34A     -0.548263    35A     -0.541324    36A     -0.525272
      37A     -0.510010    38A     -0.417863    39A     -0.402021
      40A     -0.376702    41A     -0.362828    42A     -0.288959

  @DF-RHF Final Energy:  -513.37630890924868

   => Energetics <=

    Nuclear Repulsion Energy =            628.5679514982480214
    One-Electron Energy =               -1943.5461767958147448
    Two-Electron Energy =                 801.6019163883180454
    Total Energy =                       -513.3763089092486780
  Basis Set: (AUG-CC-PVTZ AUX)
    Blend: AUG-CC-PVTZ-RI
    Molecular point group: c1

    Geometry (in Angstrom), charge = 0, multiplicity = 1:

       Center              X                  Y                   Z               Mass
    ------------   -----------------  -----------------  -----------------  -----------------
         O           -2.177622195692     0.881040298586    -0.160892688704    15.994914619570
         N            0.469726804308     1.492000298586     0.090481311296    14.003074004430
         C            0.130260804308     0.172756298586     0.016091311296    12.000000000000
         C            2.463098804308    -0.538973701414    -0.042776688704    12.000000000000
         C           -1.297530195692    -0.151862701414     0.020786311296    12.000000000000
         C            1.090587804308    -0.856211701414    -0.059334688704    12.000000000000
         C            2.812688804308     0.825738298586     0.036168311296    12.000000000000
         C           -1.999223195692    -1.332920701414     0.172384311296    12.000000000000
         C            3.516962804308    -1.613596701414    -0.082358688704    12.000000000000
         C            1.797869804308     1.788080298586     0.092793311296    12.000000000000
         C           -3.380152195692    -1.003766701414     0.076940311296    12.000000000000
         C           -3.452693695692     0.342882198586    -0.123913488704    12.000000000000
         H            0.771081804308    -1.893091701414    -0.144583688704     1.007825032230
         H            3.856542804308     1.133129298586     0.043942311296     1.007825032230
         H           -1.577386195692    -2.313232701414     0.350153311296     1.007825032230
         H            3.888399804308    -1.831655701414     0.924552311296     1.007825032230
         H            3.117309804308    -2.541363701414    -0.500597688704     1.007825032230
         H            4.371360804308    -1.303226701414    -0.690555688704     1.007825032230
         H            2.046239804308     2.848965298586     0.145398311296     1.007825032230
         H           -4.224494195692    -1.675624701414     0.152810311296     1.007825032230
         H           -4.240891195692     1.056860298586    -0.256229688704     1.007825032230

  Basis Set: AUG-CC-PVTZ
    Blend: AUG-CC-PVTZ
  Basis Set: (AUG-CC-PVTZ AUX)
    Blend: AUG-CC-PVTZ-JKFIT
	 Reference Energy          =    -513.3763089092486780 [Eh]
	 Singles Energy            =      -0.0000000000000000 [Eh]
	 Same-Spin Energy          =      -0.5590449485640084 [Eh]
	 Opposite-Spin Energy      =      -1.7139765360764043 [Eh]
	 Correlation Energy        =      -2.2730214846404126 [Eh]
	 Total Energy              =    -515.6493303938890449 [Eh]

	 ================> DF-SCS-MP2 Energies <==================
	-----------------------------------------------------------
	 SCS Same-Spin Scale       =       0.3333333333333333 [-]
	 SCS Opposite-Spin Scale   =       1.2000000000000000 [-]
	 SCS Same-Spin Energy      =      -0.1863483161880028 [Eh]
	 SCS Opposite-Spin Energy  =      -2.0567718432916853 [Eh]
	 SCS Correlation Energy    =      -2.2431201594796879 [Eh]
	 SCS Total Energy          =    -515.6194290687283228 [Eh]
	-----------------------------------------------------------

  Dipole Moment: [D]
     X:     1.4791      Y:    -2.3893      Z:    -0.0021     Total:     2.8101

*** Psi4 exiting successfully. Buy a developer a beer!
