                               Psi4 1.4a3.dev225

  ==> Input File <==

--------------------------------------------------------------------------
#psi4
#
memory 32 gb

molecule  {
0 1
  O       -2.2261580     0.9189870    -0.1609950
  N        0.4211910     1.5299470     0.0903790
  C        0.0817250     0.2107030     0.0159890
  C        2.4145630    -0.5010270    -0.0428790
  C       -1.3460660    -0.1139160     0.0206840
  C        1.0420520    -0.8182650    -0.0594370
  C        2.7641530     0.8636850     0.0360660
  C       -2.0477590    -1.2949740     0.1722820
  C        3.4684270    -1.5756500    -0.0824610
  C        1.7493340     1.8260270     0.0926910
  C       -3.4286880    -0.9658200     0.0768380
  C       -3.4847847     0.4380207    -0.1318979
  H        0.7225460    -1.8551450    -0.1446860
  H        3.8080070     1.1710760     0.0438400
  H       -1.6259220    -2.2752860     0.3500510
  H        3.8398640    -1.7937090     0.9244500
  H        3.0687740    -2.5034170    -0.5007000
  H        4.3228250    -1.2652800    -0.6906580
  H        1.9977040     2.8869120     0.1452960
  H       -4.2730300    -1.6376780     0.1527080
  H       -4.2894270     1.0948070    -0.2563320
units angstrom
no_reorient  #important for SAPT in psi4, default
symmetry c1  #important for SAPT in psi4, default
}

set PROPERTIES_ORIGIN ["COM"]
properties('MP2/aug-cc-pvtz', properties = ['dipole'])
--------------------------------------------------------------------------

    Molecular point group: c1
  Charge       = 0
  Multiplicity = 1
  Basis Set: AUG-CC-PVTZ
    Blend: AUG-CC-PVTZ
  Basis Set: (AUG-CC-PVTZ AUX)
    Blend: AUG-CC-PVTZ-JKFIT

    Orbital Energies [Eh]
    ---------------------

    Doubly Occupied:

       1A    -20.626204     2A    -15.563377     3A    -11.297260
       4A    -11.297186     5A    -11.294795     6A    -11.278716
       7A    -11.271848     8A    -11.242321     9A    -11.240257
      10A    -11.239433    11A    -11.238309    12A    -11.238101
      13A     -1.460145    14A     -1.244175    15A     -1.104076
      16A     -1.084542    17A     -1.054421    18A     -0.984987
      19A     -0.968409    20A     -0.862328    21A     -0.837989
      22A     -0.801330    23A     -0.765475    24A     -0.731717
      25A     -0.674378    26A     -0.669598    27A     -0.644649
      28A     -0.636303    29A     -0.604898    30A     -0.590588
      31A     -0.577471    32A     -0.568030    33A     -0.557420
      34A     -0.547998    35A     -0.535222    36A     -0.525539
      37A     -0.509740    38A     -0.417541    39A     -0.401569
      40A     -0.372628    41A     -0.361593    42A     -0.284509

  @DF-RHF Final Energy:  -513.37229449570759

   => Energetics <=

    Nuclear Repulsion Energy =            628.5096040454895956
    One-Electron Energy =               -1943.3496501117174375
    Two-Electron Energy =                 801.4677515705202495
    Total Energy =                       -513.3722944957075924
  Basis Set: (AUG-CC-PVTZ AUX)
    Blend: AUG-CC-PVTZ-RI
    Molecular point group: c1

    Geometry (in Angstrom), charge = 0, multiplicity = 1:

       Center              X                  Y                   Z               Mass
    ------------   -----------------  -----------------  -----------------  -----------------
         O           -2.178862778880     0.876725792751    -0.160298069083    15.994914619570
         N            0.468486221120     1.487685792751     0.091075930917    14.003074004430
         C            0.129020221120     0.168441792751     0.016685930917    12.000000000000
         C            2.461858221120    -0.543288207249    -0.042182069083    12.000000000000
         C           -1.298770778880    -0.156177207249     0.021380930917    12.000000000000
         C            1.089347221120    -0.860526207249    -0.058740069083    12.000000000000
         C            2.811448221120     0.821423792751     0.036762930917    12.000000000000
         C           -2.000463778880    -1.337235207249     0.172978930917    12.000000000000
         C            3.515722221120    -1.617911207249    -0.081764069083    12.000000000000
         C            1.796629221120     1.783765792751     0.093387930917    12.000000000000
         C           -3.381392778880    -1.008081207249     0.077534930917    12.000000000000
         C           -3.437489478880     0.395759492751    -0.131200969083    12.000000000000
         H            0.769841221120    -1.897406207249    -0.143989069083     1.007825032230
         H            3.855302221120     1.128814792751     0.044536930917     1.007825032230
         H           -1.578626778880    -2.317547207249     0.350747930917     1.007825032230
         H            3.887159221120    -1.835970207249     0.925146930917     1.007825032230
         H            3.116069221120    -2.545678207249    -0.500003069083     1.007825032230
         H            4.370120221120    -1.307541207249    -0.689961069083     1.007825032230
         H            2.044999221120     2.844650792751     0.145992930917     1.007825032230
         H           -4.225734778880    -1.679939207249     0.153404930917     1.007825032230
         H           -4.242131778880     1.052545792751    -0.255635069083     1.007825032230

  Basis Set: AUG-CC-PVTZ
    Blend: AUG-CC-PVTZ
  Basis Set: (AUG-CC-PVTZ AUX)
    Blend: AUG-CC-PVTZ-JKFIT
	 Reference Energy          =    -513.3722944957075924 [Eh]
	 Singles Energy            =      -0.0000000000000000 [Eh]
	 Same-Spin Energy          =      -0.5597522894753553 [Eh]
	 Opposite-Spin Energy      =      -1.7144482382752484 [Eh]
	 Correlation Energy        =      -2.2742005277506037 [Eh]
	 Total Energy              =    -515.6464950234582147 [Eh]

	 ================> DF-SCS-MP2 Energies <==================
	-----------------------------------------------------------
	 SCS Same-Spin Scale       =       0.3333333333333333 [-]
	 SCS Opposite-Spin Scale   =       1.2000000000000000 [-]
	 SCS Same-Spin Energy      =      -0.1865840964917851 [Eh]
	 SCS Opposite-Spin Energy  =      -2.0573378859302980 [Eh]
	 SCS Correlation Energy    =      -2.2439219824220831 [Eh]
	 SCS Total Energy          =    -515.6162164781296724 [Eh]
	-----------------------------------------------------------

  Dipole Moment: [D]
     X:     1.5196      Y:    -2.3040      Z:    -0.0137     Total:     2.7600

*** Psi4 exiting successfully. Buy a developer a beer!
