                               Psi4 1.4a3.dev225

  ==> Input File <==

--------------------------------------------------------------------------
#psi4
#
memory 32 gb

molecule  {
0 1
  O       -2.2261580     0.9189870    -0.1609950
  N        0.4211910     1.5299470     0.0903790
  C        0.0817250     0.2107030     0.0159890
  C        2.4145630    -0.5010270    -0.0428790
  C       -1.3460660    -0.1139160     0.0206840
  C        1.0420520    -0.8182650    -0.0594370
  C        2.7641530     0.8636850     0.0360660
  C       -2.0477590    -1.2949740     0.1722820
  C        3.4684270    -1.5756500    -0.0824610
  C        1.7493340     1.8260270     0.0926910
  C       -3.5257438    -0.9426861     0.0701299
  C       -3.4828100     0.3886030    -0.1245500
  H        0.7225460    -1.8551450    -0.1446860
  H        3.8080070     1.1710760     0.0438400
  H       -1.6259220    -2.2752860     0.3500510
  H        3.8398640    -1.7937090     0.9244500
  H        3.0687740    -2.5034170    -0.5007000
  H        4.3228250    -1.2652800    -0.6906580
  H        1.9977040     2.8869120     0.1452960
  H       -4.2730300    -1.6376780     0.1527080
  H       -4.2894270     1.0948070    -0.2563320
units angstrom
no_reorient  #important for SAPT in psi4, default
symmetry c1  #important for SAPT in psi4, default
}

set PROPERTIES_ORIGIN ["COM"]
properties('MP2/aug-cc-pvtz', properties = ['dipole'])
--------------------------------------------------------------------------

    Molecular point group: c1
  Charge       = 0
  Multiplicity = 1
  Basis Set: AUG-CC-PVTZ
    Blend: AUG-CC-PVTZ
  Basis Set: (AUG-CC-PVTZ AUX)
    Blend: AUG-CC-PVTZ-JKFIT

    Orbital Energies [Eh]
    ---------------------

    Doubly Occupied:

       1A    -20.619015     2A    -15.564724     3A    -11.298596
       4A    -11.295039     5A    -11.293676     6A    -11.279158
       7A    -11.272228     8A    -11.245053     9A    -11.243173
      10A    -11.239778    11A    -11.239310    12A    -11.234717
      13A     -1.451837    14A     -1.244869    15A     -1.104703
      16A     -1.075887    17A     -1.058502    18A     -0.986653
      19A     -0.968292    20A     -0.864869    21A     -0.834842
      22A     -0.806709    23A     -0.762833    24A     -0.726934
      25A     -0.674056    26A     -0.669675    27A     -0.639247
      28A     -0.632697    29A     -0.609999    30A     -0.590931
      31A     -0.590011    32A     -0.562781    33A     -0.554688
      34A     -0.546622    35A     -0.528044    36A     -0.522145
      37A     -0.508813    38A     -0.418311    39A     -0.394259
      40A     -0.377620    41A     -0.363217    42A     -0.294520

  @DF-RHF Final Energy:  -513.36955370039175

   => Energetics <=

    Nuclear Repulsion Energy =            627.4948535959741776
    One-Electron Energy =               -1941.3507543460652869
    Two-Electron Energy =                 800.4863470496994751
    Total Energy =                       -513.3695537003917480
  Basis Set: (AUG-CC-PVTZ AUX)
    Blend: AUG-CC-PVTZ-RI
    Molecular point group: c1

    Geometry (in Angstrom), charge = 0, multiplicity = 1:

       Center              X                  Y                   Z               Mass
    ------------   -----------------  -----------------  -----------------  -----------------
         O           -2.171689933109     0.878708622605    -0.160346335108    15.994914619570
         N            0.475659066891     1.489668622605     0.091027664892    14.003074004430
         C            0.136193066891     0.170424622605     0.016637664892    12.000000000000
         C            2.469031066891    -0.541305377395    -0.042230335108    12.000000000000
         C           -1.291597933109    -0.154194377395     0.021332664892    12.000000000000
         C            1.096520066891    -0.858543377395    -0.058788335108    12.000000000000
         C            2.818621066891     0.823406622605     0.036714664892    12.000000000000
         C           -1.993290933109    -1.335252377395     0.172930664892    12.000000000000
         C            3.522895066891    -1.615928377395    -0.081812335108    12.000000000000
         C            1.803802066891     1.785748622605     0.093339664892    12.000000000000
         C           -3.471275733109    -0.982964477395     0.070778564892    12.000000000000
         C           -3.428341933109     0.348324622605    -0.123901335108    12.000000000000
         H            0.777014066891    -1.895423377395    -0.144037335108     1.007825032230
         H            3.862475066891     1.130797622605     0.044488664892     1.007825032230
         H           -1.571453933109    -2.315564377395     0.350699664892     1.007825032230
         H            3.894332066891    -1.833987377395     0.925098664892     1.007825032230
         H            3.123242066891    -2.543695377395    -0.500051335108     1.007825032230
         H            4.377293066891    -1.305558377395    -0.690009335108     1.007825032230
         H            2.052172066891     2.846633622605     0.145944664892     1.007825032230
         H           -4.218561933109    -1.677956377395     0.153356664892     1.007825032230
         H           -4.234958933109     1.054528622605    -0.255683335108     1.007825032230

  Basis Set: AUG-CC-PVTZ
    Blend: AUG-CC-PVTZ
  Basis Set: (AUG-CC-PVTZ AUX)
    Blend: AUG-CC-PVTZ-JKFIT
	 Reference Energy          =    -513.3695537003917480 [Eh]
	 Singles Energy            =      -0.0000000000000000 [Eh]
	 Same-Spin Energy          =      -0.5572902388819241 [Eh]
	 Opposite-Spin Energy      =      -1.7125501752098815 [Eh]
	 Correlation Energy        =      -2.2698404140918056 [Eh]
	 Total Energy              =    -515.6393941144835935 [Eh]

	 ================> DF-SCS-MP2 Energies <==================
	-----------------------------------------------------------
	 SCS Same-Spin Scale       =       0.3333333333333333 [-]
	 SCS Opposite-Spin Scale   =       1.2000000000000000 [-]
	 SCS Same-Spin Energy      =      -0.1857634129606414 [Eh]
	 SCS Opposite-Spin Energy  =      -2.0550602102518578 [Eh]
	 SCS Correlation Energy    =      -2.2408236232124992 [Eh]
	 SCS Total Energy          =    -515.6103773236042116 [Eh]
	-----------------------------------------------------------

  Dipole Moment: [D]
     X:     1.5665      Y:    -2.3891      Z:     0.0000     Total:     2.8568

*** Psi4 exiting successfully. Buy a developer a beer!
