                               Psi4 1.4a3.dev225

  ==> Input File <==

--------------------------------------------------------------------------
#psi4
#
memory 32 gb

molecule  {
0 1
  O       -2.2261580     0.9189870    -0.1609950
  N        0.4211910     1.5299470     0.0903790
  C        0.0817250     0.2107030     0.0159890
  C        2.4145630    -0.5010270    -0.0428790
  C       -1.3460660    -0.1139160     0.0206840
  C        1.0420520    -0.8182650    -0.0594370
  C        2.7641530     0.8636850     0.0360660
  C       -2.0477590    -1.2949740     0.1722820
  C        3.4684270    -1.5756500    -0.0824610
  C        1.7493340     1.8260270     0.0926910
  C       -3.4286880    -0.9658200     0.0768380
  C       -3.4828100     0.3886030    -0.1245500
  H        0.7225460    -1.8551450    -0.1446860
  H        3.8080070     1.1710760     0.0438400
  H       -1.6259220    -2.2752860     0.3500510
  H        3.8398640    -1.7937090     0.9244500
  H        3.0687740    -2.5034170    -0.5007000
  H        4.3228250    -1.2652800    -0.6906580
  H        2.0022577     2.9063628     0.1462605
  H       -4.2730300    -1.6376780     0.1527080
  H       -4.2894270     1.0948070    -0.2563320
units angstrom
no_reorient  #important for SAPT in psi4, default
symmetry c1  #important for SAPT in psi4, default
}

set PROPERTIES_ORIGIN ["COM"]
properties('MP2/aug-cc-pvtz', properties = ['dipole'])
--------------------------------------------------------------------------

    Molecular point group: c1
  Charge       = 0
  Multiplicity = 1
  Basis Set: AUG-CC-PVTZ
    Blend: AUG-CC-PVTZ
  Basis Set: (AUG-CC-PVTZ AUX)
    Blend: AUG-CC-PVTZ-JKFIT

    Orbital Energies [Eh]
    ---------------------

    Doubly Occupied:

       1A    -20.621958     2A    -15.563916     3A    -11.297364
       4A    -11.294616     5A    -11.293322     6A    -11.281021
       7A    -11.271986     8A    -11.242586     9A    -11.239570
      10A    -11.239036    11A    -11.238665    12A    -11.233944
      13A     -1.453997    14A     -1.244247    15A     -1.104400
      16A     -1.087886    17A     -1.057550    18A     -0.984159
      19A     -0.968193    20A     -0.862939    21A     -0.835066
      22A     -0.799979    23A     -0.764937    24A     -0.727472
      25A     -0.673149    26A     -0.668792    27A     -0.637911
      28A     -0.633550    29A     -0.598492    30A     -0.590693
      31A     -0.578913    32A     -0.566214    33A     -0.559014
      34A     -0.547484    35A     -0.540718    36A     -0.525503
      37A     -0.509135    38A     -0.417524    39A     -0.402541
      40A     -0.376055    41A     -0.362625    42A     -0.288006

  @DF-RHF Final Energy:  -513.37648749951836

   => Energetics <=

    Nuclear Repulsion Energy =            628.8256554113276025
    One-Electron Energy =               -1944.0340310606950425
    Two-Electron Energy =                 801.8318881498491919
    Total Energy =                       -513.3764874995183618
  Basis Set: (AUG-CC-PVTZ AUX)
    Blend: AUG-CC-PVTZ-RI
    Molecular point group: c1

    Geometry (in Angstrom), charge = 0, multiplicity = 1:

       Center              X                  Y                   Z               Mass
    ------------   -----------------  -----------------  -----------------  -----------------
         O           -2.179040600058     0.880330590100    -0.160858499938    15.994914619570
         N            0.468308399942     1.491290590100     0.090515500062    14.003074004430
         C            0.128842399942     0.172046590100     0.016125500062    12.000000000000
         C            2.461680399942    -0.539683409900    -0.042742499938    12.000000000000
         C           -1.298948600058    -0.152572409900     0.020820500062    12.000000000000
         C            1.089169399942    -0.856921409900    -0.059300499938    12.000000000000
         C            2.811270399942     0.825028590100     0.036202500062    12.000000000000
         C           -2.000641600058    -1.333630409900     0.172418500062    12.000000000000
         C            3.515544399942    -1.614306409900    -0.082324499938    12.000000000000
         C            1.796451399942     1.787370590100     0.092827500062    12.000000000000
         C           -3.381570600058    -1.004476409900     0.076974500062    12.000000000000
         C           -3.435692600058     0.349946590100    -0.124413499938    12.000000000000
         H            0.769663399942    -1.893801409900    -0.144549499938     1.007825032230
         H            3.855124399942     1.132419590100     0.043976500062     1.007825032230
         H           -1.578804600058    -2.313942409900     0.350187500062     1.007825032230
         H            3.886981399942    -1.832365409900     0.924586500062     1.007825032230
         H            3.115891399942    -2.542073409900    -0.500563499938     1.007825032230
         H            4.369942399942    -1.303936409900    -0.690521499938     1.007825032230
         H            2.049375099942     2.867706390100     0.146397000062     1.007825032230
         H           -4.225912600058    -1.676334409900     0.152844500062     1.007825032230
         H           -4.242309600058     1.056150590100    -0.256195499938     1.007825032230

  Basis Set: AUG-CC-PVTZ
    Blend: AUG-CC-PVTZ
  Basis Set: (AUG-CC-PVTZ AUX)
    Blend: AUG-CC-PVTZ-JKFIT
	 Reference Energy          =    -513.3764874995183618 [Eh]
	 Singles Energy            =      -0.0000000000000000 [Eh]
	 Same-Spin Energy          =      -0.5591261483844351 [Eh]
	 Opposite-Spin Energy      =      -1.7137958420440085 [Eh]
	 Correlation Energy        =      -2.2729219904284435 [Eh]
	 Total Energy              =    -515.6494094899468337 [Eh]

	 ================> DF-SCS-MP2 Energies <==================
	-----------------------------------------------------------
	 SCS Same-Spin Scale       =       0.3333333333333333 [-]
	 SCS Opposite-Spin Scale   =       1.2000000000000000 [-]
	 SCS Same-Spin Energy      =      -0.1863753827948117 [Eh]
	 SCS Opposite-Spin Energy  =      -2.0565550104528101 [Eh]
	 SCS Correlation Energy    =      -2.2429303932476219 [Eh]
	 SCS Total Energy          =    -515.6194178927660232 [Eh]
	-----------------------------------------------------------

  Dipole Moment: [D]
     X:     1.4773      Y:    -2.3807      Z:    -0.0051     Total:     2.8018

*** Psi4 exiting successfully. Buy a developer a beer!
