                               Psi4 1.4a3.dev225

  ==> Input File <==

--------------------------------------------------------------------------
#psi4
#
memory 32 gb

molecule  {
0 1
  O       -2.2261580     0.9189870    -0.1609950
  N        0.4211910     1.5299470     0.0903790
  C        0.0817250     0.2107030     0.0159890
  C        2.4145630    -0.5010270    -0.0428790
  C       -1.3460660    -0.1139160     0.0206840
  C        1.0420520    -0.8182650    -0.0594370
  C        2.7641530     0.8636850     0.0360660
  C       -2.0477590    -1.2949740     0.1722820
  C        3.4684270    -1.5756500    -0.0824610
  C        1.7493340     1.8260270     0.0926910
  C       -3.4286880    -0.9658200     0.0768380
  C       -3.4828100     0.3886030    -0.1245500
  H        0.7225460    -1.8551450    -0.1446860
  H        3.8080070     1.1710760     0.0438400
  H       -1.6259220    -2.2752860     0.3500510
  H        3.8398640    -1.7937090     0.9244500
  H        3.0687740    -2.5034170    -0.5007000
  H        4.3228250    -1.2652800    -0.6906580
  H        1.9977040     2.8869120     0.1452960
  H       -4.2730300    -1.6376780     0.1527080
  H       -4.2147505     1.0294268    -0.2441316
units angstrom
no_reorient  #important for SAPT in psi4, default
symmetry c1  #important for SAPT in psi4, default
}

set PROPERTIES_ORIGIN ["COM"]
properties('MP2/aug-cc-pvtz', properties = ['dipole'])
--------------------------------------------------------------------------

    Molecular point group: c1
  Charge       = 0
  Multiplicity = 1
  Basis Set: AUG-CC-PVTZ
    Blend: AUG-CC-PVTZ
  Basis Set: (AUG-CC-PVTZ AUX)
    Blend: AUG-CC-PVTZ-JKFIT

    Orbital Energies [Eh]
    ---------------------

    Doubly Occupied:

       1A    -20.621200     2A    -15.563750     3A    -11.297224
       4A    -11.294375     5A    -11.281996     6A    -11.278744
       7A    -11.271858     8A    -11.242536     9A    -11.239498
      10A    -11.238587    11A    -11.238520    12A    -11.233603
      13A     -1.453485    14A     -1.244199    15A     -1.104309
      16A     -1.087476    17A     -1.058948    18A     -0.988276
      19A     -0.968532    20A     -0.865448    21A     -0.839464
      22A     -0.803539    23A     -0.766380    24A     -0.735618
      25A     -0.675121    26A     -0.669869    27A     -0.643515
      28A     -0.633316    29A     -0.603252    30A     -0.590622
      31A     -0.580054    32A     -0.566351    33A     -0.559524
      34A     -0.548833    35A     -0.542335    36A     -0.525406
      37A     -0.509828    38A     -0.417678    39A     -0.402151
      40A     -0.375919    41A     -0.362516    42A     -0.288018

  @DF-RHF Final Energy:  -513.37097718782684

   => Energetics <=

    Nuclear Repulsion Energy =            629.4993653842955155
    One-Electron Energy =               -1945.3169401820623534
    Two-Electron Energy =                 802.4465976099399995
    Total Energy =                       -513.3709771878268384
  Basis Set: (AUG-CC-PVTZ AUX)
    Blend: AUG-CC-PVTZ-RI
    Molecular point group: c1

    Geometry (in Angstrom), charge = 0, multiplicity = 1:

       Center              X                  Y                   Z               Mass
    ------------   -----------------  -----------------  -----------------  -----------------
         O           -2.179484883819     0.880868062017    -0.160929688310    15.994914619570
         N            0.467864116181     1.491828062017     0.090444311690    14.003074004430
         C            0.128398116181     0.172584062017     0.016054311690    12.000000000000
         C            2.461236116181    -0.539145937983    -0.042813688310    12.000000000000
         C           -1.299392883819    -0.152034937983     0.020749311690    12.000000000000
         C            1.088725116181    -0.856383937983    -0.059371688310    12.000000000000
         C            2.810826116181     0.825566062017     0.036131311690    12.000000000000
         C           -2.001085883819    -1.333092937983     0.172347311690    12.000000000000
         C            3.515100116181    -1.613768937983    -0.082395688310    12.000000000000
         C            1.796007116181     1.787908062017     0.092756311690    12.000000000000
         C           -3.382014883819    -1.003938937983     0.076903311690    12.000000000000
         C           -3.436136883819     0.350484062017    -0.124484688310    12.000000000000
         H            0.769219116181    -1.893263937983    -0.144620688310     1.007825032230
         H            3.854680116181     1.132957062017     0.043905311690     1.007825032230
         H           -1.579248883819    -2.313404937983     0.350116311690     1.007825032230
         H            3.886537116181    -1.831827937983     0.924515311690     1.007825032230
         H            3.115447116181    -2.541535937983    -0.500634688310     1.007825032230
         H            4.369498116181    -1.303398937983    -0.690592688310     1.007825032230
         H            2.044377116181     2.848793062017     0.145361311690     1.007825032230
         H           -4.226356883819    -1.675796937983     0.152773311690     1.007825032230
         H           -4.168077383819     0.991307862017    -0.244066288310     1.007825032230

  Basis Set: AUG-CC-PVTZ
    Blend: AUG-CC-PVTZ
  Basis Set: (AUG-CC-PVTZ AUX)
    Blend: AUG-CC-PVTZ-JKFIT
	 Reference Energy          =    -513.3709771878268384 [Eh]
	 Singles Energy            =      -0.0000000000000000 [Eh]
	 Same-Spin Energy          =      -0.5589020112057279 [Eh]
	 Opposite-Spin Energy      =      -1.7130748304076475 [Eh]
	 Correlation Energy        =      -2.2719768416133754 [Eh]
	 Total Energy              =    -515.6429540294402614 [Eh]

	 ================> DF-SCS-MP2 Energies <==================
	-----------------------------------------------------------
	 SCS Same-Spin Scale       =       0.3333333333333333 [-]
	 SCS Opposite-Spin Scale   =       1.2000000000000000 [-]
	 SCS Same-Spin Energy      =      -0.1863006704019093 [Eh]
	 SCS Opposite-Spin Energy  =      -2.0556897964891769 [Eh]
	 SCS Correlation Energy    =      -2.2419904668910862 [Eh]
	 SCS Total Energy          =    -515.6129676547179770 [Eh]
	-----------------------------------------------------------

  Dipole Moment: [D]
     X:     1.4931      Y:    -2.3867      Z:    -0.0023     Total:     2.8153

*** Psi4 exiting successfully. Buy a developer a beer!
