                               Psi4 1.4a3.dev225

  ==> Input File <==

--------------------------------------------------------------------------
#psi4
#
memory 32 gb

molecule  {
0 1
  O       -2.2261580     0.9189870    -0.1609950
  N        0.4211910     1.5299470     0.0903790
  C        0.0817250     0.2107030     0.0159890
  C        2.4145630    -0.5010270    -0.0428790
  C       -1.3460660    -0.1139160     0.0206840
  C        1.0420520    -0.8182650    -0.0594370
  C        2.7641530     0.8636850     0.0360660
  C       -2.0477590    -1.2949740     0.1722820
  C        3.4684270    -1.5756500    -0.0824610
  C        1.7493340     1.8260270     0.0926910
  C       -3.4286880    -0.9658200     0.0768380
  C       -3.4828100     0.3886030    -0.1245500
  H        0.7225460    -1.8551450    -0.1446860
  H        3.8080070     1.1710760     0.0438400
  H       -1.6259220    -2.2752860     0.3500510
  H        3.8398640    -1.7937090     0.9244500
  H        3.0687740    -2.5034170    -0.5007000
  H        4.3228250    -1.2652800    -0.6906580
  H        1.9977040     2.8869120     0.1452960
  H       -4.2730300    -1.6376780     0.1527080
  H       -4.3641035     1.1601872    -0.2685324
units angstrom
no_reorient  #important for SAPT in psi4, default
symmetry c1  #important for SAPT in psi4, default
}

set PROPERTIES_ORIGIN ["COM"]
properties('MP2/aug-cc-pvtz', properties = ['dipole'])
--------------------------------------------------------------------------

    Molecular point group: c1
  Charge       = 0
  Multiplicity = 1
  Basis Set: AUG-CC-PVTZ
    Blend: AUG-CC-PVTZ
  Basis Set: (AUG-CC-PVTZ AUX)
    Blend: AUG-CC-PVTZ-JKFIT

    Orbital Energies [Eh]
    ---------------------

    Doubly Occupied:

       1A    -20.622797     2A    -15.563781     3A    -11.303736
       4A    -11.297542     5A    -11.294617     6A    -11.278800
       7A    -11.271927     8A    -11.242602     9A    -11.239539
      10A    -11.239471    11A    -11.238521    12A    -11.234454
      13A     -1.454577    14A     -1.244257    15A     -1.104349
      16A     -1.088348    17A     -1.057218    18A     -0.981932
      19A     -0.967764    20A     -0.862069    21A     -0.834116
      22A     -0.798207    23A     -0.764200    24A     -0.721072
      25A     -0.672337    26A     -0.667006    27A     -0.636185
      28A     -0.633775    29A     -0.596081    30A     -0.590670
      31A     -0.577143    32A     -0.566128    33A     -0.558317
      34A     -0.546534    35A     -0.536435    36A     -0.525341
      37A     -0.509919    38A     -0.417731    39A     -0.402931
      40A     -0.376127    41A     -0.362617    42A     -0.288034

  @DF-RHF Final Energy:  -513.36946879074992

   => Energetics <=

    Nuclear Repulsion Energy =            628.4280755857830627
    One-Electron Energy =               -1943.2566721573475661
    Two-Electron Energy =                 801.4591277808145833
    Total Energy =                       -513.3694687907499201
  Basis Set: (AUG-CC-PVTZ AUX)
    Blend: AUG-CC-PVTZ-RI
    Molecular point group: c1

    Geometry (in Angstrom), charge = 0, multiplicity = 1:

       Center              X                  Y                   Z               Mass
    ------------   -----------------  -----------------  -----------------  -----------------
         O           -2.178538613668     0.880039590788    -0.160775089817    15.994914619570
         N            0.468810386332     1.490999590788     0.090598910183    14.003074004430
         C            0.129344386332     0.171755590788     0.016208910183    12.000000000000
         C            2.462182386332    -0.539974409212    -0.042659089817    12.000000000000
         C           -1.298446613668    -0.152863409212     0.020903910183    12.000000000000
         C            1.089671386332    -0.857212409212    -0.059217089817    12.000000000000
         C            2.811772386332     0.824737590788     0.036285910183    12.000000000000
         C           -2.000139613668    -1.333921409212     0.172501910183    12.000000000000
         C            3.516046386332    -1.614597409212    -0.082241089817    12.000000000000
         C            1.796953386332     1.787079590788     0.092910910183    12.000000000000
         C           -3.381068613668    -1.004767409212     0.077057910183    12.000000000000
         C           -3.435190613668     0.349655590788    -0.124330089817    12.000000000000
         H            0.770165386332    -1.894092409212    -0.144466089817     1.007825032230
         H            3.855626386332     1.132128590788     0.044059910183     1.007825032230
         H           -1.578302613668    -2.314233409212     0.350270910183     1.007825032230
         H            3.887483386332    -1.832656409212     0.924669910183     1.007825032230
         H            3.116393386332    -2.542364409212    -0.500480089817     1.007825032230
         H            4.370444386332    -1.304227409212    -0.690438089817     1.007825032230
         H            2.045323386332     2.847964590788     0.145515910183     1.007825032230
         H           -4.225410613668    -1.676625409212     0.152927910183     1.007825032230
         H           -4.316484113668     1.121239790788    -0.268312489817     1.007825032230

  Basis Set: AUG-CC-PVTZ
    Blend: AUG-CC-PVTZ
  Basis Set: (AUG-CC-PVTZ AUX)
    Blend: AUG-CC-PVTZ-JKFIT
	 Reference Energy          =    -513.3694687907499201 [Eh]
	 Singles Energy            =      -0.0000000000000000 [Eh]
	 Same-Spin Energy          =      -0.5593357099161940 [Eh]
	 Opposite-Spin Energy      =      -1.7146196239255977 [Eh]
	 Correlation Energy        =      -2.2739553338417915 [Eh]
	 Total Energy              =    -515.6434241245916610 [Eh]

	 ================> DF-SCS-MP2 Energies <==================
	-----------------------------------------------------------
	 SCS Same-Spin Scale       =       0.3333333333333333 [-]
	 SCS Opposite-Spin Scale   =       1.2000000000000000 [-]
	 SCS Same-Spin Energy      =      -0.1864452366387313 [Eh]
	 SCS Opposite-Spin Energy  =      -2.0575435487107172 [Eh]
	 SCS Correlation Energy    =      -2.2439887853494485 [Eh]
	 SCS Total Energy          =    -515.6134575760993357 [Eh]
	-----------------------------------------------------------

  Dipole Moment: [D]
     X:     1.4850      Y:    -2.3636      Z:    -0.0058     Total:     2.7914

*** Psi4 exiting successfully. Buy a developer a beer!
