                               Psi4 1.4a3.dev225

  ==> Input File <==

--------------------------------------------------------------------------
#psi4
#
memory 32 gb

molecule  {
0 1
  O       -2.2261580     0.9189870    -0.1609950
  N        0.4211910     1.5299470     0.0903790
  C        0.0817250     0.2107030     0.0159890
  C        2.4145630    -0.5010270    -0.0428790
  C       -1.3460660    -0.1139160     0.0206840
  C        1.0420520    -0.8182650    -0.0594370
  C        2.7641530     0.8636850     0.0360660
  C       -2.0477590    -1.2949740     0.1722820
  C        3.4684270    -1.5756500    -0.0824610
  C        1.7493340     1.8260270     0.0926910
  C       -3.4286880    -0.9658200     0.0768380
  C       -3.6670048     0.3108615    -0.1192080
  H        0.7225460    -1.8551450    -0.1446860
  H        3.8080070     1.1710760     0.0438400
  H       -1.6259220    -2.2752860     0.3500510
  H        3.8398640    -1.7937090     0.9244500
  H        3.0687740    -2.5034170    -0.5007000
  H        4.3228250    -1.2652800    -0.6906580
  H        1.9977040     2.8869120     0.1452960
  H       -4.2730300    -1.6376780     0.1527080
  H       -4.2894270     1.0948070    -0.2563320
units angstrom
no_reorient  #important for SAPT in psi4, default
symmetry c1  #important for SAPT in psi4, default
}

set PROPERTIES_ORIGIN ["COM"]
properties('MP2/aug-cc-pvtz', properties = ['dipole'])
--------------------------------------------------------------------------

    Molecular point group: c1
  Charge       = 0
  Multiplicity = 1
  Basis Set: AUG-CC-PVTZ
    Blend: AUG-CC-PVTZ
  Basis Set: (AUG-CC-PVTZ AUX)
    Blend: AUG-CC-PVTZ-JKFIT

    Orbital Energies [Eh]
    ---------------------

    Doubly Occupied:

       1A    -20.589241     2A    -15.566851     3A    -11.304358
       4A    -11.294262     5A    -11.287741     6A    -11.279727
       7A    -11.273173     8A    -11.246146     9A    -11.242906
      10A    -11.242348    11A    -11.240708    12A    -11.231463
      13A     -1.386865    14A     -1.244833    15A     -1.106341
      16A     -1.087136    17A     -1.058917    18A     -0.985357
      19A     -0.968535    20A     -0.869923    21A     -0.838641
      22A     -0.793801    23A     -0.757891    24A     -0.721258
      25A     -0.674423    26A     -0.671703    27A     -0.634260
      28A     -0.608070    29A     -0.599567    30A     -0.589218
      31A     -0.578036    32A     -0.569813    33A     -0.555271
      34A     -0.548386    35A     -0.523148    36A     -0.516728
      37A     -0.500612    38A     -0.418718    39A     -0.405341
      40A     -0.377930    41A     -0.364285    42A     -0.295946

  @DF-RHF Final Energy:  -513.34212824182134

   => Energetics <=

    Nuclear Repulsion Energy =            625.5176828705301659
    One-Electron Energy =               -1937.6198661971773163
    Two-Electron Energy =                 798.7600550848259218
    Total Energy =                       -513.3421282418213423
  Basis Set: (AUG-CC-PVTZ AUX)
    Blend: AUG-CC-PVTZ-RI
    Molecular point group: c1

    Geometry (in Angstrom), charge = 0, multiplicity = 1:

       Center              X                  Y                   Z               Mass
    ------------   -----------------  -----------------  -----------------  -----------------
         O           -2.165116233314     0.886318585955    -0.161255385475    15.994914619570
         N            0.482232766686     1.497278585955     0.090118614525    14.003074004430
         C            0.142766766686     0.178034585955     0.015728614525    12.000000000000
         C            2.475604766686    -0.533695414045    -0.043139385475    12.000000000000
         C           -1.285024233314    -0.146584414045     0.020423614525    12.000000000000
         C            1.103093766686    -0.850933414045    -0.059697385475    12.000000000000
         C            2.825194766686     0.831016585955     0.035805614525    12.000000000000
         C           -1.986717233314    -1.327642414045     0.172021614525    12.000000000000
         C            3.529468766686    -1.608318414045    -0.082721385475    12.000000000000
         C            1.810375766686     1.793358585955     0.092430614525    12.000000000000
         C           -3.367646233314    -0.998488414045     0.076577614525    12.000000000000
         C           -3.605963033314     0.278193085955    -0.119468385475    12.000000000000
         H            0.783587766686    -1.887813414045    -0.144946385475     1.007825032230
         H            3.869048766686     1.138407585955     0.043579614525     1.007825032230
         H           -1.564880233314    -2.307954414045     0.349790614525     1.007825032230
         H            3.900905766686    -1.826377414045     0.924189614525     1.007825032230
         H            3.129815766686    -2.536085414045    -0.500960385475     1.007825032230
         H            4.383866766686    -1.297948414045    -0.690918385475     1.007825032230
         H            2.058745766686     2.854243585955     0.145035614525     1.007825032230
         H           -4.211988233314    -1.670346414045     0.152447614525     1.007825032230
         H           -4.228385233314     1.062138585955    -0.256592385475     1.007825032230

  Basis Set: AUG-CC-PVTZ
    Blend: AUG-CC-PVTZ
  Basis Set: (AUG-CC-PVTZ AUX)
    Blend: AUG-CC-PVTZ-JKFIT
	 Reference Energy          =    -513.3421282418213423 [Eh]
	 Singles Energy            =      -0.0000000000000000 [Eh]
	 Same-Spin Energy          =      -0.5592987875936054 [Eh]
	 Opposite-Spin Energy      =      -1.7175373996761354 [Eh]
	 Correlation Energy        =      -2.2768361872697409 [Eh]
	 Total Energy              =    -515.6189644290910792 [Eh]

	 ================> DF-SCS-MP2 Energies <==================
	-----------------------------------------------------------
	 SCS Same-Spin Scale       =       0.3333333333333333 [-]
	 SCS Opposite-Spin Scale   =       1.2000000000000000 [-]
	 SCS Same-Spin Energy      =      -0.1864329291978685 [Eh]
	 SCS Opposite-Spin Energy  =      -2.0610448796113623 [Eh]
	 SCS Correlation Energy    =      -2.2474778088092306 [Eh]
	 SCS Total Energy          =    -515.5896060506305503 [Eh]
	-----------------------------------------------------------

  Dipole Moment: [D]
     X:     1.4107      Y:    -2.5145      Z:     0.0159     Total:     2.8832

*** Psi4 exiting successfully. Buy a developer a beer!
