                               Psi4 1.4a3.dev225

  ==> Input File <==

--------------------------------------------------------------------------
#psi4
#
memory 32 gb

molecule  {
0 1
  O       -2.2261580     0.9189870    -0.1609950
  N        0.4211910     1.5299470     0.0903790
  C        0.0817250     0.2107030     0.0159890
  C        2.4145630    -0.5010270    -0.0428790
  C       -1.3460660    -0.1139160     0.0206840
  C        1.0420520    -0.8182650    -0.0594370
  C        2.7641530     0.8636850     0.0360660
  C       -2.0477590    -1.2949740     0.1722820
  C        3.4684270    -1.5756500    -0.0824610
  C        1.7493340     1.8260270     0.0926910
  C       -3.4286880    -0.9658200     0.0768380
  C       -3.4828100     0.3886030    -0.1245500
  H        0.7225460    -1.8551450    -0.1446860
  H        3.7600446     1.1569522     0.0434828
  H       -1.6259220    -2.2752860     0.3500510
  H        3.8398640    -1.7937090     0.9244500
  H        3.0687740    -2.5034170    -0.5007000
  H        4.3228250    -1.2652800    -0.6906580
  H        1.9977040     2.8869120     0.1452960
  H       -4.2730300    -1.6376780     0.1527080
  H       -4.2894270     1.0948070    -0.2563320
units angstrom
no_reorient  #important for SAPT in psi4, default
symmetry c1  #important for SAPT in psi4, default
}

set PROPERTIES_ORIGIN ["COM"]
properties('MP2/aug-cc-pvtz', properties = ['dipole'])
--------------------------------------------------------------------------

    Molecular point group: c1
  Charge       = 0
  Multiplicity = 1
  Basis Set: AUG-CC-PVTZ
    Blend: AUG-CC-PVTZ
  Basis Set: (AUG-CC-PVTZ AUX)
    Blend: AUG-CC-PVTZ-JKFIT

    Orbital Energies [Eh]
    ---------------------

    Doubly Occupied:

       1A    -20.621794     2A    -15.563355     3A    -11.297171
       4A    -11.294264     5A    -11.293169     6A    -11.278335
       7A    -11.271396     8A    -11.242172     9A    -11.239517
      10A    -11.238855    11A    -11.233806    12A    -11.232599
      13A     -1.453831    14A     -1.243914    15A     -1.104639
      16A     -1.087818    17A     -1.058023    18A     -0.985513
      19A     -0.968166    20A     -0.865175    21A     -0.835987
      22A     -0.800304    23A     -0.765127    24A     -0.727664
      25A     -0.680125    26A     -0.668579    27A     -0.640456
      28A     -0.633577    29A     -0.599930    30A     -0.590651
      31A     -0.580618    32A     -0.566179    33A     -0.560223
      34A     -0.547401    35A     -0.540540    36A     -0.525125
      37A     -0.511095    38A     -0.417537    39A     -0.402367
      40A     -0.375774    41A     -0.362250    42A     -0.287810

  @DF-RHF Final Energy:  -513.37650874192320

   => Energetics <=

    Nuclear Repulsion Energy =            629.2034983761818694
    One-Electron Energy =               -1944.7743582761563630
    Two-Electron Energy =                 802.1943511580512904
    Total Energy =                       -513.3765087419232032
  Basis Set: (AUG-CC-PVTZ AUX)
    Blend: AUG-CC-PVTZ-RI
    Molecular point group: c1

    Geometry (in Angstrom), charge = 0, multiplicity = 1:

       Center              X                  Y                   Z               Mass
    ------------   -----------------  -----------------  -----------------  -----------------
         O           -2.178707868758     0.880543311919    -0.160850125917    15.994914619570
         N            0.468641131242     1.491503311919     0.090523874083    14.003074004430
         C            0.129175131242     0.172259311919     0.016133874083    12.000000000000
         C            2.462013131242    -0.539470688081    -0.042734125917    12.000000000000
         C           -1.298615868758    -0.152359688081     0.020828874083    12.000000000000
         C            1.089502131242    -0.856708688081    -0.059292125917    12.000000000000
         C            2.811603131242     0.825241311919     0.036210874083    12.000000000000
         C           -2.000308868758    -1.333417688081     0.172426874083    12.000000000000
         C            3.515877131242    -1.614093688081    -0.082316125917    12.000000000000
         C            1.796784131242     1.787583311919     0.092835874083    12.000000000000
         C           -3.381237868758    -1.004263688081     0.076982874083    12.000000000000
         C           -3.435359868758     0.350159311919    -0.124405125917    12.000000000000
         H            0.769996131242    -1.893588688081    -0.144541125917     1.007825032230
         H            3.807494731242     1.118508511919     0.043627674083     1.007825032230
         H           -1.578471868758    -2.313729688081     0.350195874083     1.007825032230
         H            3.887314131242    -1.832152688081     0.924594874083     1.007825032230
         H            3.116224131242    -2.541860688081    -0.500555125917     1.007825032230
         H            4.370275131242    -1.303723688081    -0.690513125917     1.007825032230
         H            2.045154131242     2.848468311919     0.145440874083     1.007825032230
         H           -4.225579868758    -1.676121688081     0.152852874083     1.007825032230
         H           -4.241976868758     1.056363311919    -0.256187125917     1.007825032230

  Basis Set: AUG-CC-PVTZ
    Blend: AUG-CC-PVTZ
  Basis Set: (AUG-CC-PVTZ AUX)
    Blend: AUG-CC-PVTZ-JKFIT
	 Reference Energy          =    -513.3765087419232032 [Eh]
	 Singles Energy            =      -0.0000000000000000 [Eh]
	 Same-Spin Energy          =      -0.5589658003265395 [Eh]
	 Opposite-Spin Energy      =      -1.7132921834215149 [Eh]
	 Correlation Energy        =      -2.2722579837480543 [Eh]
	 Total Energy              =    -515.6487667256712939 [Eh]

	 ================> DF-SCS-MP2 Energies <==================
	-----------------------------------------------------------
	 SCS Same-Spin Scale       =       0.3333333333333333 [-]
	 SCS Opposite-Spin Scale   =       1.2000000000000000 [-]
	 SCS Same-Spin Energy      =      -0.1863219334421798 [Eh]
	 SCS Opposite-Spin Energy  =      -2.0559506201058180 [Eh]
	 SCS Correlation Energy    =      -2.2422725535479979 [Eh]
	 SCS Total Energy          =    -515.6187812954711944 [Eh]
	-----------------------------------------------------------

  Dipole Moment: [D]
     X:     1.4995      Y:    -2.3680      Z:    -0.0047     Total:     2.8028

*** Psi4 exiting successfully. Buy a developer a beer!
