                               Psi4 1.4a3.dev225

  ==> Input File <==

--------------------------------------------------------------------------
#psi4
#
memory 32 gb

molecule  {
0 1
  O       -2.2261580     0.9189870    -0.1609950
  N        0.4211910     1.5299470     0.0903790
  C        0.0817250     0.2107030     0.0159890
  C        2.4145630    -0.5010270    -0.0428790
  C       -1.3460660    -0.1139160     0.0206840
  C        1.1101844    -0.8912673    -0.0647883
  C        2.7641530     0.8636850     0.0360660
  C       -2.0477590    -1.2949740     0.1722820
  C        3.4684270    -1.5756500    -0.0824610
  C        1.7493340     1.8260270     0.0926910
  C       -3.4286880    -0.9658200     0.0768380
  C       -3.4828100     0.3886030    -0.1245500
  H        0.7225460    -1.8551450    -0.1446860
  H        3.8080070     1.1710760     0.0438400
  H       -1.6259220    -2.2752860     0.3500510
  H        3.8398640    -1.7937090     0.9244500
  H        3.0687740    -2.5034170    -0.5007000
  H        4.3228250    -1.2652800    -0.6906580
  H        1.9977040     2.8869120     0.1452960
  H       -4.2730300    -1.6376780     0.1527080
  H       -4.2894270     1.0948070    -0.2563320
units angstrom
no_reorient  #important for SAPT in psi4, default
symmetry c1  #important for SAPT in psi4, default
}

set PROPERTIES_ORIGIN ["COM"]
properties('MP2/aug-cc-pvtz', properties = ['dipole'])
--------------------------------------------------------------------------

    Molecular point group: c1
  Charge       = 0
  Multiplicity = 1
  Basis Set: AUG-CC-PVTZ
    Blend: AUG-CC-PVTZ
  Basis Set: (AUG-CC-PVTZ AUX)
    Blend: AUG-CC-PVTZ-JKFIT

    Orbital Energies [Eh]
    ---------------------

    Doubly Occupied:

       1A    -20.624122     2A    -15.564715     3A    -11.305752
       4A    -11.299583     5A    -11.296724     6A    -11.277528
       7A    -11.263766     8A    -11.242992     9A    -11.242739
      10A    -11.236968    11A    -11.236396    12A    -11.234538
      13A     -1.456291    14A     -1.240771    15A     -1.109433
      16A     -1.089855    17A     -1.053585    18A     -0.984750
      19A     -0.960701    20A     -0.869755    21A     -0.832424
      22A     -0.803359    23A     -0.765983    24A     -0.724351
      25A     -0.679752    26A     -0.664948    27A     -0.645709
      28A     -0.635791    29A     -0.596301    30A     -0.588206
      31A     -0.581615    32A     -0.568837    33A     -0.560036
      34A     -0.543742    35A     -0.536632    36A     -0.520670
      37A     -0.518410    38A     -0.412812    39A     -0.403998
      40A     -0.379106    41A     -0.362636    42A     -0.286259

  @DF-RHF Final Energy:  -513.36623501103952

   => Energetics <=

    Nuclear Repulsion Energy =            627.8169975128932947
    One-Electron Energy =               -1941.9613859864168717
    Two-Electron Energy =                 800.7781534624840560
    Total Energy =                       -513.3662350110395209
  Basis Set: (AUG-CC-PVTZ AUX)
    Blend: AUG-CC-PVTZ-RI
    Molecular point group: c1

    Geometry (in Angstrom), charge = 0, multiplicity = 1:

       Center              X                  Y                   Z               Mass
    ------------   -----------------  -----------------  -----------------  -----------------
         O           -2.184151605110     0.885961064316    -0.160448691067    15.994914619570
         N            0.463197394890     1.496921064316     0.090925308933    14.003074004430
         C            0.123731394890     0.177677064316     0.016535308933    12.000000000000
         C            2.456569394890    -0.534052935684    -0.042332691067    12.000000000000
         C           -1.304059605110    -0.146941935684     0.021230308933    12.000000000000
         C            1.152190794890    -0.924293235684    -0.064241991067    12.000000000000
         C            2.806159394890     0.830659064316     0.036612308933    12.000000000000
         C           -2.005752605110    -1.327999935684     0.172828308933    12.000000000000
         C            3.510433394890    -1.608675935684    -0.081914691067    12.000000000000
         C            1.791340394890     1.793001064316     0.093237308933    12.000000000000
         C           -3.386681605110    -0.998845935684     0.077384308933    12.000000000000
         C           -3.440803605110     0.355577064316    -0.124003691067    12.000000000000
         H            0.764552394890    -1.888170935684    -0.144139691067     1.007825032230
         H            3.850013394890     1.138050064316     0.044386308933     1.007825032230
         H           -1.583915605110    -2.308311935684     0.350597308933     1.007825032230
         H            3.881870394890    -1.826734935684     0.924996308933     1.007825032230
         H            3.110780394890    -2.536442935684    -0.500153691067     1.007825032230
         H            4.364831394890    -1.298305935684    -0.690111691067     1.007825032230
         H            2.039710394890     2.853886064316     0.145842308933     1.007825032230
         H           -4.231023605110    -1.670703935684     0.153254308933     1.007825032230
         H           -4.247420605110     1.061781064316    -0.255785691067     1.007825032230

  Basis Set: AUG-CC-PVTZ
    Blend: AUG-CC-PVTZ
  Basis Set: (AUG-CC-PVTZ AUX)
    Blend: AUG-CC-PVTZ-JKFIT
	 Reference Energy          =    -513.3662350110395209 [Eh]
	 Singles Energy            =      -0.0000000000000000 [Eh]
	 Same-Spin Energy          =      -0.5588086083814052 [Eh]
	 Opposite-Spin Energy      =      -1.7139605869080210 [Eh]
	 Correlation Energy        =      -2.2727691952894262 [Eh]
	 Total Energy              =    -515.6390042063289911 [Eh]

	 ================> DF-SCS-MP2 Energies <==================
	-----------------------------------------------------------
	 SCS Same-Spin Scale       =       0.3333333333333333 [-]
	 SCS Opposite-Spin Scale   =       1.2000000000000000 [-]
	 SCS Same-Spin Energy      =      -0.1862695361271351 [Eh]
	 SCS Opposite-Spin Energy  =      -2.0567527042896252 [Eh]
	 SCS Correlation Energy    =      -2.2430222404167601 [Eh]
	 SCS Total Energy          =    -515.6092572514562562 [Eh]
	-----------------------------------------------------------

  Dipole Moment: [D]
     X:     1.2549      Y:    -2.3559      Z:    -0.0052     Total:     2.6693

*** Psi4 exiting successfully. Buy a developer a beer!
