                               Psi4 1.4a3.dev225

  ==> Input File <==

--------------------------------------------------------------------------
#psi4
#
memory 32 gb

molecule  {
0 1
  O       -2.2261580     0.9189870    -0.1609950
  N        0.4211910     1.5299470     0.0903790
  C        0.0817250     0.2107030     0.0159890
  C        2.4145630    -0.5010270    -0.0428790
  C       -1.3460660    -0.1139160     0.0206840
  C        1.0420520    -0.8182650    -0.0594370
  C        2.7641530     0.8636850     0.0360660
  C       -2.0477590    -1.2949740     0.1722820
  C        3.4684270    -1.5756500    -0.0824610
  C        1.7493340     1.8260270     0.0926910
  C       -3.4286880    -0.9658200     0.0768380
  C       -3.4907088     0.5862738    -0.1539415
  H        0.7225460    -1.8551450    -0.1446860
  H        3.8080070     1.1710760     0.0438400
  H       -1.6259220    -2.2752860     0.3500510
  H        3.8398640    -1.7937090     0.9244500
  H        3.0687740    -2.5034170    -0.5007000
  H        4.3228250    -1.2652800    -0.6906580
  H        1.9977040     2.8869120     0.1452960
  H       -4.2730300    -1.6376780     0.1527080
  H       -4.2894270     1.0948070    -0.2563320
units angstrom
no_reorient  #important for SAPT in psi4, default
symmetry c1  #important for SAPT in psi4, default
}

set PROPERTIES_ORIGIN ["COM"]
properties('MP2/aug-cc-pvtz', properties = ['dipole'])
--------------------------------------------------------------------------

    Molecular point group: c1
  Charge       = 0
  Multiplicity = 1
  Basis Set: AUG-CC-PVTZ
    Blend: AUG-CC-PVTZ
  Basis Set: (AUG-CC-PVTZ AUX)
    Blend: AUG-CC-PVTZ-JKFIT

    Orbital Energies [Eh]
    ---------------------

    Doubly Occupied:

       1A    -20.639384     2A    -15.562397     3A    -11.309681
       4A    -11.297557     5A    -11.295827     6A    -11.278679
       7A    -11.271842     8A    -11.248617     9A    -11.243716
      10A    -11.241779    11A    -11.239276    12A    -11.237014
      13A     -1.476709    14A     -1.244165    15A     -1.103702
      16A     -1.085034    17A     -1.042906    18A     -0.988787
      19A     -0.968923    20A     -0.865769    21A     -0.842302
      22A     -0.799518    23A     -0.776626    24A     -0.743478
      25A     -0.684974    26A     -0.670139    27A     -0.656311
      28A     -0.644461    29A     -0.612051    30A     -0.590497
      31A     -0.581864    32A     -0.566653    33A     -0.554721
      34A     -0.547802    35A     -0.526265    36A     -0.509939
      37A     -0.502750    38A     -0.417194    39A     -0.403532
      40A     -0.367431    41A     -0.356273    42A     -0.273229

  @DF-RHF Final Energy:  -513.32110545663954

   => Energetics <=

    Nuclear Repulsion Energy =            627.3189683597934163
    One-Electron Energy =               -1940.7406028089919801
    Two-Electron Energy =                 800.1005289925590205
    Total Energy =                       -513.3211054566395433
  Basis Set: (AUG-CC-PVTZ AUX)
    Blend: AUG-CC-PVTZ-RI
    Molecular point group: c1

    Geometry (in Angstrom), charge = 0, multiplicity = 1:

       Center              X                  Y                   Z               Mass
    ------------   -----------------  -----------------  -----------------  -----------------
         O           -2.178415869287     0.865541691795    -0.158635116688    15.994914619570
         N            0.468933130713     1.476501691795     0.092738883312    14.003074004430
         C            0.129467130713     0.157257691795     0.018348883312    12.000000000000
         C            2.462305130713    -0.554472308205    -0.040519116688    12.000000000000
         C           -1.298323869287    -0.167361308205     0.023043883312    12.000000000000
         C            1.089794130713    -0.871710308205    -0.057077116688    12.000000000000
         C            2.811895130713     0.810239691795     0.038425883312    12.000000000000
         C           -2.000016869287    -1.348419308205     0.174641883312    12.000000000000
         C            3.516169130713    -1.629095308205    -0.080101116688    12.000000000000
         C            1.797076130713     1.772581691795     0.095050883312    12.000000000000
         C           -3.380945869287    -1.019265308205     0.079197883312    12.000000000000
         C           -3.442966669287     0.532828491795    -0.151581616688    12.000000000000
         H            0.770288130713    -1.908590308205    -0.142326116688     1.007825032230
         H            3.855749130713     1.117630691795     0.046199883312     1.007825032230
         H           -1.578179869287    -2.328731308205     0.352410883312     1.007825032230
         H            3.887606130713    -1.847154308205     0.926809883312     1.007825032230
         H            3.116516130713    -2.556862308205    -0.498340116688     1.007825032230
         H            4.370567130713    -1.318725308205    -0.688298116688     1.007825032230
         H            2.045446130713     2.833466691795     0.147655883312     1.007825032230
         H           -4.225287869287    -1.691123308205     0.155067883312     1.007825032230
         H           -4.241684869287     1.041361691795    -0.253972116688     1.007825032230

  Basis Set: AUG-CC-PVTZ
    Blend: AUG-CC-PVTZ
  Basis Set: (AUG-CC-PVTZ AUX)
    Blend: AUG-CC-PVTZ-JKFIT
	 Reference Energy          =    -513.3211054566395433 [Eh]
	 Singles Energy            =      -0.0000000000000000 [Eh]
	 Same-Spin Energy          =      -0.5625313914119261 [Eh]
	 Opposite-Spin Energy      =      -1.7190731556737908 [Eh]
	 Correlation Energy        =      -2.2816045470857169 [Eh]
	 Total Energy              =    -515.6027100037252922 [Eh]

	 ================> DF-SCS-MP2 Energies <==================
	-----------------------------------------------------------
	 SCS Same-Spin Scale       =       0.3333333333333333 [-]
	 SCS Opposite-Spin Scale   =       1.2000000000000000 [-]
	 SCS Same-Spin Energy      =      -0.1875104638039753 [Eh]
	 SCS Opposite-Spin Energy  =      -2.0628877868085489 [Eh]
	 SCS Correlation Energy    =      -2.2503982506125242 [Eh]
	 SCS Total Energy          =    -515.5715037072520772 [Eh]
	-----------------------------------------------------------

  Dipole Moment: [D]
     X:     1.6873      Y:    -2.1367      Z:    -0.0332     Total:     2.7228

*** Psi4 exiting successfully. Buy a developer a beer!
