                               Psi4 1.4a3.dev225

  ==> Input File <==

--------------------------------------------------------------------------
#psi4
#
memory 32 gb

molecule  {
0 1
  O       -2.2261580     0.9189870    -0.1609950
  N        0.4211910     1.5299470     0.0903790
  C        0.0817250     0.2107030     0.0159890
  C        2.4321120    -0.4845251    -0.0323778
  C       -1.3460660    -0.1139160     0.0206840
  C        1.0420520    -0.8182650    -0.0594370
  C        2.7641530     0.8636850     0.0360660
  C       -2.0477590    -1.2949740     0.1722820
  C        3.4684270    -1.5756500    -0.0824610
  C        1.7493340     1.8260270     0.0926910
  C       -3.4286880    -0.9658200     0.0768380
  C       -3.4828100     0.3886030    -0.1245500
  H        0.7225460    -1.8551450    -0.1446860
  H        3.8080070     1.1710760     0.0438400
  H       -1.6259220    -2.2752860     0.3500510
  H        3.8398640    -1.7937090     0.9244500
  H        3.0687740    -2.5034170    -0.5007000
  H        4.3228250    -1.2652800    -0.6906580
  H        1.9977040     2.8869120     0.1452960
  H       -4.2730300    -1.6376780     0.1527080
  H       -4.2894270     1.0948070    -0.2563320
units angstrom
no_reorient  #important for SAPT in psi4, default
symmetry c1  #important for SAPT in psi4, default
}

set PROPERTIES_ORIGIN ["COM"]
properties('MP2/aug-cc-pvtz', properties = ['dipole'])
--------------------------------------------------------------------------

    Molecular point group: c1
  Charge       = 0
  Multiplicity = 1
  Basis Set: AUG-CC-PVTZ
    Blend: AUG-CC-PVTZ
  Basis Set: (AUG-CC-PVTZ AUX)
    Blend: AUG-CC-PVTZ-JKFIT

    Orbital Energies [Eh]
    ---------------------

    Doubly Occupied:

       1A    -20.621502     2A    -15.563978     3A    -11.296827
       4A    -11.293502     5A    -11.292637     6A    -11.280084
       7A    -11.272081     8A    -11.244126     9A    -11.239648
      10A    -11.238246    11A    -11.237071    12A    -11.233467
      13A     -1.453518    14A     -1.244327    15A     -1.104721
      16A     -1.087498    17A     -1.057527    18A     -0.984512
      19A     -0.967663    20A     -0.862778    21A     -0.836983
      22A     -0.800219    23A     -0.764265    24A     -0.727087
      25A     -0.673449    26A     -0.669055    27A     -0.639950
      28A     -0.633258    29A     -0.599432    30A     -0.590882
      31A     -0.578517    32A     -0.565972    33A     -0.559361
      34A     -0.546526    35A     -0.541186    36A     -0.525399
      37A     -0.509455    38A     -0.417959    39A     -0.402324
      40A     -0.377792    41A     -0.360441    42A     -0.287783

  @DF-RHF Final Energy:  -513.37633394910165

   => Energetics <=

    Nuclear Repulsion Energy =            628.8624927287272612
    One-Electron Energy =               -1944.1116331321043162
    Two-Electron Energy =                 801.8728064542755192
    Total Energy =                       -513.3763339491016495
  Basis Set: (AUG-CC-PVTZ AUX)
    Blend: AUG-CC-PVTZ-RI
    Molecular point group: c1

    Geometry (in Angstrom), charge = 0, multiplicity = 1:

       Center              X                  Y                   Z               Mass
    ------------   -----------------  -----------------  -----------------  -----------------
         O           -2.180335631939     0.879208935634    -0.161644591593    15.994914619570
         N            0.467013368061     1.490168935634     0.089729408407    14.003074004430
         C            0.127547368061     0.170924935634     0.015339408407    12.000000000000
         C            2.477934368061    -0.524303164366    -0.033027391593    12.000000000000
         C           -1.300243631939    -0.153694064366     0.020034408407    12.000000000000
         C            1.087874368061    -0.858043064366    -0.060086591593    12.000000000000
         C            2.809975368061     0.823906935634     0.035416408407    12.000000000000
         C           -2.001936631939    -1.334752064366     0.171632408407    12.000000000000
         C            3.514249368061    -1.615428064366    -0.083110591593    12.000000000000
         C            1.795156368061     1.786248935634     0.092041408407    12.000000000000
         C           -3.382865631939    -1.005598064366     0.076188408407    12.000000000000
         C           -3.436987631939     0.348824935634    -0.125199591593    12.000000000000
         H            0.768368368061    -1.894923064366    -0.145335591593     1.007825032230
         H            3.853829368061     1.131297935634     0.043190408407     1.007825032230
         H           -1.580099631939    -2.315064064366     0.349401408407     1.007825032230
         H            3.885686368061    -1.833487064366     0.923800408407     1.007825032230
         H            3.114596368061    -2.543195064366    -0.501349591593     1.007825032230
         H            4.368647368061    -1.305058064366    -0.691307591593     1.007825032230
         H            2.043526368061     2.847133935634     0.144646408407     1.007825032230
         H           -4.227207631939    -1.677456064366     0.152058408407     1.007825032230
         H           -4.243604631939     1.055028935634    -0.256981591593     1.007825032230

  Basis Set: AUG-CC-PVTZ
    Blend: AUG-CC-PVTZ
  Basis Set: (AUG-CC-PVTZ AUX)
    Blend: AUG-CC-PVTZ-JKFIT
	 Reference Energy          =    -513.3763339491016495 [Eh]
	 Singles Energy            =      -0.0000000000000000 [Eh]
	 Same-Spin Energy          =      -0.5590953700402094 [Eh]
	 Opposite-Spin Energy      =      -1.7136733250866205 [Eh]
	 Correlation Energy        =      -2.2727686951268300 [Eh]
	 Total Energy              =    -515.6491026442284920 [Eh]

	 ================> DF-SCS-MP2 Energies <==================
	-----------------------------------------------------------
	 SCS Same-Spin Scale       =       0.3333333333333333 [-]
	 SCS Opposite-Spin Scale   =       1.2000000000000000 [-]
	 SCS Same-Spin Energy      =      -0.1863651233467364 [Eh]
	 SCS Opposite-Spin Energy  =      -2.0564079901039447 [Eh]
	 SCS Correlation Energy    =      -2.2427731134506810 [Eh]
	 SCS Total Energy          =    -515.6191070625523025 [Eh]
	-----------------------------------------------------------

  Dipole Moment: [D]
     X:     1.5068      Y:    -2.3674      Z:    -0.0088     Total:     2.8062

*** Psi4 exiting successfully. Buy a developer a beer!
