                               Psi4 1.4a3.dev225

  ==> Input File <==

--------------------------------------------------------------------------
#psi4
#
memory 32 gb

molecule  {
0 1
  O       -2.2261580     0.9189870    -0.1609950
  N        0.4211910     1.5299470     0.0903790
  C        0.0817250     0.2107030     0.0159890
  C        2.4145630    -0.5010270    -0.0428790
  C       -1.1510440    -0.0695763     0.0200427
  C        1.0420520    -0.8182650    -0.0594370
  C        2.7641530     0.8636850     0.0360660
  C       -2.0477590    -1.2949740     0.1722820
  C        3.4684270    -1.5756500    -0.0824610
  C        1.7493340     1.8260270     0.0926910
  C       -3.4286880    -0.9658200     0.0768380
  C       -3.4828100     0.3886030    -0.1245500
  H        0.7225460    -1.8551450    -0.1446860
  H        3.8080070     1.1710760     0.0438400
  H       -1.6259220    -2.2752860     0.3500510
  H        3.8398640    -1.7937090     0.9244500
  H        3.0687740    -2.5034170    -0.5007000
  H        4.3228250    -1.2652800    -0.6906580
  H        1.9977040     2.8869120     0.1452960
  H       -4.2730300    -1.6376780     0.1527080
  H       -4.2894270     1.0948070    -0.2563320
units angstrom
no_reorient  #important for SAPT in psi4, default
symmetry c1  #important for SAPT in psi4, default
}

set PROPERTIES_ORIGIN ["COM"]
properties('MP2/aug-cc-pvtz', properties = ['dipole'])
--------------------------------------------------------------------------

    Molecular point group: c1
  Charge       = 0
  Multiplicity = 1
  Basis Set: AUG-CC-PVTZ
    Blend: AUG-CC-PVTZ
  Basis Set: (AUG-CC-PVTZ AUX)
    Blend: AUG-CC-PVTZ-JKFIT

    Orbital Energies [Eh]
    ---------------------

    Doubly Occupied:

       1A    -20.613542     2A    -15.556466     3A    -11.311847
       4A    -11.299310     5A    -11.275553     6A    -11.274281
       7A    -11.272091     8A    -11.268786     9A    -11.241084
      10A    -11.239294    11A    -11.237021    12A    -11.232400
      13A     -1.417253    14A     -1.249549    15A     -1.102990
      16A     -1.092907    17A     -1.070971    18A     -0.974503
      19A     -0.963947    20A     -0.887843    21A     -0.841572
      22A     -0.785850    23A     -0.756169    24A     -0.727636
      25A     -0.672136    26A     -0.670420    27A     -0.655090
      28A     -0.616839    29A     -0.605305    30A     -0.587672
      31A     -0.574354    32A     -0.569733    33A     -0.556171
      34A     -0.544865    35A     -0.530477    36A     -0.513570
      37A     -0.504771    38A     -0.414311    39A     -0.402361
      40A     -0.388703    41A     -0.362027    42A     -0.262342

  @DF-RHF Final Energy:  -513.30005746813674

   => Energetics <=

    Nuclear Repulsion Energy =            629.2390425258149662
    One-Electron Energy =               -1944.8301717766496495
    Two-Electron Energy =                 802.2910717826979408
    Total Energy =                       -513.3000574681367425
  Basis Set: (AUG-CC-PVTZ AUX)
    Blend: AUG-CC-PVTZ-RI
    Molecular point group: c1

    Geometry (in Angstrom), charge = 0, multiplicity = 1:

       Center              X                  Y                   Z               Mass
    ------------   -----------------  -----------------  -----------------  -----------------
         O           -2.193724059896     0.877108873203    -0.160804009880    15.994914619570
         N            0.453624940104     1.488068873203     0.090569990120    14.003074004430
         C            0.114158940104     0.168824873203     0.016179990120    12.000000000000
         C            2.446996940104    -0.542905126797    -0.042688009880    12.000000000000
         C           -1.118610059896    -0.111454426797     0.020233690120    12.000000000000
         C            1.074485940104    -0.860143126797    -0.059246009880    12.000000000000
         C            2.796586940104     0.821806873203     0.036256990120    12.000000000000
         C           -2.015325059896    -1.336852126797     0.172472990120    12.000000000000
         C            3.500860940104    -1.617528126797    -0.082270009880    12.000000000000
         C            1.781767940104     1.784148873203     0.092881990120    12.000000000000
         C           -3.396254059896    -1.007698126797     0.077028990120    12.000000000000
         C           -3.450376059896     0.346724873203    -0.124359009880    12.000000000000
         H            0.754979940104    -1.897023126797    -0.144495009880     1.007825032230
         H            3.840440940104     1.129197873203     0.044030990120     1.007825032230
         H           -1.593488059896    -2.317164126797     0.350241990120     1.007825032230
         H            3.872297940104    -1.835587126797     0.924640990120     1.007825032230
         H            3.101207940104    -2.545295126797    -0.500509009880     1.007825032230
         H            4.355258940104    -1.307158126797    -0.690467009880     1.007825032230
         H            2.030137940104     2.845033873203     0.145486990120     1.007825032230
         H           -4.240596059896    -1.679556126797     0.152898990120     1.007825032230
         H           -4.256993059896     1.052928873203    -0.256141009880     1.007825032230

  Basis Set: AUG-CC-PVTZ
    Blend: AUG-CC-PVTZ
  Basis Set: (AUG-CC-PVTZ AUX)
    Blend: AUG-CC-PVTZ-JKFIT
	 Reference Energy          =    -513.3000574681367425 [Eh]
	 Singles Energy            =      -0.0000000000000000 [Eh]
	 Same-Spin Energy          =      -0.5659459418030518 [Eh]
	 Opposite-Spin Energy      =      -1.7252378735944627 [Eh]
	 Correlation Energy        =      -2.2911838153975146 [Eh]
	 Total Energy              =    -515.5912412835342593 [Eh]

	 ================> DF-SCS-MP2 Energies <==================
	-----------------------------------------------------------
	 SCS Same-Spin Scale       =       0.3333333333333333 [-]
	 SCS Opposite-Spin Scale   =       1.2000000000000000 [-]
	 SCS Same-Spin Energy      =      -0.1886486472676839 [Eh]
	 SCS Opposite-Spin Energy  =      -2.0702854483133550 [Eh]
	 SCS Correlation Energy    =      -2.2589340955810391 [Eh]
	 SCS Total Energy          =    -515.5589915637177683 [Eh]
	-----------------------------------------------------------

  Dipole Moment: [D]
     X:     1.5434      Y:    -2.3218      Z:    -0.0120     Total:     2.7881

*** Psi4 exiting successfully. Buy a developer a beer!
