                               Psi4 1.4a3.dev225

  ==> Input File <==

--------------------------------------------------------------------------
#psi4
#
memory 32 gb

molecule  {
0 1
  O       -2.2261580     0.9189870    -0.1609950
  N        0.4211910     1.5299470     0.0903790
  C        0.0817250     0.2107030     0.0159890
  C        2.4145630    -0.5010270    -0.0428790
  C       -1.3460660    -0.1139160     0.0206840
  C        1.0420520    -0.8182650    -0.0594370
  C        2.7641530     0.8636850     0.0360660
  C       -2.0477590    -1.2949740     0.1722820
  C        3.4684270    -1.5756500    -0.0824610
  C        1.7493340     1.8260270     0.0926910
  C       -3.4286880    -0.9658200     0.0768380
  C       -3.4828100     0.3886030    -0.1245500
  H        0.7225460    -1.8551450    -0.1446860
  H        3.8080070     1.1710760     0.0438400
  H       -1.6259220    -2.2752860     0.3500510
  H        3.8398640    -1.7937090     0.9244500
  H        3.0687740    -2.5034170    -0.5007000
  H        4.3228250    -1.2652800    -0.6906580
  H        1.9977040     2.8869120     0.1452960
  H       -4.2730300    -1.6376780     0.1527080
  H       -4.2894270     1.0948070    -0.2563320
units angstrom
no_reorient  #important for SAPT in psi4, default
symmetry c1  #important for SAPT in psi4, default
}

set PROPERTIES_ORIGIN ["COM"]
properties('MP2/aug-cc-pvtz', properties = ['dipole'])
--------------------------------------------------------------------------

    Molecular point group: c1
  Charge       = 0
  Multiplicity = 1
  Basis Set: AUG-CC-PVTZ
    Blend: AUG-CC-PVTZ
  Basis Set: (AUG-CC-PVTZ AUX)
    Blend: AUG-CC-PVTZ-JKFIT

    Orbital Energies [Eh]
    ---------------------

    Doubly Occupied:

       1A    -20.621906     2A    -15.563729     3A    -11.297296
       4A    -11.294456     5A    -11.293269     6A    -11.278744
       7A    -11.271862     8A    -11.242529     9A    -11.239496
      10A    -11.238971    11A    -11.238486    12A    -11.233899
      13A     -1.453944    14A     -1.244191    15A     -1.104295
      16A     -1.087852    17A     -1.057795    18A     -0.984336
      19A     -0.968109    20A     -0.863159    21A     -0.836172
      22A     -0.800320    23A     -0.764888    24A     -0.727752
      25A     -0.673175    26A     -0.668691    27A     -0.639704
      28A     -0.633659    29A     -0.599675    30A     -0.590622
      31A     -0.578868    32A     -0.566211    33A     -0.558977
      34A     -0.547567    35A     -0.540670    36A     -0.525383
      37A     -0.509841    38A     -0.417672    39A     -0.402489
      40A     -0.375967    41A     -0.362532    42A     -0.287942

  @DF-RHF Final Energy:  -513.37721684890801

   => Energetics <=

    Nuclear Repulsion Energy =            628.9316602452250891
    One-Electron Energy =               -1944.2435482023659006
    Two-Electron Energy =                 801.9346711082326919
    Total Energy =                       -513.3772168489080059
  Basis Set: (AUG-CC-PVTZ AUX)
    Blend: AUG-CC-PVTZ-RI
    Molecular point group: c1

    Geometry (in Angstrom), charge = 0, multiplicity = 1:

       Center              X                  Y                   Z               Mass
    ------------   -----------------  -----------------  -----------------  -----------------
         O           -2.179011748744     0.880453826402    -0.160852389063    15.994914619570
         N            0.468337251256     1.491413826402     0.090521610937    14.003074004430
         C            0.128871251256     0.172169826402     0.016131610937    12.000000000000
         C            2.461709251256    -0.539560173598    -0.042736389063    12.000000000000
         C           -1.298919748744    -0.152449173598     0.020826610937    12.000000000000
         C            1.089198251256    -0.856798173598    -0.059294389063    12.000000000000
         C            2.811299251256     0.825151826402     0.036208610937    12.000000000000
         C           -2.000612748744    -1.333507173598     0.172424610937    12.000000000000
         C            3.515573251256    -1.614183173598    -0.082318389063    12.000000000000
         C            1.796480251256     1.787493826402     0.092833610937    12.000000000000
         C           -3.381541748744    -1.004353173598     0.076980610937    12.000000000000
         C           -3.435663748744     0.350069826402    -0.124407389063    12.000000000000
         H            0.769692251256    -1.893678173598    -0.144543389063     1.007825032230
         H            3.855153251256     1.132542826402     0.043982610937     1.007825032230
         H           -1.578775748744    -2.313819173598     0.350193610937     1.007825032230
         H            3.887010251256    -1.832242173598     0.924592610937     1.007825032230
         H            3.115920251256    -2.541950173598    -0.500557389063     1.007825032230
         H            4.369971251256    -1.303813173598    -0.690515389063     1.007825032230
         H            2.044850251256     2.848378826402     0.145438610937     1.007825032230
         H           -4.225883748744    -1.676211173598     0.152850610937     1.007825032230
         H           -4.242280748744     1.056273826402    -0.256189389063     1.007825032230

  Basis Set: AUG-CC-PVTZ
    Blend: AUG-CC-PVTZ
  Basis Set: (AUG-CC-PVTZ AUX)
    Blend: AUG-CC-PVTZ-JKFIT
	 Reference Energy          =    -513.3772168489080059 [Eh]
	 Singles Energy            =      -0.0000000000000000 [Eh]
	 Same-Spin Energy          =      -0.5590732514062364 [Eh]
	 Opposite-Spin Energy      =      -1.7136209620695393 [Eh]
	 Correlation Energy        =      -2.2726942134757757 [Eh]
	 Total Energy              =    -515.6499110623838078 [Eh]

	 ================> DF-SCS-MP2 Energies <==================
	-----------------------------------------------------------
	 SCS Same-Spin Scale       =       0.3333333333333333 [-]
	 SCS Opposite-Spin Scale   =       1.2000000000000000 [-]
	 SCS Same-Spin Energy      =      -0.1863577504687455 [Eh]
	 SCS Opposite-Spin Energy  =      -2.0563451544834472 [Eh]
	 SCS Correlation Energy    =      -2.2427029049521927 [Eh]
	 SCS Total Energy          =    -515.6199197538602448 [Eh]
	-----------------------------------------------------------

  Dipole Moment: [D]
     X:     1.4834      Y:    -2.3724      Z:    -0.0047     Total:     2.7980

*** Psi4 exiting successfully. Buy a developer a beer!
