                               Psi4 1.4a3.dev225

  ==> Input File <==

--------------------------------------------------------------------------
#psi4
#
memory 32 gb

molecule  {
0 1
  O       -2.2261580     0.9189870    -0.1609950
  N        0.4211910     1.5299470     0.0903790
  C        0.0817250     0.2107030     0.0159890
  C        2.4145630    -0.5010270    -0.0428790
  C       -1.3460660    -0.1139160     0.0206840
  C        1.0420520    -0.8182650    -0.0594370
  C        2.7641530     0.8636850     0.0360660
  C       -2.0477590    -1.2949740     0.1722820
  C        3.4544283    -1.5613756    -0.0819352
  C        1.7493340     1.8260270     0.0926910
  C       -3.4286880    -0.9658200     0.0768380
  C       -3.4828100     0.3886030    -0.1245500
  H        0.7225460    -1.8551450    -0.1446860
  H        3.8080070     1.1710760     0.0438400
  H       -1.6259220    -2.2752860     0.3500510
  H        3.8398640    -1.7937090     0.9244500
  H        3.0687740    -2.5034170    -0.5007000
  H        4.3228250    -1.2652800    -0.6906580
  H        1.9977040     2.8869120     0.1452960
  H       -4.2730300    -1.6376780     0.1527080
  H       -4.2894270     1.0948070    -0.2563320
units angstrom
no_reorient  #important for SAPT in psi4, default
symmetry c1  #important for SAPT in psi4, default
}

set PROPERTIES_ORIGIN ["COM"]
properties('MP2/aug-cc-pvtz', properties = ['dipole'])
--------------------------------------------------------------------------

    Molecular point group: c1
  Charge       = 0
  Multiplicity = 1
  Basis Set: AUG-CC-PVTZ
    Blend: AUG-CC-PVTZ
  Basis Set: (AUG-CC-PVTZ AUX)
    Blend: AUG-CC-PVTZ-JKFIT

    Orbital Energies [Eh]
    ---------------------

    Doubly Occupied:

       1A    -20.621935     2A    -15.563743     3A    -11.297322
       4A    -11.294496     5A    -11.293304     6A    -11.278775
       7A    -11.271020     8A    -11.242540     9A    -11.240111
      10A    -11.239012    11A    -11.238483    12A    -11.233926
      13A     -1.453973    14A     -1.244298    15A     -1.106638
      16A     -1.087936    17A     -1.057853    18A     -0.984455
      19A     -0.968188    20A     -0.863394    21A     -0.835798
      22A     -0.800404    23A     -0.764993    24A     -0.728183
      25A     -0.673399    26A     -0.669165    27A     -0.640508
      28A     -0.633764    29A     -0.599531    30A     -0.588730
      31A     -0.578861    32A     -0.566347    33A     -0.556780
      34A     -0.551912    35A     -0.540694    36A     -0.524565
      37A     -0.508670    38A     -0.417940    39A     -0.402508
      40A     -0.375733    41A     -0.362179    42A     -0.287995

  @DF-RHF Final Energy:  -513.37655874531151

   => Energetics <=

    Nuclear Repulsion Energy =            629.2850513544570958
    One-Electron Energy =               -1944.9430937418569556
    Two-Electron Energy =                 802.2814836420882330
    Total Energy =                       -513.3765587453115131
  Basis Set: (AUG-CC-PVTZ AUX)
    Blend: AUG-CC-PVTZ-RI
    Molecular point group: c1

    Geometry (in Angstrom), charge = 0, multiplicity = 1:

       Center              X                  Y                   Z               Mass
    ------------   -----------------  -----------------  -----------------  -----------------
         O           -2.177955697477     0.879376976538    -0.160892055015    15.994914619570
         N            0.469393302523     1.490336976538     0.090481944985    14.003074004430
         C            0.129927302523     0.171092976538     0.016091944985    12.000000000000
         C            2.462765302523    -0.540637023462    -0.042776055015    12.000000000000
         C           -1.297863697477    -0.153526023462     0.020786944985    12.000000000000
         C            1.090254302523    -0.857875023462    -0.059334055015    12.000000000000
         C            2.812355302523     0.824074976538     0.036168944985    12.000000000000
         C           -1.999556697477    -1.334584023462     0.172384944985    12.000000000000
         C            3.502630602523    -1.600985623462    -0.081832255015    12.000000000000
         C            1.797536302523     1.786416976538     0.092793944985    12.000000000000
         C           -3.380485697477    -1.005430023462     0.076940944985    12.000000000000
         C           -3.434607697477     0.348992976538    -0.124447055015    12.000000000000
         H            0.770748302523    -1.894755023462    -0.144583055015     1.007825032230
         H            3.856209302523     1.131465976538     0.043942944985     1.007825032230
         H           -1.577719697477    -2.314896023462     0.350153944985     1.007825032230
         H            3.888066302523    -1.833319023462     0.924552944985     1.007825032230
         H            3.116976302523    -2.543027023462    -0.500597055015     1.007825032230
         H            4.371027302523    -1.304890023462    -0.690555055015     1.007825032230
         H            2.045906302523     2.847301976538     0.145398944985     1.007825032230
         H           -4.224827697477    -1.677288023462     0.152810944985     1.007825032230
         H           -4.241224697477     1.055196976538    -0.256229055015     1.007825032230

  Basis Set: AUG-CC-PVTZ
    Blend: AUG-CC-PVTZ
  Basis Set: (AUG-CC-PVTZ AUX)
    Blend: AUG-CC-PVTZ-JKFIT
	 Reference Energy          =    -513.3765587453115131 [Eh]
	 Singles Energy            =      -0.0000000000000000 [Eh]
	 Same-Spin Energy          =      -0.5592612315504812 [Eh]
	 Opposite-Spin Energy      =      -1.7138019827155928 [Eh]
	 Correlation Energy        =      -2.2730632142660738 [Eh]
	 Total Energy              =    -515.6496219595776438 [Eh]

	 ================> DF-SCS-MP2 Energies <==================
	-----------------------------------------------------------
	 SCS Same-Spin Scale       =       0.3333333333333333 [-]
	 SCS Opposite-Spin Scale   =       1.2000000000000000 [-]
	 SCS Same-Spin Energy      =      -0.1864204105168271 [Eh]
	 SCS Opposite-Spin Energy  =      -2.0565623792587111 [Eh]
	 SCS Correlation Energy    =      -2.2429827897755383 [Eh]
	 SCS Total Energy          =    -515.6195415350870235 [Eh]
	-----------------------------------------------------------

  Dipole Moment: [D]
     X:     1.4863      Y:    -2.3759      Z:    -0.0036     Total:     2.8025

*** Psi4 exiting successfully. Buy a developer a beer!
