                               Psi4 1.4a3.dev225

  ==> Input File <==

--------------------------------------------------------------------------
#psi4
#
memory 32 gb

molecule  {
0 1
  O       -2.2261580     0.9189870    -0.1609950
  N        0.4211910     1.5299470     0.0903790
  C        0.0817250     0.2107030     0.0159890
  C        2.4145630    -0.5010270    -0.0428790
  C       -1.3460660    -0.1139160     0.0206840
  C        1.0420520    -0.8182650    -0.0594370
  C        2.8137055     1.0571258     0.0472560
  C       -2.0477590    -1.2949740     0.1722820
  C        3.4684270    -1.5756500    -0.0824610
  C        1.7493340     1.8260270     0.0926910
  C       -3.4286880    -0.9658200     0.0768380
  C       -3.4828100     0.3886030    -0.1245500
  H        0.7225460    -1.8551450    -0.1446860
  H        3.8080070     1.1710760     0.0438400
  H       -1.6259220    -2.2752860     0.3500510
  H        3.8398640    -1.7937090     0.9244500
  H        3.0687740    -2.5034170    -0.5007000
  H        4.3228250    -1.2652800    -0.6906580
  H        1.9977040     2.8869120     0.1452960
  H       -4.2730300    -1.6376780     0.1527080
  H       -4.2894270     1.0948070    -0.2563320
units angstrom
no_reorient  #important for SAPT in psi4, default
symmetry c1  #important for SAPT in psi4, default
}

set PROPERTIES_ORIGIN ["COM"]
properties('MP2/aug-cc-pvtz', properties = ['dipole'])
--------------------------------------------------------------------------

    Molecular point group: c1
  Charge       = 0
  Multiplicity = 1
  Basis Set: AUG-CC-PVTZ
    Blend: AUG-CC-PVTZ
  Basis Set: (AUG-CC-PVTZ AUX)
    Blend: AUG-CC-PVTZ-JKFIT

    Orbital Energies [Eh]
    ---------------------

    Doubly Occupied:

       1A    -20.624274     2A    -15.557865     3A    -11.300325
       4A    -11.299050     5A    -11.297475     6A    -11.288237
       7A    -11.262335     8A    -11.244002     9A    -11.241946
      10A    -11.241174    11A    -11.236966    12A    -11.236559
      13A     -1.456365    14A     -1.239527    15A     -1.092834
      16A     -1.084364    17A     -1.064485    18A     -0.995791
      19A     -0.969314    20A     -0.865890    21A     -0.826040
      22A     -0.799001    23A     -0.767370    24A     -0.728357
      25A     -0.696460    26A     -0.663239    27A     -0.639599
      28A     -0.635965    29A     -0.602530    30A     -0.589162
      31A     -0.587217    32A     -0.569743    33A     -0.565378
      34A     -0.547204    35A     -0.538111    36A     -0.524294
      37A     -0.472211    38A     -0.416382    39A     -0.405671
      40A     -0.380215    41A     -0.351428    42A     -0.294435

  @DF-RHF Final Energy:  -513.33605963658908

   => Energetics <=

    Nuclear Repulsion Energy =            626.7138596006661828
    One-Electron Energy =               -1939.7022586943298847
    Two-Electron Energy =                 799.6523394570746177
    Total Energy =                       -513.3360596365890842
  Basis Set: (AUG-CC-PVTZ AUX)
    Blend: AUG-CC-PVTZ-RI
    Molecular point group: c1

    Geometry (in Angstrom), charge = 0, multiplicity = 1:

       Center              X                  Y                   Z               Mass
    ------------   -----------------  -----------------  -----------------  -----------------
         O           -2.182749951605     0.865860799774    -0.161696554141    15.994914619570
         N            0.464599048395     1.476820799774     0.089677445859    14.003074004430
         C            0.125133048395     0.157576799774     0.015287445859    12.000000000000
         C            2.457971048395    -0.554153200226    -0.043580554141    12.000000000000
         C           -1.302657951605    -0.167042200226     0.019982445859    12.000000000000
         C            1.085460048395    -0.871391200226    -0.060138554141    12.000000000000
         C            2.857113548395     1.003999599774     0.046554445859    12.000000000000
         C           -2.004350951605    -1.348100200226     0.171580445859    12.000000000000
         C            3.511835048395    -1.628776200226    -0.083162554141    12.000000000000
         C            1.792742048395     1.772900799774     0.091989445859    12.000000000000
         C           -3.385279951605    -1.018946200226     0.076136445859    12.000000000000
         C           -3.439401951605     0.335476799774    -0.125251554141    12.000000000000
         H            0.765954048395    -1.908271200226    -0.145387554141     1.007825032230
         H            3.851415048395     1.117949799774     0.043138445859     1.007825032230
         H           -1.582513951605    -2.328412200226     0.349349445859     1.007825032230
         H            3.883272048395    -1.846835200226     0.923748445859     1.007825032230
         H            3.112182048395    -2.556543200226    -0.501401554141     1.007825032230
         H            4.366233048395    -1.318406200226    -0.691359554141     1.007825032230
         H            2.041112048395     2.833785799774     0.144594445859     1.007825032230
         H           -4.229621951605    -1.690804200226     0.152006445859     1.007825032230
         H           -4.246018951605     1.041680799774    -0.257033554141     1.007825032230

  Basis Set: AUG-CC-PVTZ
    Blend: AUG-CC-PVTZ
  Basis Set: (AUG-CC-PVTZ AUX)
    Blend: AUG-CC-PVTZ-JKFIT
	 Reference Energy          =    -513.3360596365890842 [Eh]
	 Singles Energy            =      -0.0000000000000000 [Eh]
	 Same-Spin Energy          =      -0.5579345958051892 [Eh]
	 Opposite-Spin Energy      =      -1.7147566110822661 [Eh]
	 Correlation Energy        =      -2.2726912068874552 [Eh]
	 Total Energy              =    -515.6087508434765141 [Eh]

	 ================> DF-SCS-MP2 Energies <==================
	-----------------------------------------------------------
	 SCS Same-Spin Scale       =       0.3333333333333333 [-]
	 SCS Opposite-Spin Scale   =       1.2000000000000000 [-]
	 SCS Same-Spin Energy      =      -0.1859781986017297 [Eh]
	 SCS Opposite-Spin Energy  =      -2.0577079332987194 [Eh]
	 SCS Correlation Energy    =      -2.2436861319004491 [Eh]
	 SCS Total Energy          =    -515.5797457684894880 [Eh]
	-----------------------------------------------------------

  Dipole Moment: [D]
     X:     1.3558      Y:    -2.5747      Z:    -0.0092     Total:     2.9099

*** Psi4 exiting successfully. Buy a developer a beer!
