                               Psi4 1.4a3.dev225

  ==> Input File <==

--------------------------------------------------------------------------
#psi4
#
memory 32 gb

molecule  {
0 1
  O       -2.2261580     0.9189870    -0.1609950
  N        0.4211910     1.5299470     0.0903790
  C        0.0817250     0.2107030     0.0159890
  C        2.4145630    -0.5010270    -0.0428790
  C       -1.3460660    -0.1139160     0.0206840
  C        1.0420520    -0.8182650    -0.0594370
  C        2.7641530     0.8636850     0.0360660
  C       -2.0477590    -1.2949740     0.1722820
  C        3.4684270    -1.5756500    -0.0824610
  C        1.7493340     1.8260270     0.0926910
  C       -3.4286880    -0.9658200     0.0768380
  C       -3.4828100     0.3886030    -0.1245500
  H        0.7225460    -1.8551450    -0.1446860
  H        3.8080070     1.1710760     0.0438400
  H       -1.6259220    -2.2752860     0.3500510
  H        3.8398640    -1.7937090     0.9244500
  H        3.0687740    -2.5034170    -0.5007000
  H        4.3228250    -1.2652800    -0.6906580
  H        1.9977040     2.8869120     0.1452960
  H       -4.2730300    -1.6376780     0.1527080
  H       -4.3043623     1.1078830    -0.2587721
units angstrom
no_reorient  #important for SAPT in psi4, default
symmetry c1  #important for SAPT in psi4, default
}

set PROPERTIES_ORIGIN ["COM"]
properties('MP2/aug-cc-pvtz', properties = ['dipole'])
--------------------------------------------------------------------------

    Molecular point group: c1
  Charge       = 0
  Multiplicity = 1
  Basis Set: AUG-CC-PVTZ
    Blend: AUG-CC-PVTZ
  Basis Set: (AUG-CC-PVTZ AUX)
    Blend: AUG-CC-PVTZ-JKFIT

    Orbital Energies [Eh]
    ---------------------

    Doubly Occupied:

       1A    -20.622070     2A    -15.563733     3A    -11.297332
       4A    -11.295440     5A    -11.294482     6A    -11.278750
       7A    -11.271870     8A    -11.242538     9A    -11.239501
      10A    -11.239062    11A    -11.238488    12A    -11.233990
      13A     -1.454057    14A     -1.244198    15A     -1.104300
      16A     -1.087942    17A     -1.057642    18A     -0.983753
      19A     -0.968033    20A     -0.862871    21A     -0.835674
      22A     -0.799813    23A     -0.764695    24A     -0.726280
      25A     -0.672929    26A     -0.668372    27A     -0.638923
      28A     -0.633727    29A     -0.598923    30A     -0.590628
      31A     -0.578564    32A     -0.566190    33A     -0.558852
      34A     -0.547320    35A     -0.540092    36A     -0.525380
      37A     -0.509852    38A     -0.417679    39A     -0.402569
      40A     -0.375990    41A     -0.362544    42A     -0.287947

  @DF-RHF Final Energy:  -513.37654637699097

   => Energetics <=

    Nuclear Repulsion Energy =            628.8262820059841260
    One-Electron Energy =               -1944.0396681373918000
    Two-Electron Energy =                 801.8368397544168147
    Total Energy =                       -513.3765463769909729
  Basis Set: (AUG-CC-PVTZ AUX)
    Blend: AUG-CC-PVTZ-RI
    Molecular point group: c1

    Geometry (in Angstrom), charge = 0, multiplicity = 1:

       Center              X                  Y                   Z               Mass
    ------------   -----------------  -----------------  -----------------  -----------------
         O           -2.178917121729     0.880370979533    -0.160836929087    15.994914619570
         N            0.468431878271     1.491330979533     0.090537070913    14.003074004430
         C            0.128965878271     0.172086979533     0.016147070913    12.000000000000
         C            2.461803878271    -0.539643020467    -0.042720929087    12.000000000000
         C           -1.298825121729    -0.152532020467     0.020842070913    12.000000000000
         C            1.089292878271    -0.856881020467    -0.059278929087    12.000000000000
         C            2.811393878271     0.825068979533     0.036224070913    12.000000000000
         C           -2.000518121729    -1.333590020467     0.172440070913    12.000000000000
         C            3.515667878271    -1.614266020467    -0.082302929087    12.000000000000
         C            1.796574878271     1.787410979533     0.092849070913    12.000000000000
         C           -3.381447121729    -1.004436020467     0.076996070913    12.000000000000
         C           -3.435569121729     0.349986979533    -0.124391929087    12.000000000000
         H            0.769786878271    -1.893761020467    -0.144527929087     1.007825032230
         H            3.855247878271     1.132459979533     0.043998070913     1.007825032230
         H           -1.578681121729    -2.313902020467     0.350209070913     1.007825032230
         H            3.887104878271    -1.832325020467     0.924608070913     1.007825032230
         H            3.116014878271    -2.542033020467    -0.500541929087     1.007825032230
         H            4.370065878271    -1.303896020467    -0.690499929087     1.007825032230
         H            2.044944878271     2.848295979533     0.145454070913     1.007825032230
         H           -4.225789121729    -1.676294020467     0.152866070913     1.007825032230
         H           -4.257121421729     1.069266979533    -0.258614029087     1.007825032230

  Basis Set: AUG-CC-PVTZ
    Blend: AUG-CC-PVTZ
  Basis Set: (AUG-CC-PVTZ AUX)
    Blend: AUG-CC-PVTZ-JKFIT
	 Reference Energy          =    -513.3765463769909729 [Eh]
	 Singles Energy            =      -0.0000000000000000 [Eh]
	 Same-Spin Energy          =      -0.5591196624357873 [Eh]
	 Opposite-Spin Energy      =      -1.7137881478235721 [Eh]
	 Correlation Energy        =      -2.2729078102593592 [Eh]
	 Total Energy              =    -515.6494541872502850 [Eh]

	 ================> DF-SCS-MP2 Energies <==================
	-----------------------------------------------------------
	 SCS Same-Spin Scale       =       0.3333333333333333 [-]
	 SCS Opposite-Spin Scale   =       1.2000000000000000 [-]
	 SCS Same-Spin Energy      =      -0.1863732208119291 [Eh]
	 SCS Opposite-Spin Energy  =      -2.0565457773882865 [Eh]
	 SCS Correlation Energy    =      -2.2429189982002153 [Eh]
	 SCS Total Energy          =    -515.6194653751912256 [Eh]
	-----------------------------------------------------------

  Dipole Moment: [D]
     X:     1.4828      Y:    -2.3701      Z:    -0.0050     Total:     2.7958

*** Psi4 exiting successfully. Buy a developer a beer!
