                               Psi4 1.4a3.dev225

  ==> Input File <==

--------------------------------------------------------------------------
#psi4
#
memory 32 gb

molecule  {
0 1
  O       -2.2261580     0.9189870    -0.1609950
  N        0.4211910     1.5299470     0.0903790
  C        0.0817250     0.2107030     0.0159890
  C        2.4145630    -0.5010270    -0.0428790
  C       -1.3049681    -0.1386689     0.0257442
  C        1.0420520    -0.8182650    -0.0594370
  C        2.7641530     0.8636850     0.0360660
  C       -2.0477590    -1.2949740     0.1722820
  C        3.4684270    -1.5756500    -0.0824610
  C        1.7493340     1.8260270     0.0926910
  C       -3.4286880    -0.9658200     0.0768380
  C       -3.4828100     0.3886030    -0.1245500
  H        0.7225460    -1.8551450    -0.1446860
  H        3.8080070     1.1710760     0.0438400
  H       -1.6259220    -2.2752860     0.3500510
  H        3.8398640    -1.7937090     0.9244500
  H        3.0687740    -2.5034170    -0.5007000
  H        4.3228250    -1.2652800    -0.6906580
  H        1.9977040     2.8869120     0.1452960
  H       -4.2730300    -1.6376780     0.1527080
  H       -4.2894270     1.0948070    -0.2563320
units angstrom
no_reorient  #important for SAPT in psi4, default
symmetry c1  #important for SAPT in psi4, default
}

set PROPERTIES_ORIGIN ["COM"]
properties('MP2/aug-cc-pvtz', properties = ['dipole'])
--------------------------------------------------------------------------

    Molecular point group: c1
  Charge       = 0
  Multiplicity = 1
  Basis Set: AUG-CC-PVTZ
    Blend: AUG-CC-PVTZ
  Basis Set: (AUG-CC-PVTZ AUX)
    Blend: AUG-CC-PVTZ-JKFIT

    Orbital Energies [Eh]
    ---------------------

    Doubly Occupied:

       1A    -20.615810     2A    -15.563616     3A    -11.296575
       4A    -11.296508     5A    -11.292705     6A    -11.278817
       7A    -11.271595     8A    -11.243965     9A    -11.242134
      10A    -11.239349    11A    -11.238195    12A    -11.233503
      13A     -1.436057    14A     -1.244899    15A     -1.104111
      16A     -1.088370    17A     -1.060583    18A     -0.982974
      19A     -0.967761    20A     -0.866887    21A     -0.838233
      22A     -0.795070    23A     -0.763199    24A     -0.726540
      25A     -0.673084    26A     -0.669448    27A     -0.639977
      28A     -0.624370    29A     -0.599056    30A     -0.590380
      31A     -0.579585    32A     -0.563381    33A     -0.559027
      34A     -0.546488    35A     -0.538530    36A     -0.526000
      37A     -0.512206    38A     -0.417269    39A     -0.404275
      40A     -0.377329    41A     -0.362845    42A     -0.286344

  @DF-RHF Final Energy:  -513.37233438895282

   => Energetics <=

    Nuclear Repulsion Energy =            628.7448877470096704
    One-Electron Energy =               -1943.9203425076075291
    Two-Electron Energy =                 801.8031203716450364
    Total Energy =                       -513.3723343889528223
  Basis Set: (AUG-CC-PVTZ AUX)
    Blend: AUG-CC-PVTZ-RI
    Molecular point group: c1

    Geometry (in Angstrom), charge = 0, multiplicity = 1:

       Center              X                  Y                   Z               Mass
    ------------   -----------------  -----------------  -----------------  -----------------
         O           -2.182112143020     0.882321166327    -0.161234126697    15.994914619570
         N            0.465236856980     1.493281166327     0.090139873303    14.003074004430
         C            0.125770856980     0.174037166327     0.015749873303    12.000000000000
         C            2.458608856980    -0.537692833673    -0.043118126697    12.000000000000
         C           -1.260922243020    -0.175334733673     0.025505073303    12.000000000000
         C            1.086097856980    -0.854930833673    -0.059676126697    12.000000000000
         C            2.808198856980     0.827019166327     0.035826873303    12.000000000000
         C           -2.003713143020    -1.331639833673     0.172042873303    12.000000000000
         C            3.512472856980    -1.612315833673    -0.082700126697    12.000000000000
         C            1.793379856980     1.789361166327     0.092451873303    12.000000000000
         C           -3.384642143020    -1.002485833673     0.076598873303    12.000000000000
         C           -3.438764143020     0.351937166327    -0.124789126697    12.000000000000
         H            0.766591856980    -1.891810833673    -0.144925126697     1.007825032230
         H            3.852052856980     1.134410166327     0.043600873303     1.007825032230
         H           -1.581876143020    -2.311951833673     0.349811873303     1.007825032230
         H            3.883909856980    -1.830374833673     0.924210873303     1.007825032230
         H            3.112819856980    -2.540082833673    -0.500939126697     1.007825032230
         H            4.366870856980    -1.301945833673    -0.690897126697     1.007825032230
         H            2.041749856980     2.850246166327     0.145056873303     1.007825032230
         H           -4.228984143020    -1.674343833673     0.152468873303     1.007825032230
         H           -4.245381143020     1.058141166327    -0.256571126697     1.007825032230

  Basis Set: AUG-CC-PVTZ
    Blend: AUG-CC-PVTZ
  Basis Set: (AUG-CC-PVTZ AUX)
    Blend: AUG-CC-PVTZ-JKFIT
	 Reference Energy          =    -513.3723343889528223 [Eh]
	 Singles Energy            =      -0.0000000000000000 [Eh]
	 Same-Spin Energy          =      -0.5597456979259013 [Eh]
	 Opposite-Spin Energy      =      -1.7151948807821249 [Eh]
	 Correlation Energy        =      -2.2749405787080264 [Eh]
	 Total Energy              =    -515.6472749676609055 [Eh]

	 ================> DF-SCS-MP2 Energies <==================
	-----------------------------------------------------------
	 SCS Same-Spin Scale       =       0.3333333333333333 [-]
	 SCS Opposite-Spin Scale   =       1.2000000000000000 [-]
	 SCS Same-Spin Energy      =      -0.1865818993086338 [Eh]
	 SCS Opposite-Spin Energy  =      -2.0582338569385499 [Eh]
	 SCS Correlation Energy    =      -2.2448157562471835 [Eh]
	 SCS Total Energy          =    -515.6171501451999575 [Eh]
	-----------------------------------------------------------

  Dipole Moment: [D]
     X:     1.5154      Y:    -2.4140      Z:     0.0042     Total:     2.8502

*** Psi4 exiting successfully. Buy a developer a beer!
