                               Psi4 1.4a3.dev225

  ==> Input File <==

--------------------------------------------------------------------------
#psi4
#
memory 32 gb

molecule  {
0 1
  O       -2.2261580     0.9189870    -0.1609950
  N        0.4211910     1.5299470     0.0903790
  C        0.0817250     0.2107030     0.0159890
  C        2.4145630    -0.5010270    -0.0428790
  C       -1.3460660    -0.1139160     0.0206840
  C        1.0420520    -0.8182650    -0.0594370
  C        2.7641530     0.8636850     0.0360660
  C       -2.0477590    -1.2949740     0.1722820
  C        3.4684270    -1.5756500    -0.0824610
  C        1.7493340     1.8260270     0.0926910
  C       -3.3801601    -0.9773870     0.0801920
  C       -3.4828100     0.3886030    -0.1245500
  H        0.7225460    -1.8551450    -0.1446860
  H        3.8080070     1.1710760     0.0438400
  H       -1.6259220    -2.2752860     0.3500510
  H        3.8398640    -1.7937090     0.9244500
  H        3.0687740    -2.5034170    -0.5007000
  H        4.3228250    -1.2652800    -0.6906580
  H        1.9977040     2.8869120     0.1452960
  H       -4.2730300    -1.6376780     0.1527080
  H       -4.2894270     1.0948070    -0.2563320
units angstrom
no_reorient  #important for SAPT in psi4, default
symmetry c1  #important for SAPT in psi4, default
}

set PROPERTIES_ORIGIN ["COM"]
properties('MP2/aug-cc-pvtz', properties = ['dipole'])
--------------------------------------------------------------------------

    Molecular point group: c1
  Charge       = 0
  Multiplicity = 1
  Basis Set: AUG-CC-PVTZ
    Blend: AUG-CC-PVTZ
  Basis Set: (AUG-CC-PVTZ AUX)
    Blend: AUG-CC-PVTZ-JKFIT

    Orbital Energies [Eh]
    ---------------------

    Doubly Occupied:

       1A    -20.624024     2A    -15.563181     3A    -11.296723
       4A    -11.294192     5A    -11.293688     6A    -11.278533
       7A    -11.271670     8A    -11.242180     9A    -11.239345
      10A    -11.238026    11A    -11.235461    12A    -11.233674
      13A     -1.455405    14A     -1.243835    15A     -1.104267
      16A     -1.096010    17A     -1.057367    18A     -0.982865
      19A     -0.967982    20A     -0.862369    21A     -0.837045
      22A     -0.797240    23A     -0.767671    24A     -0.727985
      25A     -0.672802    26A     -0.668179    27A     -0.640129
      28A     -0.634458    29A     -0.599072    30A     -0.590466
      31A     -0.578025    32A     -0.568792    33A     -0.555060
      34A     -0.548636    35A     -0.541829    36A     -0.525165
      37A     -0.509587    38A     -0.417424    39A     -0.408176
      40A     -0.375232    41A     -0.362231    42A     -0.284068

  @DF-RHF Final Energy:  -513.37228407763587

   => Energetics <=

    Nuclear Repulsion Energy =            629.6841306226979214
    One-Electron Energy =               -1945.7326909090797926
    Two-Electron Energy =                 802.6762762087460032
    Total Energy =                       -513.3722840776358680
  Basis Set: (AUG-CC-PVTZ AUX)
    Blend: AUG-CC-PVTZ-RI
    Molecular point group: c1

    Geometry (in Angstrom), charge = 0, multiplicity = 1:

       Center              X                  Y                   Z               Mass
    ------------   -----------------  -----------------  -----------------  -----------------
         O           -2.182672656561     0.881326432073    -0.161105412269    15.994914619570
         N            0.464676343439     1.492286432073     0.090268587731    14.003074004430
         C            0.125210343439     0.173042432073     0.015878587731    12.000000000000
         C            2.458048343439    -0.538687567927    -0.042989412269    12.000000000000
         C           -1.302580656561    -0.151576567927     0.020573587731    12.000000000000
         C            1.085537343439    -0.855925567927    -0.059547412269    12.000000000000
         C            2.807638343439     0.826024432073     0.035955587731    12.000000000000
         C           -2.004273656561    -1.332634567927     0.172171587731    12.000000000000
         C            3.511912343439    -1.613310567927    -0.082571412269    12.000000000000
         C            1.792819343439     1.788366432073     0.092580587731    12.000000000000
         C           -3.336674756561    -1.015047567927     0.080081587731    12.000000000000
         C           -3.439324656561     0.350942432073    -0.124660412269    12.000000000000
         H            0.766031343439    -1.892805567927    -0.144796412269     1.007825032230
         H            3.851492343439     1.133415432073     0.043729587731     1.007825032230
         H           -1.582436656561    -2.312946567927     0.349940587731     1.007825032230
         H            3.883349343439    -1.831369567927     0.924339587731     1.007825032230
         H            3.112259343439    -2.541077567927    -0.500810412269     1.007825032230
         H            4.366310343439    -1.302940567927    -0.690768412269     1.007825032230
         H            2.041189343439     2.849251432073     0.145185587731     1.007825032230
         H           -4.229544656561    -1.675338567927     0.152597587731     1.007825032230
         H           -4.245941656561     1.057146432073    -0.256442412269     1.007825032230

  Basis Set: AUG-CC-PVTZ
    Blend: AUG-CC-PVTZ
  Basis Set: (AUG-CC-PVTZ AUX)
    Blend: AUG-CC-PVTZ-JKFIT
	 Reference Energy          =    -513.3722840776358680 [Eh]
	 Singles Energy            =      -0.0000000000000000 [Eh]
	 Same-Spin Energy          =      -0.5602618029244739 [Eh]
	 Opposite-Spin Energy      =      -1.7148101306974262 [Eh]
	 Correlation Energy        =      -2.2750719336219003 [Eh]
	 Total Energy              =    -515.6473560112577843 [Eh]

	 ================> DF-SCS-MP2 Energies <==================
	-----------------------------------------------------------
	 SCS Same-Spin Scale       =       0.3333333333333333 [-]
	 SCS Opposite-Spin Scale   =       1.2000000000000000 [-]
	 SCS Same-Spin Energy      =      -0.1867539343081580 [Eh]
	 SCS Opposite-Spin Energy  =      -2.0577721568369114 [Eh]
	 SCS Correlation Energy    =      -2.2445260911450693 [Eh]
	 SCS Total Energy          =    -515.6168101687809440 [Eh]
	-----------------------------------------------------------

  Dipole Moment: [D]
     X:     1.4456      Y:    -2.3667      Z:    -0.0065     Total:     2.7733

*** Psi4 exiting successfully. Buy a developer a beer!
