                               Psi4 1.4a3.dev225

  ==> Input File <==

--------------------------------------------------------------------------
#psi4
#
memory 32 gb

molecule  {
0 1
  O       -2.2261580     0.9189870    -0.1609950
  N        0.4211910     1.5299470     0.0903790
  C        0.0817250     0.2107030     0.0159890
  C        2.3309692    -0.5979496     0.0490771
  C       -1.3460660    -0.1139160     0.0206840
  C        1.0420520    -0.8182650    -0.0594370
  C        2.7641530     0.8636850     0.0360660
  C       -2.0477590    -1.2949740     0.1722820
  C        3.4684270    -1.5756500    -0.0824610
  C        1.7493340     1.8260270     0.0926910
  C       -3.4286880    -0.9658200     0.0768380
  C       -3.4828100     0.3886030    -0.1245500
  H        0.7225460    -1.8551450    -0.1446860
  H        3.8080070     1.1710760     0.0438400
  H       -1.6259220    -2.2752860     0.3500510
  H        3.8398640    -1.7937090     0.9244500
  H        3.0687740    -2.5034170    -0.5007000
  H        4.3228250    -1.2652800    -0.6906580
  H        1.9977040     2.8869120     0.1452960
  H       -4.2730300    -1.6376780     0.1527080
  H       -4.2894270     1.0948070    -0.2563320
units angstrom
no_reorient  #important for SAPT in psi4, default
symmetry c1  #important for SAPT in psi4, default
}

set PROPERTIES_ORIGIN ["COM"]
properties('MP2/aug-cc-pvtz', properties = ['dipole'])
--------------------------------------------------------------------------

    Molecular point group: c1
  Charge       = 0
  Multiplicity = 1
  Basis Set: AUG-CC-PVTZ
    Blend: AUG-CC-PVTZ
  Basis Set: (AUG-CC-PVTZ AUX)
    Blend: AUG-CC-PVTZ-JKFIT

    Orbital Energies [Eh]
    ---------------------

    Doubly Occupied:

       1A    -20.623648     2A    -15.562977     3A    -11.299535
       4A    -11.298515     5A    -11.296280     6A    -11.271904
       7A    -11.269804     8A    -11.244547     9A    -11.242375
      10A    -11.239863    11A    -11.235874    12A    -11.234007
      13A     -1.455860    14A     -1.243574    15A     -1.108670
      16A     -1.089215    17A     -1.056915    18A     -0.984757
      19A     -0.968720    20A     -0.869164    21A     -0.829090
      22A     -0.798679    23A     -0.767695    24A     -0.731535
      25A     -0.673427    26A     -0.662518    27A     -0.639446
      28A     -0.635042    29A     -0.601551    30A     -0.591804
      31A     -0.581528    32A     -0.568135    33A     -0.563291
      34A     -0.556381    35A     -0.537819    36A     -0.524256
      37A     -0.491812    38A     -0.414559    39A     -0.403629
      40A     -0.375371    41A     -0.368242    42A     -0.287258

  @DF-RHF Final Energy:  -513.35716570516752

   => Energetics <=

    Nuclear Repulsion Energy =            629.1901831950008273
    One-Electron Energy =               -1944.6961510006030949
    Two-Electron Energy =                 802.1488021004347502
    Total Energy =                       -513.3571657051675174
  Basis Set: (AUG-CC-PVTZ AUX)
    Blend: AUG-CC-PVTZ-RI
    Molecular point group: c1

    Geometry (in Angstrom), charge = 0, multiplicity = 1:

       Center              X                  Y                   Z               Mass
    ------------   -----------------  -----------------  -----------------  -----------------
         O           -2.172705496136     0.887765593531    -0.167789487214    15.994914619570
         N            0.474643503864     1.498725593531     0.083584512786    14.003074004430
         C            0.135177503864     0.179481593531     0.009194512786    12.000000000000
         C            2.384421703864    -0.629171006469     0.042282612786    12.000000000000
         C           -1.292613496136    -0.145137406469     0.013889512786    12.000000000000
         C            1.095504503864    -0.849486406469    -0.066231487214    12.000000000000
         C            2.817605503864     0.832463593531     0.029271512786    12.000000000000
         C           -1.994306496136    -1.326195406469     0.165487512786    12.000000000000
         C            3.521879503864    -1.606871406469    -0.089255487214    12.000000000000
         C            1.802786503864     1.794805593531     0.085896512786    12.000000000000
         C           -3.375235496136    -0.997041406469     0.070043512786    12.000000000000
         C           -3.429357496136     0.357381593531    -0.131344487214    12.000000000000
         H            0.775998503864    -1.886366406469    -0.151480487214     1.007825032230
         H            3.861459503864     1.139854593531     0.037045512786     1.007825032230
         H           -1.572469496136    -2.306507406469     0.343256512786     1.007825032230
         H            3.893316503864    -1.824930406469     0.917655512786     1.007825032230
         H            3.122226503864    -2.534638406469    -0.507494487214     1.007825032230
         H            4.376277503864    -1.296501406469    -0.697452487214     1.007825032230
         H            2.051156503864     2.855690593531     0.138501512786     1.007825032230
         H           -4.219577496136    -1.668899406469     0.145913512786     1.007825032230
         H           -4.235974496136     1.063585593531    -0.263126487214     1.007825032230

  Basis Set: AUG-CC-PVTZ
    Blend: AUG-CC-PVTZ
  Basis Set: (AUG-CC-PVTZ AUX)
    Blend: AUG-CC-PVTZ-JKFIT
	 Reference Energy          =    -513.3571657051675174 [Eh]
	 Singles Energy            =      -0.0000000000000000 [Eh]
	 Same-Spin Energy          =      -0.5587774444096019 [Eh]
	 Opposite-Spin Energy      =      -1.7146344020379927 [Eh]
	 Correlation Energy        =      -2.2734118464475945 [Eh]
	 Total Energy              =    -515.6305775516151471 [Eh]

	 ================> DF-SCS-MP2 Energies <==================
	-----------------------------------------------------------
	 SCS Same-Spin Scale       =       0.3333333333333333 [-]
	 SCS Opposite-Spin Scale   =       1.2000000000000000 [-]
	 SCS Same-Spin Energy      =      -0.1862591481365339 [Eh]
	 SCS Opposite-Spin Energy  =      -2.0575612824455911 [Eh]
	 SCS Correlation Energy    =      -2.2438204305821250 [Eh]
	 SCS Total Energy          =    -515.6009861357496220 [Eh]
	-----------------------------------------------------------

  Dipole Moment: [D]
     X:     1.3811      Y:    -2.4182      Z:    -0.0478     Total:     2.7853

*** Psi4 exiting successfully. Buy a developer a beer!
