                               Psi4 1.4a3.dev225

  ==> Input File <==

--------------------------------------------------------------------------
#psi4
#
memory 32 gb

molecule  {
0 1
  O       -2.2261580     0.9189870    -0.1609950
  N        0.4211910     1.5299470     0.0903790
  C        0.0817250     0.2107030     0.0159890
  C        2.4145630    -0.5010270    -0.0428790
  C       -1.3460660    -0.1139160     0.0206840
  C        1.0420520    -0.8182650    -0.0594370
  C        2.7641530     0.8636850     0.0360660
  C       -2.0477590    -1.2949740     0.1722820
  C        3.4684270    -1.5756500    -0.0824610
  C        1.7493340     1.8260270     0.0926910
  C       -3.4048123    -0.9645602     0.0774738
  C       -3.4828100     0.3886030    -0.1245500
  H        0.7225460    -1.8551450    -0.1446860
  H        3.8080070     1.1710760     0.0438400
  H       -1.6259220    -2.2752860     0.3500510
  H        3.8398640    -1.7937090     0.9244500
  H        3.0687740    -2.5034170    -0.5007000
  H        4.3228250    -1.2652800    -0.6906580
  H        1.9977040     2.8869120     0.1452960
  H       -4.2730300    -1.6376780     0.1527080
  H       -4.2894270     1.0948070    -0.2563320
units angstrom
no_reorient  #important for SAPT in psi4, default
symmetry c1  #important for SAPT in psi4, default
}

set PROPERTIES_ORIGIN ["COM"]
properties('MP2/aug-cc-pvtz', properties = ['dipole'])
--------------------------------------------------------------------------

    Molecular point group: c1
  Charge       = 0
  Multiplicity = 1
  Basis Set: AUG-CC-PVTZ
    Blend: AUG-CC-PVTZ
  Basis Set: (AUG-CC-PVTZ AUX)
    Blend: AUG-CC-PVTZ-JKFIT

    Orbital Energies [Eh]
    ---------------------

    Doubly Occupied:

       1A    -20.622178     2A    -15.563552     3A    -11.297117
       4A    -11.294318     5A    -11.292265     6A    -11.278680
       7A    -11.271822     8A    -11.242458     9A    -11.239468
      10A    -11.238367    11A    -11.237117    12A    -11.233336
      13A     -1.454458    14A     -1.244075    15A     -1.104311
      16A     -1.091703    17A     -1.057929    18A     -0.984028
      19A     -0.968117    20A     -0.863034    21A     -0.836530
      22A     -0.798561    23A     -0.765668    24A     -0.727857
      25A     -0.673031    26A     -0.668422    27A     -0.639899
      28A     -0.634039    29A     -0.598738    30A     -0.590594
      31A     -0.577075    32A     -0.567470    33A     -0.557612
      34A     -0.548174    35A     -0.541978    36A     -0.525327
      37A     -0.509732    38A     -0.417577    39A     -0.404980
      40A     -0.375950    41A     -0.362487    42A     -0.286716

  @DF-RHF Final Energy:  -513.37596845510154

   => Energetics <=

    Nuclear Repulsion Energy =            629.3936063159337664
    One-Electron Energy =               -1945.1656458914278574
    Two-Electron Energy =                 802.3960711203925484
    Total Energy =                       -513.3759684551015425
  Basis Set: (AUG-CC-PVTZ AUX)
    Blend: AUG-CC-PVTZ-RI
    Molecular point group: c1

    Geometry (in Angstrom), charge = 0, multiplicity = 1:

       Center              X                  Y                   Z               Mass
    ------------   -----------------  -----------------  -----------------  -----------------
         O           -2.180812913368     0.880358788050    -0.160900353331    15.994914619570
         N            0.466536086632     1.491318788050     0.090473646669    14.003074004430
         C            0.127070086632     0.172074788050     0.016083646669    12.000000000000
         C            2.459908086632    -0.539655211950    -0.042784353331    12.000000000000
         C           -1.300720913368    -0.152544211950     0.020778646669    12.000000000000
         C            1.087397086632    -0.856893211950    -0.059342353331    12.000000000000
         C            2.809498086632     0.825056788050     0.036160646669    12.000000000000
         C           -2.002413913368    -1.333602211950     0.172376646669    12.000000000000
         C            3.513772086632    -1.614278211950    -0.082366353331    12.000000000000
         C            1.794679086632     1.787398788050     0.092785646669    12.000000000000
         C           -3.359467213368    -1.003188411950     0.077568446669    12.000000000000
         C           -3.437464913368     0.349974788050    -0.124455353331    12.000000000000
         H            0.767891086632    -1.893773211950    -0.144591353331     1.007825032230
         H            3.853352086632     1.132447788050     0.043934646669     1.007825032230
         H           -1.580576913368    -2.313914211950     0.350145646669     1.007825032230
         H            3.885209086632    -1.832337211950     0.924544646669     1.007825032230
         H            3.114119086632    -2.542045211950    -0.500605353331     1.007825032230
         H            4.368170086632    -1.303908211950    -0.690563353331     1.007825032230
         H            2.043049086632     2.848283788050     0.145390646669     1.007825032230
         H           -4.227684913368    -1.676306211950     0.152802646669     1.007825032230
         H           -4.244081913368     1.056178788050    -0.256237353331     1.007825032230

  Basis Set: AUG-CC-PVTZ
    Blend: AUG-CC-PVTZ
  Basis Set: (AUG-CC-PVTZ AUX)
    Blend: AUG-CC-PVTZ-JKFIT
	 Reference Energy          =    -513.3759684551015425 [Eh]
	 Singles Energy            =      -0.0000000000000000 [Eh]
	 Same-Spin Energy          =      -0.5595023694777292 [Eh]
	 Opposite-Spin Energy      =      -1.7139306521347619 [Eh]
	 Correlation Energy        =      -2.2734330216124912 [Eh]
	 Total Energy              =    -515.6494014767140470 [Eh]

	 ================> DF-SCS-MP2 Energies <==================
	-----------------------------------------------------------
	 SCS Same-Spin Scale       =       0.3333333333333333 [-]
	 SCS Opposite-Spin Scale   =       1.2000000000000000 [-]
	 SCS Same-Spin Energy      =      -0.1865007898259097 [Eh]
	 SCS Opposite-Spin Energy  =      -2.0567167825617143 [Eh]
	 SCS Correlation Energy    =      -2.2432175723876240 [Eh]
	 SCS Total Energy          =    -515.6191860274891496 [Eh]
	-----------------------------------------------------------

  Dipole Moment: [D]
     X:     1.4696      Y:    -2.3699      Z:    -0.0054     Total:     2.7885

*** Psi4 exiting successfully. Buy a developer a beer!
