                               Psi4 1.4a3.dev225

  ==> Input File <==

--------------------------------------------------------------------------
#psi4
#
memory 32 gb

molecule  {
0 1
  O       -2.2261580     0.9189870    -0.1609950
  N        0.4211910     1.5299470     0.0903790
  C        0.0817250     0.2107030     0.0159890
  C        2.4145630    -0.5010270    -0.0428790
  C       -1.2973105    -0.1028311     0.0205237
  C        1.0420520    -0.8182650    -0.0594370
  C        2.7641530     0.8636850     0.0360660
  C       -2.0477590    -1.2949740     0.1722820
  C        3.4684270    -1.5756500    -0.0824610
  C        1.7493340     1.8260270     0.0926910
  C       -3.4286880    -0.9658200     0.0768380
  C       -3.4828100     0.3886030    -0.1245500
  H        0.7225460    -1.8551450    -0.1446860
  H        3.8080070     1.1710760     0.0438400
  H       -1.6259220    -2.2752860     0.3500510
  H        3.8398640    -1.7937090     0.9244500
  H        3.0687740    -2.5034170    -0.5007000
  H        4.3228250    -1.2652800    -0.6906580
  H        1.9977040     2.8869120     0.1452960
  H       -4.2730300    -1.6376780     0.1527080
  H       -4.2894270     1.0948070    -0.2563320
units angstrom
no_reorient  #important for SAPT in psi4, default
symmetry c1  #important for SAPT in psi4, default
}

set PROPERTIES_ORIGIN ["COM"]
properties('MP2/aug-cc-pvtz', properties = ['dipole'])
--------------------------------------------------------------------------

    Molecular point group: c1
  Charge       = 0
  Multiplicity = 1
  Basis Set: AUG-CC-PVTZ
    Blend: AUG-CC-PVTZ
  Basis Set: (AUG-CC-PVTZ AUX)
    Blend: AUG-CC-PVTZ-JKFIT

    Orbital Energies [Eh]
    ---------------------

    Doubly Occupied:

       1A    -20.619834     2A    -15.562851     3A    -11.298379
       4A    -11.296649     5A    -11.291027     6A    -11.278450
       7A    -11.271633     8A    -11.246273     9A    -11.242407
      10A    -11.239288    11A    -11.237904    12A    -11.234823
      13A     -1.443797    14A     -1.245465    15A     -1.104150
      16A     -1.084078    17A     -1.063130    18A     -0.982230
      19A     -0.967734    20A     -0.868561    21A     -0.838620
      22A     -0.795899    23A     -0.762756    24A     -0.728067
      25A     -0.673039    26A     -0.669494    27A     -0.643201
      28A     -0.628446    29A     -0.601907    30A     -0.590373
      31A     -0.577270    32A     -0.565173    33A     -0.558566
      34A     -0.547010    35A     -0.536506    36A     -0.525984
      37A     -0.511591    38A     -0.417664    39A     -0.400859
      40A     -0.379143    41A     -0.362937    42A     -0.282078

  @DF-RHF Final Energy:  -513.37016226172022

   => Energetics <=

    Nuclear Repulsion Energy =            628.9071559532777655
    One-Electron Energy =               -1944.2041480814903025
    Two-Electron Energy =                 801.9268298664921986
    Total Energy =                       -513.3701622617202247
  Basis Set: (AUG-CC-PVTZ AUX)
    Blend: AUG-CC-PVTZ-RI
    Molecular point group: c1

    Geometry (in Angstrom), charge = 0, multiplicity = 1:

       Center              X                  Y                   Z               Mass
    ------------   -----------------  -----------------  -----------------  -----------------
         O           -2.182689826532     0.879617589989    -0.160840296153    15.994914619570
         N            0.464659173468     1.490577589989     0.090533703847    14.003074004430
         C            0.125193173468     0.171333589989     0.016143703847    12.000000000000
         C            2.458031173468    -0.540396410011    -0.042724296153    12.000000000000
         C           -1.253842326532    -0.142200510011     0.020678403847    12.000000000000
         C            1.085520173468    -0.857634410011    -0.059282296153    12.000000000000
         C            2.807621173468     0.824315589989     0.036220703847    12.000000000000
         C           -2.004290826532    -1.334343410011     0.172436703847    12.000000000000
         C            3.511895173468    -1.615019410011    -0.082306296153    12.000000000000
         C            1.792802173468     1.786657589989     0.092845703847    12.000000000000
         C           -3.385219826532    -1.005189410011     0.076992703847    12.000000000000
         C           -3.439341826532     0.349233589989    -0.124395296153    12.000000000000
         H            0.766014173468    -1.894514410011    -0.144531296153     1.007825032230
         H            3.851475173468     1.131706589989     0.043994703847     1.007825032230
         H           -1.582453826532    -2.314655410011     0.350205703847     1.007825032230
         H            3.883332173468    -1.833078410011     0.924604703847     1.007825032230
         H            3.112242173468    -2.542786410011    -0.500545296153     1.007825032230
         H            4.366293173468    -1.304649410011    -0.690503296153     1.007825032230
         H            2.041172173468     2.847542589989     0.145450703847     1.007825032230
         H           -4.229561826532    -1.677047410011     0.152862703847     1.007825032230
         H           -4.245958826532     1.055437589989    -0.256177296153     1.007825032230

  Basis Set: AUG-CC-PVTZ
    Blend: AUG-CC-PVTZ
  Basis Set: (AUG-CC-PVTZ AUX)
    Blend: AUG-CC-PVTZ-JKFIT
	 Reference Energy          =    -513.3701622617202247 [Eh]
	 Singles Energy            =      -0.0000000000000000 [Eh]
	 Same-Spin Energy          =      -0.5604832139138543 [Eh]
	 Opposite-Spin Energy      =      -1.7159040925484021 [Eh]
	 Correlation Energy        =      -2.2763873064622562 [Eh]
	 Total Energy              =    -515.6465495681825359 [Eh]

	 ================> DF-SCS-MP2 Energies <==================
	-----------------------------------------------------------
	 SCS Same-Spin Scale       =       0.3333333333333333 [-]
	 SCS Opposite-Spin Scale   =       1.2000000000000000 [-]
	 SCS Same-Spin Energy      =      -0.1868277379712847 [Eh]
	 SCS Opposite-Spin Energy  =      -2.0590849110580827 [Eh]
	 SCS Correlation Energy    =      -2.2459126490293673 [Eh]
	 SCS Total Energy          =    -515.6160749107496031 [Eh]
	-----------------------------------------------------------

  Dipole Moment: [D]
     X:     1.4500      Y:    -2.3691      Z:    -0.0069     Total:     2.7776

*** Psi4 exiting successfully. Buy a developer a beer!
