                               Psi4 1.4a3.dev225

  ==> Input File <==

--------------------------------------------------------------------------
#psi4
#
memory 32 gb

molecule  {
0 1
  O       -2.2261580     0.9189870    -0.1609950
  N        0.4211910     1.5299470     0.0903790
  C        0.0817250     0.2107030     0.0159890
  C        2.4145630    -0.5010270    -0.0428790
  C       -1.3460660    -0.1139160     0.0206840
  C        1.0420520    -0.8182650    -0.0594370
  C        2.7517649     0.8153248     0.0332685
  C       -2.0477590    -1.2949740     0.1722820
  C        3.4684270    -1.5756500    -0.0824610
  C        1.7493340     1.8260270     0.0926910
  C       -3.4286880    -0.9658200     0.0768380
  C       -3.4828100     0.3886030    -0.1245500
  H        0.7225460    -1.8551450    -0.1446860
  H        3.8080070     1.1710760     0.0438400
  H       -1.6259220    -2.2752860     0.3500510
  H        3.8398640    -1.7937090     0.9244500
  H        3.0687740    -2.5034170    -0.5007000
  H        4.3228250    -1.2652800    -0.6906580
  H        1.9977040     2.8869120     0.1452960
  H       -4.2730300    -1.6376780     0.1527080
  H       -4.2894270     1.0948070    -0.2563320
units angstrom
no_reorient  #important for SAPT in psi4, default
symmetry c1  #important for SAPT in psi4, default
}

set PROPERTIES_ORIGIN ["COM"]
properties('MP2/aug-cc-pvtz', properties = ['dipole'])
--------------------------------------------------------------------------

    Molecular point group: c1
  Charge       = 0
  Multiplicity = 1
  Basis Set: AUG-CC-PVTZ
    Blend: AUG-CC-PVTZ
  Basis Set: (AUG-CC-PVTZ AUX)
    Blend: AUG-CC-PVTZ-JKFIT

    Orbital Energies [Eh]
    ---------------------

    Doubly Occupied:

       1A    -20.621353     2A    -15.565377     3A    -11.296810
       4A    -11.293098     5A    -11.292237     6A    -11.283518
       7A    -11.265203     8A    -11.242764     9A    -11.238854
      10A    -11.238544    11A    -11.237722    12A    -11.233252
      13A     -1.453376    14A     -1.245595    15A     -1.110961
      16A     -1.087124    17A     -1.056325    18A     -0.981814
      19A     -0.967651    20A     -0.864571    21A     -0.837738
      22A     -0.800428    23A     -0.764097    24A     -0.727680
      25A     -0.672200    26A     -0.667944    27A     -0.639698
      28A     -0.633143    29A     -0.598775    30A     -0.591159
      31A     -0.576596    32A     -0.565679    33A     -0.555699
      34A     -0.548252    35A     -0.541204    36A     -0.525858
      37A     -0.513601    38A     -0.416471    39A     -0.401965
      40A     -0.379514    41A     -0.363112    42A     -0.286403

  @DF-RHF Final Energy:  -513.37464991891409

   => Energetics <=

    Nuclear Repulsion Energy =            629.5505311884879802
    One-Electron Energy =               -1945.4836294033227659
    Two-Electron Energy =                 802.5584482959208117
    Total Energy =                       -513.3746499189140877
  Basis Set: (AUG-CC-PVTZ AUX)
    Blend: AUG-CC-PVTZ-RI
    Molecular point group: c1

    Geometry (in Angstrom), charge = 0, multiplicity = 1:

       Center              X                  Y                   Z               Mass
    ------------   -----------------  -----------------  -----------------  -----------------
         O           -2.178077199914     0.884102083060    -0.160641347794    15.994914619570
         N            0.469271800086     1.495062083060     0.090732652206    14.003074004430
         C            0.129805800086     0.175818083060     0.016342652206    12.000000000000
         C            2.462643800086    -0.535911916940    -0.042525347794    12.000000000000
         C           -1.297985199914    -0.148800916940     0.021037652206    12.000000000000
         C            1.090132800086    -0.853149916940    -0.059083347794    12.000000000000
         C            2.799845700086     0.780439883060     0.033622152206    12.000000000000
         C           -1.999678199914    -1.329858916940     0.172635652206    12.000000000000
         C            3.516507800086    -1.610534916940    -0.082107347794    12.000000000000
         C            1.797414800086     1.791142083060     0.093044652206    12.000000000000
         C           -3.380607199914    -1.000704916940     0.077191652206    12.000000000000
         C           -3.434729199914     0.353718083060    -0.124196347794    12.000000000000
         H            0.770626800086    -1.890029916940    -0.144332347794     1.007825032230
         H            3.856087800086     1.136191083060     0.044193652206     1.007825032230
         H           -1.577841199914    -2.310170916940     0.350404652206     1.007825032230
         H            3.887944800086    -1.828593916940     0.924803652206     1.007825032230
         H            3.116854800086    -2.538301916940    -0.500346347794     1.007825032230
         H            4.370905800086    -1.300164916940    -0.690304347794     1.007825032230
         H            2.045784800086     2.852027083060     0.145649652206     1.007825032230
         H           -4.224949199914    -1.672562916940     0.153061652206     1.007825032230
         H           -4.241346199914     1.059922083060    -0.255978347794     1.007825032230

  Basis Set: AUG-CC-PVTZ
    Blend: AUG-CC-PVTZ
  Basis Set: (AUG-CC-PVTZ AUX)
    Blend: AUG-CC-PVTZ-JKFIT
	 Reference Energy          =    -513.3746499189140877 [Eh]
	 Singles Energy            =      -0.0000000000000000 [Eh]
	 Same-Spin Energy          =      -0.5592454770088349 [Eh]
	 Opposite-Spin Energy      =      -1.7138517413179826 [Eh]
	 Correlation Energy        =      -2.2730972183268174 [Eh]
	 Total Energy              =    -515.6477471372409127 [Eh]

	 ================> DF-SCS-MP2 Energies <==================
	-----------------------------------------------------------
	 SCS Same-Spin Scale       =       0.3333333333333333 [-]
	 SCS Opposite-Spin Scale   =       1.2000000000000000 [-]
	 SCS Same-Spin Energy      =      -0.1864151590029449 [Eh]
	 SCS Opposite-Spin Energy  =      -2.0566220895815790 [Eh]
	 SCS Correlation Energy    =      -2.2430372485845238 [Eh]
	 SCS Total Energy          =    -515.6176871674986160 [Eh]
	-----------------------------------------------------------

  Dipole Moment: [D]
     X:     1.4906      Y:    -2.3147      Z:    -0.0030     Total:     2.7531

*** Psi4 exiting successfully. Buy a developer a beer!
