                               Psi4 1.4a3.dev225

  ==> Input File <==

--------------------------------------------------------------------------
#psi4
#
memory 32 gb

molecule  {
0 1
  O       -2.2261580     0.9189870    -0.1609950
  N        0.4211910     1.5299470     0.0903790
  C        0.0817250     0.2107030     0.0159890
  C        2.3200634    -0.4734193    -0.0402287
  C       -1.3460660    -0.1139160     0.0206840
  C        1.0420520    -0.8182650    -0.0594370
  C        2.7641530     0.8636850     0.0360660
  C       -2.0477590    -1.2949740     0.1722820
  C        3.4684270    -1.5756500    -0.0824610
  C        1.7493340     1.8260270     0.0926910
  C       -3.4286880    -0.9658200     0.0768380
  C       -3.4828100     0.3886030    -0.1245500
  H        0.7225460    -1.8551450    -0.1446860
  H        3.8080070     1.1710760     0.0438400
  H       -1.6259220    -2.2752860     0.3500510
  H        3.8398640    -1.7937090     0.9244500
  H        3.0687740    -2.5034170    -0.5007000
  H        4.3228250    -1.2652800    -0.6906580
  H        1.9977040     2.8869120     0.1452960
  H       -4.2730300    -1.6376780     0.1527080
  H       -4.2894270     1.0948070    -0.2563320
units angstrom
no_reorient  #important for SAPT in psi4, default
symmetry c1  #important for SAPT in psi4, default
}

set PROPERTIES_ORIGIN ["COM"]
properties('MP2/aug-cc-pvtz', properties = ['dipole'])
--------------------------------------------------------------------------

    Molecular point group: c1
  Charge       = 0
  Multiplicity = 1
  Basis Set: AUG-CC-PVTZ
    Blend: AUG-CC-PVTZ
  Basis Set: (AUG-CC-PVTZ AUX)
    Blend: AUG-CC-PVTZ-JKFIT

    Orbital Energies [Eh]
    ---------------------

    Doubly Occupied:

       1A    -20.623288     2A    -15.563533     3A    -11.298429
       4A    -11.296688     5A    -11.295460     6A    -11.276568
       7A    -11.263819     8A    -11.241598     9A    -11.239261
      10A    -11.237499    11A    -11.235506    12A    -11.234220
      13A     -1.455427    14A     -1.247799    15A     -1.106073
      16A     -1.089285    17A     -1.060232    18A     -0.987995
      19A     -0.957284    20A     -0.869683    21A     -0.836031
      22A     -0.801773    23A     -0.766433    24A     -0.728070
      25A     -0.678840    26A     -0.668494    27A     -0.638249
      28A     -0.634695    29A     -0.602212    30A     -0.583189
      31A     -0.582474    32A     -0.568071    33A     -0.555361
      34A     -0.546613    35A     -0.529112    36A     -0.526808
      37A     -0.510688    38A     -0.413993    39A     -0.403781
      40A     -0.379808    41A     -0.371279    42A     -0.289414

  @DF-RHF Final Energy:  -513.36946600528995

   => Energetics <=

    Nuclear Repulsion Energy =            630.1735463670538593
    One-Electron Energy =               -1946.6959577909817654
    Two-Electron Energy =                 803.1529454186379553
    Total Energy =                       -513.3694660052899508
  Basis Set: (AUG-CC-PVTZ AUX)
    Blend: AUG-CC-PVTZ-RI
    Molecular point group: c1

    Geometry (in Angstrom), charge = 0, multiplicity = 1:

       Center              X                  Y                   Z               Mass
    ------------   -----------------  -----------------  -----------------  -----------------
         O           -2.171882770890     0.878371122540    -0.161052325677    15.994914619570
         N            0.475466229110     1.489331122540     0.090321674323    14.003074004430
         C            0.136000229110     0.170087122540     0.015931674323    12.000000000000
         C            2.374338629110    -0.514035177460    -0.040286025677    12.000000000000
         C           -1.291790770890    -0.154531877460     0.020626674323    12.000000000000
         C            1.096327229110    -0.858880877460    -0.059494325677    12.000000000000
         C            2.818428229110     0.823069122540     0.036008674323    12.000000000000
         C           -1.993483770890    -1.335589877460     0.172224674323    12.000000000000
         C            3.522702229110    -1.616265877460    -0.082518325677    12.000000000000
         C            1.803609229110     1.785411122540     0.092633674323    12.000000000000
         C           -3.374412770890    -1.006435877460     0.076780674323    12.000000000000
         C           -3.428534770890     0.347987122540    -0.124607325677    12.000000000000
         H            0.776821229110    -1.895760877460    -0.144743325677     1.007825032230
         H            3.862282229110     1.130460122540     0.043782674323     1.007825032230
         H           -1.571646770890    -2.315901877460     0.349993674323     1.007825032230
         H            3.894139229110    -1.834324877460     0.924392674323     1.007825032230
         H            3.123049229110    -2.544032877460    -0.500757325677     1.007825032230
         H            4.377100229110    -1.305895877460    -0.690715325677     1.007825032230
         H            2.051979229110     2.846296122540     0.145238674323     1.007825032230
         H           -4.218754770890    -1.678293877460     0.152650674323     1.007825032230
         H           -4.235151770890     1.054191122540    -0.256389325677     1.007825032230

  Basis Set: AUG-CC-PVTZ
    Blend: AUG-CC-PVTZ
  Basis Set: (AUG-CC-PVTZ AUX)
    Blend: AUG-CC-PVTZ-JKFIT
	 Reference Energy          =    -513.3694660052899508 [Eh]
	 Singles Energy            =      -0.0000000000000000 [Eh]
	 Same-Spin Energy          =      -0.5584052577097585 [Eh]
	 Opposite-Spin Energy      =      -1.7128388389366693 [Eh]
	 Correlation Energy        =      -2.2712440966464280 [Eh]
	 Total Energy              =    -515.6407101019364063 [Eh]

	 ================> DF-SCS-MP2 Energies <==================
	-----------------------------------------------------------
	 SCS Same-Spin Scale       =       0.3333333333333333 [-]
	 SCS Opposite-Spin Scale   =       1.2000000000000000 [-]
	 SCS Same-Spin Energy      =      -0.1861350859032528 [Eh]
	 SCS Opposite-Spin Energy  =      -2.0554066067240031 [Eh]
	 SCS Correlation Energy    =      -2.2415416926272558 [Eh]
	 SCS Total Energy          =    -515.6110076979172163 [Eh]
	-----------------------------------------------------------

  Dipole Moment: [D]
     X:     1.2823      Y:    -2.2654      Z:    -0.0069     Total:     2.6031

*** Psi4 exiting successfully. Buy a developer a beer!
