                               Psi4 1.4a3.dev225

  ==> Input File <==

--------------------------------------------------------------------------
#psi4
#
memory 32 gb

molecule  {
0 1
  O       -2.2261580     0.9189870    -0.1609950
  N        0.4211910     1.5299470     0.0903790
  C        0.0817250     0.2107030     0.0159890
  C        2.4145630    -0.5010270    -0.0428790
  C       -1.3460660    -0.1139160     0.0206840
  C        1.0420520    -0.8182650    -0.0594370
  C        2.7641530     0.8636850     0.0360660
  C       -2.0477590    -1.2949740     0.1722820
  C        3.4684270    -1.5756500    -0.0824610
  C        1.7493340     1.8260270     0.0926910
  C       -3.4772159    -0.9542530     0.0734840
  C       -3.4828100     0.3886030    -0.1245500
  H        0.7225460    -1.8551450    -0.1446860
  H        3.8080070     1.1710760     0.0438400
  H       -1.6259220    -2.2752860     0.3500510
  H        3.8398640    -1.7937090     0.9244500
  H        3.0687740    -2.5034170    -0.5007000
  H        4.3228250    -1.2652800    -0.6906580
  H        1.9977040     2.8869120     0.1452960
  H       -4.2730300    -1.6376780     0.1527080
  H       -4.2894270     1.0948070    -0.2563320
units angstrom
no_reorient  #important for SAPT in psi4, default
symmetry c1  #important for SAPT in psi4, default
}

set PROPERTIES_ORIGIN ["COM"]
properties('MP2/aug-cc-pvtz', properties = ['dipole'])
--------------------------------------------------------------------------

    Molecular point group: c1
  Charge       = 0
  Multiplicity = 1
  Basis Set: AUG-CC-PVTZ
    Blend: AUG-CC-PVTZ
  Basis Set: (AUG-CC-PVTZ AUX)
    Blend: AUG-CC-PVTZ-JKFIT

    Orbital Energies [Eh]
    ---------------------

    Doubly Occupied:

       1A    -20.620245     2A    -15.564245     3A    -11.297931
       4A    -11.294742     5A    -11.293239     6A    -11.278954
       7A    -11.272050     8A    -11.242863     9A    -11.242232
      10A    -11.239641    11A    -11.238916    12A    -11.234146
      13A     -1.452758    14A     -1.244538    15A     -1.104488
      16A     -1.081142    17A     -1.058187    18A     -0.985604
      19A     -0.968212    20A     -0.864000    21A     -0.835432
      22A     -0.803457    23A     -0.763238    24A     -0.727414
      25A     -0.673591    26A     -0.669191    27A     -0.639385
      28A     -0.633081    29A     -0.602979    30A     -0.590779
      31A     -0.586051    32A     -0.562633    33A     -0.557731
      34A     -0.546831    35A     -0.534902    36A     -0.525316
      37A     -0.509771    38A     -0.417992    39A     -0.397872
      40A     -0.376767    41A     -0.362864    42A     -0.291440

  @DF-RHF Final Energy:  -513.37603640476925

   => Energetics <=

    Nuclear Repulsion Energy =            628.2036622524587983
    One-Electron Energy =               -1942.7856988129319689
    Two-Electron Energy =                 801.2060001557039186
    Total Energy =                       -513.3760364047692519
  Basis Set: (AUG-CC-PVTZ AUX)
    Blend: AUG-CC-PVTZ-RI
    Molecular point group: c1

    Geometry (in Angstrom), charge = 0, multiplicity = 1:

       Center              X                  Y                   Z               Mass
    ------------   -----------------  -----------------  -----------------  -----------------
         O           -2.175350840926     0.879581220732    -0.160599365858    15.994914619570
         N            0.471998159074     1.490541220732     0.090774634142    14.003074004430
         C            0.132532159074     0.171297220732     0.016384634142    12.000000000000
         C            2.465370159074    -0.540432779268    -0.042483365858    12.000000000000
         C           -1.295258840926    -0.153321779268     0.021079634142    12.000000000000
         C            1.092859159074    -0.857670779268    -0.059041365858    12.000000000000
         C            2.814960159074     0.824279220732     0.036461634142    12.000000000000
         C           -1.996951840926    -1.334379779268     0.172677634142    12.000000000000
         C            3.519234159074    -1.615055779268    -0.082065365858    12.000000000000
         C            1.800141159074     1.786621220732     0.093086634142    12.000000000000
         C           -3.426408740926    -0.993658779268     0.073879634142    12.000000000000
         C           -3.432002840926     0.349197220732    -0.124154365858    12.000000000000
         H            0.773353159074    -1.894550779268    -0.144290365858     1.007825032230
         H            3.858814159074     1.131670220732     0.044235634142     1.007825032230
         H           -1.575114840926    -2.314691779268     0.350446634142     1.007825032230
         H            3.890671159074    -1.833114779268     0.924845634142     1.007825032230
         H            3.119581159074    -2.542822779268    -0.500304365858     1.007825032230
         H            4.373632159074    -1.304685779268    -0.690262365858     1.007825032230
         H            2.048511159074     2.847506220732     0.145691634142     1.007825032230
         H           -4.222222840926    -1.677083779268     0.153103634142     1.007825032230
         H           -4.238619840926     1.055401220732    -0.255936365858     1.007825032230

  Basis Set: AUG-CC-PVTZ
    Blend: AUG-CC-PVTZ
  Basis Set: (AUG-CC-PVTZ AUX)
    Blend: AUG-CC-PVTZ-JKFIT
	 Reference Energy          =    -513.3760364047692519 [Eh]
	 Singles Energy            =      -0.0000000000000000 [Eh]
	 Same-Spin Energy          =      -0.5580775924056603 [Eh]
	 Opposite-Spin Energy      =      -1.7128711332826116 [Eh]
	 Correlation Energy        =      -2.2709487256882719 [Eh]
	 Total Energy              =    -515.6469851304575513 [Eh]

	 ================> DF-SCS-MP2 Energies <==================
	-----------------------------------------------------------
	 SCS Same-Spin Scale       =       0.3333333333333333 [-]
	 SCS Opposite-Spin Scale   =       1.2000000000000000 [-]
	 SCS Same-Spin Energy      =      -0.1860258641352201 [Eh]
	 SCS Opposite-Spin Energy  =      -2.0554453599391338 [Eh]
	 SCS Correlation Energy    =      -2.2414712240743540 [Eh]
	 SCS Total Energy          =    -515.6175076288435548 [Eh]
	-----------------------------------------------------------

  Dipole Moment: [D]
     X:     1.5241      Y:    -2.3801      Z:    -0.0025     Total:     2.8262

*** Psi4 exiting successfully. Buy a developer a beer!
