                               Psi4 1.4a3.dev225

  ==> Input File <==

--------------------------------------------------------------------------
#psi4
#
memory 32 gb

molecule  {
0 1
  O       -2.2355947     0.9405709    -0.1644889
  N        0.4211910     1.5299470     0.0903790
  C        0.0817250     0.2107030     0.0159890
  C        2.4145630    -0.5010270    -0.0428790
  C       -1.3460660    -0.1139160     0.0206840
  C        1.0420520    -0.8182650    -0.0594370
  C        2.7641530     0.8636850     0.0360660
  C       -2.0477590    -1.2949740     0.1722820
  C        3.4684270    -1.5756500    -0.0824610
  C        1.7493340     1.8260270     0.0926910
  C       -3.4286880    -0.9658200     0.0768380
  C       -3.4828100     0.3886030    -0.1245500
  H        0.7225460    -1.8551450    -0.1446860
  H        3.8080070     1.1710760     0.0438400
  H       -1.6259220    -2.2752860     0.3500510
  H        3.8398640    -1.7937090     0.9244500
  H        3.0687740    -2.5034170    -0.5007000
  H        4.3228250    -1.2652800    -0.6906580
  H        1.9977040     2.8869120     0.1452960
  H       -4.2730300    -1.6376780     0.1527080
  H       -4.2894270     1.0948070    -0.2563320
units angstrom
no_reorient  #important for SAPT in psi4, default
symmetry c1  #important for SAPT in psi4, default
}

set PROPERTIES_ORIGIN ["COM"]
properties('MP2/aug-cc-pvtz', properties = ['dipole'])
--------------------------------------------------------------------------

    Molecular point group: c1
  Charge       = 0
  Multiplicity = 1
  Basis Set: AUG-CC-PVTZ
    Blend: AUG-CC-PVTZ
  Basis Set: (AUG-CC-PVTZ AUX)
    Blend: AUG-CC-PVTZ-JKFIT

    Orbital Energies [Eh]
    ---------------------

    Doubly Occupied:

       1A    -20.621904     2A    -15.563390     3A    -11.298550
       4A    -11.294626     5A    -11.294278     6A    -11.278577
       7A    -11.271782     8A    -11.242388     9A    -11.241724
      10A    -11.239449    11A    -11.238211    12A    -11.234007
      13A     -1.446433    14A     -1.243991    15A     -1.104136
      16A     -1.089885    17A     -1.056522    18A     -0.982457
      19A     -0.967787    20A     -0.863073    21A     -0.835824
      22A     -0.798308    23A     -0.765597    24A     -0.726331
      25A     -0.672750    26A     -0.668424    27A     -0.637847
      28A     -0.629612    29A     -0.598058    30A     -0.590528
      31A     -0.579781    32A     -0.566483    33A     -0.559030
      34A     -0.546947    35A     -0.542123    36A     -0.525322
      37A     -0.509930    38A     -0.417409    39A     -0.404688
      40A     -0.375660    41A     -0.362379    42A     -0.287741

  @DF-RHF Final Energy:  -513.37546002994702

   => Energetics <=

    Nuclear Repulsion Energy =            628.2680682480713585
    One-Electron Energy =               -1942.9391647870427278
    Two-Electron Energy =                 801.2956365090243480
    Total Energy =                       -513.3754600299470212
  Basis Set: (AUG-CC-PVTZ AUX)
    Blend: AUG-CC-PVTZ-RI
    Molecular point group: c1

    Geometry (in Angstrom), charge = 0, multiplicity = 1:

       Center              X                  Y                   Z               Mass
    ------------   -----------------  -----------------  -----------------  -----------------
         O           -2.187499553818     0.899867385798    -0.163994964556    15.994914619570
         N            0.469286146182     1.489243485798     0.090872935444    14.003074004430
         C            0.129820146182     0.169999485798     0.016482935444    12.000000000000
         C            2.462658146182    -0.541730514202    -0.042385064556    12.000000000000
         C           -1.297970853818    -0.154619514202     0.021177935444    12.000000000000
         C            1.090147146182    -0.858968514202    -0.058943064556    12.000000000000
         C            2.812248146182     0.822981485798     0.036559935444    12.000000000000
         C           -1.999663853818    -1.335677514202     0.172775935444    12.000000000000
         C            3.516522146182    -1.616353514202    -0.081967064556    12.000000000000
         C            1.797429146182     1.785323485798     0.093184935444    12.000000000000
         C           -3.380592853818    -1.006523514202     0.077331935444    12.000000000000
         C           -3.434714853818     0.347899485798    -0.124056064556    12.000000000000
         H            0.770641146182    -1.895848514202    -0.144192064556     1.007825032230
         H            3.856102146182     1.130372485798     0.044333935444     1.007825032230
         H           -1.577826853818    -2.315989514202     0.350544935444     1.007825032230
         H            3.887959146182    -1.834412514202     0.924943935444     1.007825032230
         H            3.116869146182    -2.544120514202    -0.500206064556     1.007825032230
         H            4.370920146182    -1.305983514202    -0.690164064556     1.007825032230
         H            2.045799146182     2.846208485798     0.145789935444     1.007825032230
         H           -4.224934853818    -1.678381514202     0.153201935444     1.007825032230
         H           -4.241331853818     1.054103485798    -0.255838064556     1.007825032230

  Basis Set: AUG-CC-PVTZ
    Blend: AUG-CC-PVTZ
  Basis Set: (AUG-CC-PVTZ AUX)
    Blend: AUG-CC-PVTZ-JKFIT
	 Reference Energy          =    -513.3754600299470212 [Eh]
	 Singles Energy            =      -0.0000000000000000 [Eh]
	 Same-Spin Energy          =      -0.5591558380480610 [Eh]
	 Opposite-Spin Energy      =      -1.7143610754795351 [Eh]
	 Correlation Energy        =      -2.2735169135275961 [Eh]
	 Total Energy              =    -515.6489769434746222 [Eh]

	 ================> DF-SCS-MP2 Energies <==================
	-----------------------------------------------------------
	 SCS Same-Spin Scale       =       0.3333333333333333 [-]
	 SCS Opposite-Spin Scale   =       1.2000000000000000 [-]
	 SCS Same-Spin Energy      =      -0.1863852793493537 [Eh]
	 SCS Opposite-Spin Energy  =      -2.0572332905754420 [Eh]
	 SCS Correlation Energy    =      -2.2436185699247955 [Eh]
	 SCS Total Energy          =    -515.6190785998718411 [Eh]
	-----------------------------------------------------------

  Dipole Moment: [D]
     X:     1.5006      Y:    -2.4315      Z:     0.0056     Total:     2.8573

*** Psi4 exiting successfully. Buy a developer a beer!
