                               Psi4 1.4a3.dev225

  ==> Input File <==

--------------------------------------------------------------------------
#psi4
#
memory 32 gb

molecule  {
0 1
  O       -2.2261580     0.9189870    -0.1609950
  N        0.4211910     1.5299470     0.0903790
  C        0.0817250     0.2107030     0.0159890
  C        2.4145630    -0.5010270    -0.0428790
  C       -1.3460660    -0.1139160     0.0206840
  C        1.0420520    -0.8182650    -0.0594370
  C        2.7641530     0.8636850     0.0360660
  C       -2.0477590    -1.2949740     0.1722820
  C        3.4684270    -1.5756500    -0.0824610
  C        1.7493340     1.8260270     0.0926910
  C       -3.6227996    -0.9195522     0.0634218
  C       -3.4828100     0.3886030    -0.1245500
  H        0.7225460    -1.8551450    -0.1446860
  H        3.8080070     1.1710760     0.0438400
  H       -1.6259220    -2.2752860     0.3500510
  H        3.8398640    -1.7937090     0.9244500
  H        3.0687740    -2.5034170    -0.5007000
  H        4.3228250    -1.2652800    -0.6906580
  H        1.9977040     2.8869120     0.1452960
  H       -4.2730300    -1.6376780     0.1527080
  H       -4.2894270     1.0948070    -0.2563320
units angstrom
no_reorient  #important for SAPT in psi4, default
symmetry c1  #important for SAPT in psi4, default
}

set PROPERTIES_ORIGIN ["COM"]
properties('MP2/aug-cc-pvtz', properties = ['dipole'])
--------------------------------------------------------------------------

    Molecular point group: c1
  Charge       = 0
  Multiplicity = 1
  Basis Set: AUG-CC-PVTZ
    Blend: AUG-CC-PVTZ
  Basis Set: (AUG-CC-PVTZ AUX)
    Blend: AUG-CC-PVTZ-JKFIT

    Orbital Energies [Eh]
    ---------------------

    Doubly Occupied:

       1A    -20.617712     2A    -15.565555     3A    -11.299895
       4A    -11.296220     5A    -11.295622     6A    -11.279526
       7A    -11.272531     8A    -11.249329     9A    -11.243696
      10A    -11.240012    11A    -11.239975    12A    -11.237292
      13A     -1.450744    14A     -1.245463    15A     -1.105098
      16A     -1.069239    17A     -1.058674    18A     -0.988124
      19A     -0.968388    20A     -0.866625    21A     -0.834223
      22A     -0.813804    23A     -0.765554    24A     -0.725542
      25A     -0.675167    26A     -0.670576    27A     -0.640673
      28A     -0.632410    29A     -0.625290    30A     -0.591899
      31A     -0.591178    32A     -0.563369    33A     -0.552029
      34A     -0.546713    35A     -0.527230    36A     -0.513049
      37A     -0.489809    38A     -0.418866    39A     -0.389670
      40A     -0.379373    41A     -0.363932    42A     -0.299363

  @DF-RHF Final Energy:  -513.34353280540404

   => Energetics <=

    Nuclear Repulsion Energy =            626.1154929333184782
    One-Electron Energy =               -1938.5191736751087319
    Two-Electron Energy =                 799.0601479363861017
    Total Energy =                       -513.3435328054040383
  Basis Set: (AUG-CC-PVTZ AUX)
    Blend: AUG-CC-PVTZ-RI
    Molecular point group: c1

    Geometry (in Angstrom), charge = 0, multiplicity = 1:

       Center              X                  Y                   Z               Mass
    ------------   -----------------  -----------------  -----------------  -----------------
         O           -2.164368117474     0.876963418808    -0.159840281153    15.994914619570
         N            0.482980882526     1.487923418808     0.091533718847    14.003074004430
         C            0.143514882526     0.168679418808     0.017143718847    12.000000000000
         C            2.476352882526    -0.543050581192    -0.041724281153    12.000000000000
         C           -1.284276117474    -0.155939581192     0.021838718847    12.000000000000
         C            1.103841882526    -0.860288581192    -0.058282281153    12.000000000000
         C            2.825942882526     0.821661418808     0.037220718847    12.000000000000
         C           -1.985969117474    -1.336997581192     0.173436718847    12.000000000000
         C            3.530216882526    -1.617673581192    -0.081306281153    12.000000000000
         C            1.811123882526     1.784003418808     0.093845718847    12.000000000000
         C           -3.561009717474    -0.961575781192     0.064576518847    12.000000000000
         C           -3.421020117474     0.346579418808    -0.123395281153    12.000000000000
         H            0.784335882526    -1.897168581192    -0.143531281153     1.007825032230
         H            3.869796882526     1.129052418808     0.044994718847     1.007825032230
         H           -1.564132117474    -2.317309581192     0.351205718847     1.007825032230
         H            3.901653882526    -1.835732581192     0.925604718847     1.007825032230
         H            3.130563882526    -2.545440581192    -0.499545281153     1.007825032230
         H            4.384614882526    -1.307303581192    -0.689503281153     1.007825032230
         H            2.059493882526     2.844888418808     0.146450718847     1.007825032230
         H           -4.211240117474    -1.679701581192     0.153862718847     1.007825032230
         H           -4.227637117474     1.052783418808    -0.255177281153     1.007825032230

  Basis Set: AUG-CC-PVTZ
    Blend: AUG-CC-PVTZ
  Basis Set: (AUG-CC-PVTZ AUX)
    Blend: AUG-CC-PVTZ-JKFIT
	 Reference Energy          =    -513.3435328054040383 [Eh]
	 Singles Energy            =      -0.0000000000000000 [Eh]
	 Same-Spin Energy          =      -0.5563673005624077 [Eh]
	 Opposite-Spin Energy      =      -1.7131083739077719 [Eh]
	 Correlation Energy        =      -2.2694756744701796 [Eh]
	 Total Energy              =    -515.6130084798742246 [Eh]

	 ================> DF-SCS-MP2 Energies <==================
	-----------------------------------------------------------
	 SCS Same-Spin Scale       =       0.3333333333333333 [-]
	 SCS Opposite-Spin Scale   =       1.2000000000000000 [-]
	 SCS Same-Spin Energy      =      -0.1854557668541359 [Eh]
	 SCS Opposite-Spin Energy  =      -2.0557300486893264 [Eh]
	 SCS Correlation Energy    =      -2.2411858155434623 [Eh]
	 SCS Total Energy          =    -515.5847186209474557 [Eh]
	-----------------------------------------------------------

  Dipole Moment: [D]
     X:     1.6541      Y:    -2.4081      Z:     0.0053     Total:     2.9215

*** Psi4 exiting successfully. Buy a developer a beer!
