                               Psi4 1.4a3.dev225

  ==> Input File <==

--------------------------------------------------------------------------
#psi4
#
memory 32 gb

molecule  {
0 1
  O       -2.2261580     0.9189870    -0.1609950
  N        0.4211910     1.5299470     0.0903790
  C        0.0817250     0.2107030     0.0159890
  C        2.4767687    -0.4428926    -0.1044865
  C       -1.3460660    -0.1139160     0.0206840
  C        1.0420520    -0.8182650    -0.0594370
  C        2.7641530     0.8636850     0.0360660
  C       -2.0477590    -1.2949740     0.1722820
  C        3.4684270    -1.5756500    -0.0824610
  C        1.7493340     1.8260270     0.0926910
  C       -3.4286880    -0.9658200     0.0768380
  C       -3.4828100     0.3886030    -0.1245500
  H        0.7225460    -1.8551450    -0.1446860
  H        3.8080070     1.1710760     0.0438400
  H       -1.6259220    -2.2752860     0.3500510
  H        3.8398640    -1.7937090     0.9244500
  H        3.0687740    -2.5034170    -0.5007000
  H        4.3228250    -1.2652800    -0.6906580
  H        1.9977040     2.8869120     0.1452960
  H       -4.2730300    -1.6376780     0.1527080
  H       -4.2894270     1.0948070    -0.2563320
units angstrom
no_reorient  #important for SAPT in psi4, default
symmetry c1  #important for SAPT in psi4, default
}

set PROPERTIES_ORIGIN ["COM"]
properties('MP2/aug-cc-pvtz', properties = ['dipole'])
--------------------------------------------------------------------------

    Molecular point group: c1
  Charge       = 0
  Multiplicity = 1
  Basis Set: AUG-CC-PVTZ
    Blend: AUG-CC-PVTZ
  Basis Set: (AUG-CC-PVTZ AUX)
    Blend: AUG-CC-PVTZ-JKFIT

    Orbital Energies [Eh]
    ---------------------

    Doubly Occupied:

       1A    -20.620637     2A    -15.565417     3A    -11.295881
       4A    -11.291417     5A    -11.291053     6A    -11.283346
       7A    -11.272302     8A    -11.248078     9A    -11.240181
      10A    -11.236406    11A    -11.234169    12A    -11.232452
      13A     -1.452578    14A     -1.244960    15A     -1.107190
      16A     -1.086457    17A     -1.056505    18A     -0.985232
      19A     -0.966060    20A     -0.863759    21A     -0.837208
      22A     -0.799608    23A     -0.762806    24A     -0.725841
      25A     -0.675112    26A     -0.668414    27A     -0.640425
      28A     -0.632484    29A     -0.599094    30A     -0.591298
      31A     -0.577982    32A     -0.566080    33A     -0.560918
      34A     -0.549736    35A     -0.538528    36A     -0.525290
      37A     -0.501887    38A     -0.418904    39A     -0.402316
      40A     -0.382475    41A     -0.356643    42A     -0.286793

  @DF-RHF Final Energy:  -513.36676260439936

   => Energetics <=

    Nuclear Repulsion Energy =            628.5978389090865903
    One-Electron Energy =               -1943.5813598562663174
    Two-Electron Energy =                 801.6167583427804857
    Total Energy =                       -513.3667626043993550
  Basis Set: (AUG-CC-PVTZ AUX)
    Blend: AUG-CC-PVTZ-RI
    Molecular point group: c1

    Geometry (in Angstrom), charge = 0, multiplicity = 1:

       Center              X                  Y                   Z               Mass
    ------------   -----------------  -----------------  -----------------  -----------------
         O           -2.183704499376     0.876068211541    -0.156204766183    15.994914619570
         N            0.463644500624     1.487028211541     0.095169233817    14.003074004430
         C            0.124178500624     0.167784211541     0.020779233817    12.000000000000
         C            2.519222200624    -0.485811388459    -0.099696266183    12.000000000000
         C           -1.303612499376    -0.156834788459     0.025474233817    12.000000000000
         C            1.084505500624    -0.861183788459    -0.054646766183    12.000000000000
         C            2.806606500624     0.820766211541     0.040856233817    12.000000000000
         C           -2.005305499376    -1.337892788459     0.177072233817    12.000000000000
         C            3.510880500624    -1.618568788459    -0.077670766183    12.000000000000
         C            1.791787500624     1.783108211541     0.097481233817    12.000000000000
         C           -3.386234499376    -1.008738788459     0.081628233817    12.000000000000
         C           -3.440356499376     0.345684211541    -0.119759766183    12.000000000000
         H            0.764999500624    -1.898063788459    -0.139895766183     1.007825032230
         H            3.850460500624     1.128157211541     0.048630233817     1.007825032230
         H           -1.583468499376    -2.318204788459     0.354841233817     1.007825032230
         H            3.882317500624    -1.836627788459     0.929240233817     1.007825032230
         H            3.111227500624    -2.546335788459    -0.495909766183     1.007825032230
         H            4.365278500624    -1.308198788459    -0.685867766183     1.007825032230
         H            2.040157500624     2.843993211541     0.150086233817     1.007825032230
         H           -4.230576499376    -1.680596788459     0.157498233817     1.007825032230
         H           -4.246973499376     1.051888211541    -0.251541766183     1.007825032230

  Basis Set: AUG-CC-PVTZ
    Blend: AUG-CC-PVTZ
  Basis Set: (AUG-CC-PVTZ AUX)
    Blend: AUG-CC-PVTZ-JKFIT
	 Reference Energy          =    -513.3667626043993550 [Eh]
	 Singles Energy            =      -0.0000000000000000 [Eh]
	 Same-Spin Energy          =      -0.5591589659919294 [Eh]
	 Opposite-Spin Energy      =      -1.7143941017134527 [Eh]
	 Correlation Energy        =      -2.2735530677053823 [Eh]
	 Total Energy              =    -515.6403156721047480 [Eh]

	 ================> DF-SCS-MP2 Energies <==================
	-----------------------------------------------------------
	 SCS Same-Spin Scale       =       0.3333333333333333 [-]
	 SCS Opposite-Spin Scale   =       1.2000000000000000 [-]
	 SCS Same-Spin Energy      =      -0.1863863219973098 [Eh]
	 SCS Opposite-Spin Energy  =      -2.0572729220561432 [Eh]
	 SCS Correlation Energy    =      -2.2436592440534531 [Eh]
	 SCS Total Energy          =    -515.6104218484528019 [Eh]
	-----------------------------------------------------------

  Dipole Moment: [D]
     X:     1.5449      Y:    -2.3380      Z:     0.0251     Total:     2.8024

*** Psi4 exiting successfully. Buy a developer a beer!
