                               Psi4 1.4a3.dev225

  ==> Input File <==

--------------------------------------------------------------------------
#psi4
#
memory 32 gb

molecule  {
0 1
  O       -2.2261580     0.9189870    -0.1609950
  N        0.4211910     1.5299470     0.0903790
  C        0.0817250     0.2107030     0.0159890
  C        2.4145630    -0.5010270    -0.0428790
  C       -1.3460660    -0.1139160     0.0206840
  C        1.0420520    -0.8182650    -0.0594370
  C        2.7641530     0.8636850     0.0360660
  C       -2.0477590    -1.2949740     0.1722820
  C        3.4684270    -1.5756500    -0.0824610
  C        1.7493340     1.8260270     0.0926910
  C       -3.4286880    -0.9658200     0.0768380
  C       -3.4828100     0.3886030    -0.1245500
  H        0.7225460    -1.8551450    -0.1446860
  H        3.8080070     1.1710760     0.0438400
  H       -1.6454168    -2.2299819     0.3418356
  H        3.8398640    -1.7937090     0.9244500
  H        3.0687740    -2.5034170    -0.5007000
  H        4.3228250    -1.2652800    -0.6906580
  H        1.9977040     2.8869120     0.1452960
  H       -4.2730300    -1.6376780     0.1527080
  H       -4.2894270     1.0948070    -0.2563320
units angstrom
no_reorient  #important for SAPT in psi4, default
symmetry c1  #important for SAPT in psi4, default
}

set PROPERTIES_ORIGIN ["COM"]
properties('MP2/aug-cc-pvtz', properties = ['dipole'])
--------------------------------------------------------------------------

    Molecular point group: c1
  Charge       = 0
  Multiplicity = 1
  Basis Set: AUG-CC-PVTZ
    Blend: AUG-CC-PVTZ
  Basis Set: (AUG-CC-PVTZ AUX)
    Blend: AUG-CC-PVTZ-JKFIT

    Orbital Energies [Eh]
    ---------------------

    Doubly Occupied:

       1A    -20.621593     2A    -15.563755     3A    -11.297029
       4A    -11.294478     5A    -11.292958     6A    -11.278798
       7A    -11.271948     8A    -11.242648     9A    -11.239545
      10A    -11.238535    11A    -11.233873    12A    -11.232789
      13A     -1.453640    14A     -1.244231    15A     -1.104370
      16A     -1.088806    17A     -1.057712    18A     -0.984653
      19A     -0.968207    20A     -0.864027    21A     -0.836193
      22A     -0.803490    23A     -0.767934    24A     -0.729061
      25A     -0.673251    26A     -0.669004    27A     -0.639869
      28A     -0.633383    29A     -0.600671    30A     -0.590673
      31A     -0.582700    32A     -0.568337    33A     -0.559414
      34A     -0.547593    35A     -0.540508    36A     -0.525405
      37A     -0.509915    38A     -0.417703    39A     -0.402270
      40A     -0.375903    41A     -0.362587    42A     -0.287823

  @DF-RHF Final Energy:  -513.37639205003575

   => Energetics <=

    Nuclear Repulsion Energy =            629.1859471845012877
    One-Electron Energy =               -1944.7301192470383739
    Two-Electron Energy =                 802.1677800125014528
    Total Energy =                       -513.3763920500357472
  Basis Set: (AUG-CC-PVTZ AUX)
    Blend: AUG-CC-PVTZ-RI
    Molecular point group: c1

    Geometry (in Angstrom), charge = 0, multiplicity = 1:

       Center              X                  Y                   Z               Mass
    ------------   -----------------  -----------------  -----------------  -----------------
         O           -2.178888233666     0.880166788864    -0.160800337964    15.994914619570
         N            0.468460766334     1.491126788864     0.090573662036    14.003074004430
         C            0.128994766334     0.171882788864     0.016183662036    12.000000000000
         C            2.461832766334    -0.539847211136    -0.042684337964    12.000000000000
         C           -1.298796233666    -0.152736211136     0.020878662036    12.000000000000
         C            1.089321766334    -0.857085211136    -0.059242337964    12.000000000000
         C            2.811422766334     0.824864788864     0.036260662036    12.000000000000
         C           -2.000489233666    -1.333794211136     0.172476662036    12.000000000000
         C            3.515696766334    -1.614470211136    -0.082266337964    12.000000000000
         C            1.796603766334     1.787206788864     0.092885662036    12.000000000000
         C           -3.381418233666    -1.004640211136     0.077032662036    12.000000000000
         C           -3.435540233666     0.349782788864    -0.124355337964    12.000000000000
         H            0.769815766334    -1.893965211136    -0.144491337964     1.007825032230
         H            3.855276766334     1.132255788864     0.044034662036     1.007825032230
         H           -1.598147033666    -2.268802111136     0.342030262036     1.007825032230
         H            3.887133766334    -1.832529211136     0.924644662036     1.007825032230
         H            3.116043766334    -2.542237211136    -0.500505337964     1.007825032230
         H            4.370094766334    -1.304100211136    -0.690463337964     1.007825032230
         H            2.044973766334     2.848091788864     0.145490662036     1.007825032230
         H           -4.225760233666    -1.676498211136     0.152902662036     1.007825032230
         H           -4.242157233666     1.055986788864    -0.256137337964     1.007825032230

  Basis Set: AUG-CC-PVTZ
    Blend: AUG-CC-PVTZ
  Basis Set: (AUG-CC-PVTZ AUX)
    Blend: AUG-CC-PVTZ-JKFIT
	 Reference Energy          =    -513.3763920500357472 [Eh]
	 Singles Energy            =      -0.0000000000000000 [Eh]
	 Same-Spin Energy          =      -0.5589796792923012 [Eh]
	 Opposite-Spin Energy      =      -1.7133076455550498 [Eh]
	 Correlation Energy        =      -2.2722873248473512 [Eh]
	 Total Energy              =    -515.6486793748830451 [Eh]

	 ================> DF-SCS-MP2 Energies <==================
	-----------------------------------------------------------
	 SCS Same-Spin Scale       =       0.3333333333333333 [-]
	 SCS Opposite-Spin Scale   =       1.2000000000000000 [-]
	 SCS Same-Spin Energy      =      -0.1863265597641004 [Eh]
	 SCS Opposite-Spin Energy  =      -2.0559691746660596 [Eh]
	 SCS Correlation Energy    =      -2.2422957344301597 [Eh]
	 SCS Total Energy          =    -515.6186877844659193 [Eh]
	-----------------------------------------------------------

  Dipole Moment: [D]
     X:     1.4929      Y:    -2.3720      Z:    -0.0047     Total:     2.8027

*** Psi4 exiting successfully. Buy a developer a beer!
