                               Psi4 1.4a3.dev225

  ==> Input File <==

--------------------------------------------------------------------------
#psi4
#
memory 32 gb

molecule  {
0 1
  O       -2.2261580     0.9189870    -0.1609950
  N        0.4211910     1.5299470     0.0903790
  C        0.0817250     0.2107030     0.0159890
  C        2.4145630    -0.5010270    -0.0428790
  C       -1.3460660    -0.1139160     0.0206840
  C        1.0420520    -0.8182650    -0.0594370
  C        2.7641530     0.8636850     0.0360660
  C       -2.0477590    -1.2949740     0.1722820
  C        3.4684270    -1.5756500    -0.0824610
  C        1.7493340     1.8260270     0.0926910
  C       -3.4286880    -0.9658200     0.0768380
  C       -3.4828100     0.3886030    -0.1245500
  H        0.7225460    -1.8551450    -0.1446860
  H        3.8559694     1.1851998     0.0441972
  H       -1.6259220    -2.2752860     0.3500510
  H        3.8398640    -1.7937090     0.9244500
  H        3.0687740    -2.5034170    -0.5007000
  H        4.3228250    -1.2652800    -0.6906580
  H        1.9977040     2.8869120     0.1452960
  H       -4.2730300    -1.6376780     0.1527080
  H       -4.2894270     1.0948070    -0.2563320
units angstrom
no_reorient  #important for SAPT in psi4, default
symmetry c1  #important for SAPT in psi4, default
}

set PROPERTIES_ORIGIN ["COM"]
properties('MP2/aug-cc-pvtz', properties = ['dipole'])
--------------------------------------------------------------------------

    Molecular point group: c1
  Charge       = 0
  Multiplicity = 1
  Basis Set: AUG-CC-PVTZ
    Blend: AUG-CC-PVTZ
  Basis Set: (AUG-CC-PVTZ AUX)
    Blend: AUG-CC-PVTZ-JKFIT

    Orbital Energies [Eh]
    ---------------------

    Doubly Occupied:

       1A    -20.622042     2A    -15.564140     3A    -11.297446
       4A    -11.294692     5A    -11.293394     6A    -11.279218
       7A    -11.272396     8A    -11.244174     9A    -11.242921
      10A    -11.239482    11A    -11.239116    12A    -11.234013
      13A     -1.454081    14A     -1.244518    15A     -1.104105
      16A     -1.087924    17A     -1.057673    18A     -0.983435
      19A     -0.968082    20A     -0.861522    21A     -0.836389
      22A     -0.800380    23A     -0.764745    24A     -0.727890
      25A     -0.669522    26A     -0.666644    27A     -0.638767
      28A     -0.633743    29A     -0.599445    30A     -0.590610
      31A     -0.577135    32A     -0.566267    33A     -0.557308
      34A     -0.547753    35A     -0.540810    36A     -0.525677
      37A     -0.508231    38A     -0.417816    39A     -0.402637
      40A     -0.376210    41A     -0.362848    42A     -0.288112

  @DF-RHF Final Energy:  -513.37469398349253

   => Energetics <=

    Nuclear Repulsion Energy =            628.6748324331306321
    One-Electron Energy =               -1943.7324259818065002
    Two-Electron Energy =                 801.6828995651833338
    Total Energy =                       -513.3746939834925342
  Basis Set: (AUG-CC-PVTZ AUX)
    Blend: AUG-CC-PVTZ-RI
    Molecular point group: c1

    Geometry (in Angstrom), charge = 0, multiplicity = 1:

       Center              X                  Y                   Z               Mass
    ------------   -----------------  -----------------  -----------------  -----------------
         O           -2.179315628729     0.880364340886    -0.160854652209    15.994914619570
         N            0.468033371271     1.491324340886     0.090519347791    14.003074004430
         C            0.128567371271     0.172080340886     0.016129347791    12.000000000000
         C            2.461405371271    -0.539649659114    -0.042738652209    12.000000000000
         C           -1.299223628729    -0.152538659114     0.020824347791    12.000000000000
         C            1.088894371271    -0.856887659114    -0.059296652209    12.000000000000
         C            2.810995371271     0.825062340886     0.036206347791    12.000000000000
         C           -2.000916628729    -1.333596659114     0.172422347791    12.000000000000
         C            3.515269371271    -1.614272659114    -0.082320652209    12.000000000000
         C            1.796176371271     1.787404340886     0.092831347791    12.000000000000
         C           -3.381845628729    -1.004442659114     0.076978347791    12.000000000000
         C           -3.435967628729     0.349980340886    -0.124409652209    12.000000000000
         H            0.769388371271    -1.893767659114    -0.144545652209     1.007825032230
         H            3.902811771271     1.146577140886     0.044337547791     1.007825032230
         H           -1.579079628729    -2.313908659114     0.350191347791     1.007825032230
         H            3.886706371271    -1.832331659114     0.924590347791     1.007825032230
         H            3.115616371271    -2.542039659114    -0.500559652209     1.007825032230
         H            4.369667371271    -1.303902659114    -0.690517652209     1.007825032230
         H            2.044546371271     2.848289340886     0.145436347791     1.007825032230
         H           -4.226187628729    -1.676300659114     0.152848347791     1.007825032230
         H           -4.242584628729     1.056184340886    -0.256191652209     1.007825032230

  Basis Set: AUG-CC-PVTZ
    Blend: AUG-CC-PVTZ
  Basis Set: (AUG-CC-PVTZ AUX)
    Blend: AUG-CC-PVTZ-JKFIT
	 Reference Energy          =    -513.3746939834925342 [Eh]
	 Singles Energy            =      -0.0000000000000000 [Eh]
	 Same-Spin Energy          =      -0.5591982757587299 [Eh]
	 Opposite-Spin Energy      =      -1.7140561956839944 [Eh]
	 Correlation Energy        =      -2.2732544714427245 [Eh]
	 Total Energy              =    -515.6479484549352037 [Eh]

	 ================> DF-SCS-MP2 Energies <==================
	-----------------------------------------------------------
	 SCS Same-Spin Scale       =       0.3333333333333333 [-]
	 SCS Opposite-Spin Scale   =       1.2000000000000000 [-]
	 SCS Same-Spin Energy      =      -0.1863994252529100 [Eh]
	 SCS Opposite-Spin Energy  =      -2.0568674348207932 [Eh]
	 SCS Correlation Energy    =      -2.2432668600737031 [Eh]
	 SCS Total Energy          =    -515.6179608435662658 [Eh]
	-----------------------------------------------------------

  Dipole Moment: [D]
     X:     1.4632      Y:    -2.3780      Z:    -0.0047     Total:     2.7921

*** Psi4 exiting successfully. Buy a developer a beer!
