                               Psi4 1.4a3.dev225

  ==> Input File <==

--------------------------------------------------------------------------
#psi4
#
memory 32 gb

molecule  {
0 1
  O       -2.2261580     0.9189870    -0.1609950
  N        0.4211910     1.5299470     0.0903790
  C        0.0817250     0.2107030     0.0159890
  C        2.4145630    -0.5010270    -0.0428790
  C       -1.3460660    -0.1139160     0.0206840
  C        1.0420520    -0.8182650    -0.0594370
  C        2.7641530     0.8636850     0.0360660
  C       -2.0477590    -1.2949740     0.1722820
  C        3.4684270    -1.5756500    -0.0824610
  C        1.7493340     1.8260270     0.0926910
  C       -3.4286880    -0.9658200     0.0768380
  C       -3.4828100     0.3886030    -0.1245500
  H        0.7225460    -1.8551450    -0.1446860
  H        3.8080070     1.1710760     0.0438400
  H       -1.6259220    -2.2752860     0.3500510
  H        3.8398640    -1.7937090     0.9244500
  H        3.0687740    -2.5034170    -0.5007000
  H        4.3228250    -1.2652800    -0.6906580
  H        1.9521666     2.6924041     0.1356511
  H       -4.2730300    -1.6376780     0.1527080
  H       -4.2894270     1.0948070    -0.2563320
units angstrom
no_reorient  #important for SAPT in psi4, default
symmetry c1  #important for SAPT in psi4, default
}

set PROPERTIES_ORIGIN ["COM"]
properties('MP2/aug-cc-pvtz', properties = ['dipole'])
--------------------------------------------------------------------------

    Molecular point group: c1
  Charge       = 0
  Multiplicity = 1
  Basis Set: AUG-CC-PVTZ
    Blend: AUG-CC-PVTZ
  Basis Set: (AUG-CC-PVTZ AUX)
    Blend: AUG-CC-PVTZ-JKFIT

    Orbital Energies [Eh]
    ---------------------

    Doubly Occupied:

       1A    -20.621555     2A    -15.562638     3A    -11.296837
       4A    -11.293298     5A    -11.292914     6A    -11.271022
       7A    -11.255228     8A    -11.242381     9A    -11.239017
      10A    -11.238532    11A    -11.237443    12A    -11.233598
      13A     -1.453592    14A     -1.244725    15A     -1.103673
      16A     -1.087939    17A     -1.062589    18A     -0.987825
      19A     -0.967597    20A     -0.872153    21A     -0.849378
      22A     -0.803620    23A     -0.764628    24A     -0.731964
      25A     -0.675675    26A     -0.668273    27A     -0.661200
      28A     -0.633586    29A     -0.606612    30A     -0.590185
      31A     -0.578543    32A     -0.566202    33A     -0.558806
      34A     -0.548137    35A     -0.540374    36A     -0.524642
      37A     -0.514796    38A     -0.418937    39A     -0.402173
      40A     -0.375433    41A     -0.362048    42A     -0.287561

  @DF-RHF Final Energy:  -513.34402211350061

   => Energetics <=

    Nuclear Repulsion Energy =            630.1488942792857415
    One-Electron Energy =               -1946.5311752527377394
    Two-Electron Energy =                 803.0382588599513838
    Total Energy =                       -513.3440221135006141
  Basis Set: (AUG-CC-PVTZ AUX)
    Blend: AUG-CC-PVTZ-RI
    Molecular point group: c1

    Geometry (in Angstrom), charge = 0, multiplicity = 1:

       Center              X                  Y                   Z               Mass
    ------------   -----------------  -----------------  -----------------  -----------------
         O           -2.178723233064     0.881686188791    -0.160791280944    15.994914619570
         N            0.468625766936     1.492646188791     0.090582719056    14.003074004430
         C            0.129159766936     0.173402188791     0.016192719056    12.000000000000
         C            2.461997766936    -0.538327811209    -0.042675280944    12.000000000000
         C           -1.298631233064    -0.151216811209     0.020887719056    12.000000000000
         C            1.089486766936    -0.855565811209    -0.059233280944    12.000000000000
         C            2.811587766936     0.826384188791     0.036269719056    12.000000000000
         C           -2.000324233064    -1.332274811209     0.172485719056    12.000000000000
         C            3.515861766936    -1.612950811209    -0.082257280944    12.000000000000
         C            1.796768766936     1.788726188791     0.092894719056    12.000000000000
         C           -3.381253233064    -1.003120811209     0.077041719056    12.000000000000
         C           -3.435375233064     0.351302188791    -0.124346280944    12.000000000000
         H            0.769980766936    -1.892445811209    -0.144482280944     1.007825032230
         H            3.855441766936     1.133775188791     0.044043719056     1.007825032230
         H           -1.578487233064    -2.312586811209     0.350254719056     1.007825032230
         H            3.887298766936    -1.831009811209     0.924653719056     1.007825032230
         H            3.116208766936    -2.540717811209    -0.500496280944     1.007825032230
         H            4.370259766936    -1.302580811209    -0.690454280944     1.007825032230
         H            1.999601366936     2.655103288791     0.135854819056     1.007825032230
         H           -4.225595233064    -1.674978811209     0.152911719056     1.007825032230
         H           -4.241992233064     1.057506188791    -0.256128280944     1.007825032230

  Basis Set: AUG-CC-PVTZ
    Blend: AUG-CC-PVTZ
  Basis Set: (AUG-CC-PVTZ AUX)
    Blend: AUG-CC-PVTZ-JKFIT
	 Reference Energy          =    -513.3440221135006141 [Eh]
	 Singles Energy            =      -0.0000000000000000 [Eh]
	 Same-Spin Energy          =      -0.5588051431074333 [Eh]
	 Opposite-Spin Energy      =      -1.7129222440264109 [Eh]
	 Correlation Energy        =      -2.2717273871338444 [Eh]
	 Total Energy              =    -515.6157495006344789 [Eh]

	 ================> DF-SCS-MP2 Energies <==================
	-----------------------------------------------------------
	 SCS Same-Spin Scale       =       0.3333333333333333 [-]
	 SCS Opposite-Spin Scale   =       1.2000000000000000 [-]
	 SCS Same-Spin Energy      =      -0.1862683810358111 [Eh]
	 SCS Opposite-Spin Energy  =      -2.0555066928316932 [Eh]
	 SCS Correlation Energy    =      -2.2417750738675042 [Eh]
	 SCS Total Energy          =    -515.5857971873681436 [Eh]
	-----------------------------------------------------------

  Dipole Moment: [D]
     X:     1.5250      Y:    -2.3372      Z:    -0.0032     Total:     2.7907

*** Psi4 exiting successfully. Buy a developer a beer!
