                               Psi4 1.4a3.dev225

  ==> Input File <==

--------------------------------------------------------------------------
#psi4
#
memory 32 gb

molecule  {
0 1
  O       -2.2261580     0.9189870    -0.1609950
  N        0.4211910     1.5299470     0.0903790
  C        0.0817250     0.2107030     0.0159890
  C        2.4145630    -0.5010270    -0.0428790
  C       -1.3460660    -0.1139160     0.0206840
  C        1.0420520    -0.8182650    -0.0594370
  C        2.7641530     0.8636850     0.0360660
  C       -2.0477590    -1.2949740     0.1722820
  C        3.4684270    -1.5756500    -0.0824610
  C        1.7493340     1.8260270     0.0926910
  C       -3.4286880    -0.9658200     0.0768380
  C       -3.4828100     0.3886030    -0.1245500
  H        0.7225460    -1.8551450    -0.1446860
  H        3.7888220     1.1654265     0.0436971
  H       -1.6259220    -2.2752860     0.3500510
  H        3.8398640    -1.7937090     0.9244500
  H        3.0687740    -2.5034170    -0.5007000
  H        4.3228250    -1.2652800    -0.6906580
  H        1.9977040     2.8869120     0.1452960
  H       -4.2730300    -1.6376780     0.1527080
  H       -4.2894270     1.0948070    -0.2563320
units angstrom
no_reorient  #important for SAPT in psi4, default
symmetry c1  #important for SAPT in psi4, default
}

set PROPERTIES_ORIGIN ["COM"]
properties('MP2/aug-cc-pvtz', properties = ['dipole'])
--------------------------------------------------------------------------

    Molecular point group: c1
  Charge       = 0
  Multiplicity = 1
  Basis Set: AUG-CC-PVTZ
    Blend: AUG-CC-PVTZ
  Basis Set: (AUG-CC-PVTZ AUX)
    Blend: AUG-CC-PVTZ-JKFIT

    Orbital Energies [Eh]
    ---------------------

    Doubly Occupied:

       1A    -20.621858     2A    -15.563575     3A    -11.297243
       4A    -11.294374     5A    -11.293226     6A    -11.278572
       7A    -11.271667     8A    -11.242382     9A    -11.239503
      10A    -11.238921    11A    -11.236153    12A    -11.233859
      13A     -1.453896    14A     -1.244074    15A     -1.104412
      16A     -1.087834    17A     -1.057873    18A     -0.984771
      19A     -0.968129    20A     -0.863917    21A     -0.836094
      22A     -0.800308    23A     -0.764971    24A     -0.727710
      25A     -0.675807    26A     -0.668670    27A     -0.640026
      28A     -0.633626    29A     -0.599775    30A     -0.590632
      31A     -0.579574    32A     -0.566196    33A     -0.559522
      34A     -0.547498    35A     -0.540616    36A     -0.525275
      37A     -0.510380    38A     -0.417617    39A     -0.402437
      40A     -0.375884    41A     -0.362415    42A     -0.287885

  @DF-RHF Final Energy:  -513.37737329916240

   => Energetics <=

    Nuclear Repulsion Energy =            629.0384941498080025
    One-Electron Energy =               -1944.4534191879679383
    Two-Electron Energy =                 802.0375517389975357
    Total Energy =                       -513.3773732991624001
  Basis Set: (AUG-CC-PVTZ AUX)
    Blend: AUG-CC-PVTZ-RI
    Molecular point group: c1

    Geometry (in Angstrom), charge = 0, multiplicity = 1:

       Center              X                  Y                   Z               Mass
    ------------   -----------------  -----------------  -----------------  -----------------
         O           -2.178890196496     0.880489620482    -0.160851483678    15.994914619570
         N            0.468458803504     1.491449620482     0.090522516322    14.003074004430
         C            0.128992803504     0.172205620482     0.016132516322    12.000000000000
         C            2.461830803504    -0.539524379518    -0.042735483678    12.000000000000
         C           -1.298798196496    -0.152413379518     0.020827516322    12.000000000000
         C            1.089319803504    -0.856762379518    -0.059293483678    12.000000000000
         C            2.811420803504     0.825187620482     0.036209516322    12.000000000000
         C           -2.000491196496    -1.333471379518     0.172425516322    12.000000000000
         C            3.515694803504    -1.614147379518    -0.082317483678    12.000000000000
         C            1.796601803504     1.787529620482     0.092834516322    12.000000000000
         C           -3.381420196496    -1.004317379518     0.076981516322    12.000000000000
         C           -3.435542196496     0.350105620482    -0.124406483678    12.000000000000
         H            0.769813803504    -1.893642379518    -0.144542483678     1.007825032230
         H            3.836089803504     1.126929120482     0.043840616322     1.007825032230
         H           -1.578654196496    -2.313783379518     0.350194516322     1.007825032230
         H            3.887131803504    -1.832206379518     0.924593516322     1.007825032230
         H            3.116041803504    -2.541914379518    -0.500556483678     1.007825032230
         H            4.370092803504    -1.303777379518    -0.690514483678     1.007825032230
         H            2.044971803504     2.848414620482     0.145439516322     1.007825032230
         H           -4.225762196496    -1.676175379518     0.152851516322     1.007825032230
         H           -4.242159196496     1.056309620482    -0.256188483678     1.007825032230

  Basis Set: AUG-CC-PVTZ
    Blend: AUG-CC-PVTZ
  Basis Set: (AUG-CC-PVTZ AUX)
    Blend: AUG-CC-PVTZ-JKFIT
	 Reference Energy          =    -513.3773732991624001 [Eh]
	 Singles Energy            =      -0.0000000000000000 [Eh]
	 Same-Spin Energy          =      -0.5590279124459826 [Eh]
	 Opposite-Spin Energy      =      -1.7134760998634218 [Eh]
	 Correlation Energy        =      -2.2725040123094042 [Eh]
	 Total Energy              =    -515.6498773114717551 [Eh]

	 ================> DF-SCS-MP2 Energies <==================
	-----------------------------------------------------------
	 SCS Same-Spin Scale       =       0.3333333333333333 [-]
	 SCS Opposite-Spin Scale   =       1.2000000000000000 [-]
	 SCS Same-Spin Energy      =      -0.1863426374819942 [Eh]
	 SCS Opposite-Spin Energy  =      -2.0561713198361060 [Eh]
	 SCS Correlation Energy    =      -2.2425139573181001 [Eh]
	 SCS Total Energy          =    -515.6198872564805242 [Eh]
	-----------------------------------------------------------

  Dipole Moment: [D]
     X:     1.4903      Y:    -2.3705      Z:    -0.0047     Total:     2.8000

*** Psi4 exiting successfully. Buy a developer a beer!
