                               Psi4 1.4a3.dev225

  ==> Input File <==

--------------------------------------------------------------------------
#psi4
#
memory 32 gb

molecule  {
0 1
  O       -2.2261580     0.9189870    -0.1609950
  N        0.4211910     1.5299470     0.0903790
  C        0.0817250     0.2107030     0.0159890
  C        2.3670713    -0.4880466    -0.0416012
  C       -1.3460660    -0.1139160     0.0206840
  C        1.0420520    -0.8182650    -0.0594370
  C        2.7641530     0.8636850     0.0360660
  C       -2.0477590    -1.2949740     0.1722820
  C        3.4684270    -1.5756500    -0.0824610
  C        1.7493340     1.8260270     0.0926910
  C       -3.4286880    -0.9658200     0.0768380
  C       -3.4828100     0.3886030    -0.1245500
  H        0.7225460    -1.8551450    -0.1446860
  H        3.8080070     1.1710760     0.0438400
  H       -1.6259220    -2.2752860     0.3500510
  H        3.8398640    -1.7937090     0.9244500
  H        3.0687740    -2.5034170    -0.5007000
  H        4.3228250    -1.2652800    -0.6906580
  H        1.9977040     2.8869120     0.1452960
  H       -4.2730300    -1.6376780     0.1527080
  H       -4.2894270     1.0948070    -0.2563320
units angstrom
no_reorient  #important for SAPT in psi4, default
symmetry c1  #important for SAPT in psi4, default
}

set PROPERTIES_ORIGIN ["COM"]
properties('MP2/aug-cc-pvtz', properties = ['dipole'])
--------------------------------------------------------------------------

    Molecular point group: c1
  Charge       = 0
  Multiplicity = 1
  Basis Set: AUG-CC-PVTZ
    Blend: AUG-CC-PVTZ
  Basis Set: (AUG-CC-PVTZ AUX)
    Blend: AUG-CC-PVTZ-JKFIT

    Orbital Energies [Eh]
    ---------------------

    Doubly Occupied:

       1A    -20.622602     2A    -15.563655     3A    -11.297865
       4A    -11.295577     5A    -11.294367     6A    -11.277607
       7A    -11.267807     8A    -11.240286     9A    -11.239496
      10A    -11.238494    11A    -11.237893    12A    -11.234704
      13A     -1.454690    14A     -1.245847    15A     -1.104312
      16A     -1.088583    17A     -1.059040    18A     -0.985911
      19A     -0.963022    20A     -0.866303    21A     -0.836264
      22A     -0.801072    23A     -0.765687    24A     -0.727890
      25A     -0.675910    26A     -0.668475    27A     -0.638797
      28A     -0.634211    29A     -0.600749    30A     -0.586345
      31A     -0.580833    32A     -0.567044    33A     -0.557022
      34A     -0.545189    35A     -0.532630    36A     -0.527135
      37A     -0.514688    38A     -0.416134    39A     -0.403145
      40A     -0.376894    41A     -0.367728    42A     -0.288693

  @DF-RHF Final Energy:  -513.37644551205631

   => Energetics <=

    Nuclear Repulsion Energy =            629.5310957865826822
    One-Electron Energy =               -1945.4338915737052957
    Two-Electron Energy =                 802.5263502750663065
    Total Energy =                       -513.3764455120563071
  Basis Set: (AUG-CC-PVTZ AUX)
    Blend: AUG-CC-PVTZ-RI
    Molecular point group: c1

    Geometry (in Angstrom), charge = 0, multiplicity = 1:

       Center              X                  Y                   Z               Mass
    ------------   -----------------  -----------------  -----------------  -----------------
         O           -2.175429011065     0.879474594912    -0.160948785322    15.994914619570
         N            0.471919988935     1.490434594912     0.090425214678    14.003074004430
         C            0.132453988935     0.171190594912     0.016035214678    12.000000000000
         C            2.417800288935    -0.527559005088    -0.041554985322    12.000000000000
         C           -1.295337011065    -0.153428405088     0.020730214678    12.000000000000
         C            1.092780988935    -0.857777405088    -0.059390785322    12.000000000000
         C            2.814881988935     0.824172594912     0.036112214678    12.000000000000
         C           -1.997030011065    -1.334486405088     0.172328214678    12.000000000000
         C            3.519155988935    -1.615162405088    -0.082414785322    12.000000000000
         C            1.800062988935     1.786514594912     0.092737214678    12.000000000000
         C           -3.377959011065    -1.005332405088     0.076884214678    12.000000000000
         C           -3.432081011065     0.349090594912    -0.124503785322    12.000000000000
         H            0.773274988935    -1.894657405088    -0.144639785322     1.007825032230
         H            3.858735988935     1.131563594912     0.043886214678     1.007825032230
         H           -1.575193011065    -2.314798405088     0.350097214678     1.007825032230
         H            3.890592988935    -1.833221405088     0.924496214678     1.007825032230
         H            3.119502988935    -2.542929405088    -0.500653785322     1.007825032230
         H            4.373553988935    -1.304792405088    -0.690611785322     1.007825032230
         H            2.048432988935     2.847399594912     0.145342214678     1.007825032230
         H           -4.222301011065    -1.677190405088     0.152754214678     1.007825032230
         H           -4.238698011065     1.055294594912    -0.256285785322     1.007825032230

  Basis Set: AUG-CC-PVTZ
    Blend: AUG-CC-PVTZ
  Basis Set: (AUG-CC-PVTZ AUX)
    Blend: AUG-CC-PVTZ-JKFIT
	 Reference Energy          =    -513.3764455120563071 [Eh]
	 Singles Energy            =      -0.0000000000000000 [Eh]
	 Same-Spin Energy          =      -0.5586639063150526 [Eh]
	 Opposite-Spin Energy      =      -1.7130541007912445 [Eh]
	 Correlation Energy        =      -2.2717180071062972 [Eh]
	 Total Energy              =    -515.6481635191626083 [Eh]

	 ================> DF-SCS-MP2 Energies <==================
	-----------------------------------------------------------
	 SCS Same-Spin Scale       =       0.3333333333333333 [-]
	 SCS Opposite-Spin Scale   =       1.2000000000000000 [-]
	 SCS Same-Spin Energy      =      -0.1862213021050175 [Eh]
	 SCS Opposite-Spin Energy  =      -2.0556649209494933 [Eh]
	 SCS Correlation Energy    =      -2.2418862230545109 [Eh]
	 SCS Total Energy          =    -515.6183317351108144 [Eh]
	-----------------------------------------------------------

  Dipole Moment: [D]
     X:     1.3838      Y:    -2.3191      Z:    -0.0061     Total:     2.7006

*** Psi4 exiting successfully. Buy a developer a beer!
