                               Psi4 1.4a3.dev225

  ==> Input File <==

--------------------------------------------------------------------------
#psi4
#
memory 32 gb

molecule  {
0 1
  O       -2.2261580     0.9189870    -0.1609950
  N        0.4211910     1.5299470     0.0903790
  C        0.0817250     0.2107030     0.0159890
  C        2.3973350    -0.5178562    -0.0533922
  C       -1.3460660    -0.1139160     0.0206840
  C        1.0420520    -0.8182650    -0.0594370
  C        2.7641530     0.8636850     0.0360660
  C       -2.0477590    -1.2949740     0.1722820
  C        3.4684270    -1.5756500    -0.0824610
  C        1.7493340     1.8260270     0.0926910
  C       -3.4286880    -0.9658200     0.0768380
  C       -3.4828100     0.3886030    -0.1245500
  H        0.7225460    -1.8551450    -0.1446860
  H        3.8080070     1.1710760     0.0438400
  H       -1.6259220    -2.2752860     0.3500510
  H        3.8398640    -1.7937090     0.9244500
  H        3.0687740    -2.5034170    -0.5007000
  H        4.3228250    -1.2652800    -0.6906580
  H        1.9977040     2.8869120     0.1452960
  H       -4.2730300    -1.6376780     0.1527080
  H       -4.2894270     1.0948070    -0.2563320
units angstrom
no_reorient  #important for SAPT in psi4, default
symmetry c1  #important for SAPT in psi4, default
}

set PROPERTIES_ORIGIN ["COM"]
properties('MP2/aug-cc-pvtz', properties = ['dipole'])
--------------------------------------------------------------------------

    Molecular point group: c1
  Charge       = 0
  Multiplicity = 1
  Basis Set: AUG-CC-PVTZ
    Blend: AUG-CC-PVTZ
  Basis Set: (AUG-CC-PVTZ AUX)
    Blend: AUG-CC-PVTZ-JKFIT

    Orbital Energies [Eh]
    ---------------------

    Doubly Occupied:

       1A    -20.622306     2A    -15.563536     3A    -11.297771
       4A    -11.295396     5A    -11.293898     6A    -11.277401
       7A    -11.271495     8A    -11.240863     9A    -11.239813
      10A    -11.239688    11A    -11.239400    12A    -11.234328
      13A     -1.454369    14A     -1.244081    15A     -1.104357
      16A     -1.088161    17A     -1.057920    18A     -0.984261
      19A     -0.968438    20A     -0.863956    21A     -0.835039
      22A     -0.800309    23A     -0.765501    24A     -0.728462
      25A     -0.673160    26A     -0.667938    27A     -0.639478
      28A     -0.634053    29A     -0.599959    30A     -0.590435
      31A     -0.579285    32A     -0.566496    33A     -0.558789
      34A     -0.549805    35A     -0.539735    36A     -0.525353
      37A     -0.508610    38A     -0.417318    39A     -0.402701
      40A     -0.374257    41A     -0.364845    42A     -0.288002

  @DF-RHF Final Energy:  -513.37663618711042

   => Energetics <=

    Nuclear Repulsion Energy =            628.9988813955852720
    One-Electron Energy =               -1944.3691014525227274
    Two-Electron Energy =                 801.9935838698269208
    Total Energy =                       -513.3766361871104209
  Basis Set: (AUG-CC-PVTZ AUX)
    Blend: AUG-CC-PVTZ-RI
    Molecular point group: c1

    Geometry (in Angstrom), charge = 0, multiplicity = 1:

       Center              X                  Y                   Z               Mass
    ------------   -----------------  -----------------  -----------------  -----------------
         O           -2.177712081545     0.881723408433    -0.160059281262    15.994914619570
         N            0.469636918455     1.492683408433     0.091314718738    14.003074004430
         C            0.130170918455     0.173439408433     0.016924718738    12.000000000000
         C            2.445780918455    -0.555119791567    -0.052456481262    12.000000000000
         C           -1.297620081545    -0.151179591567     0.021619718738    12.000000000000
         C            1.090497918455    -0.855528591567    -0.058501281262    12.000000000000
         C            2.812598918455     0.826421408433     0.037001718738    12.000000000000
         C           -1.999313081545    -1.332237591567     0.173217718738    12.000000000000
         C            3.516872918455    -1.612913591567    -0.081525281262    12.000000000000
         C            1.797779918455     1.788763408433     0.093626718738    12.000000000000
         C           -3.380242081545    -1.003083591567     0.077773718738    12.000000000000
         C           -3.434364081545     0.351339408433    -0.123614281262    12.000000000000
         H            0.770991918455    -1.892408591567    -0.143750281262     1.007825032230
         H            3.856452918455     1.133812408433     0.044775718738     1.007825032230
         H           -1.577476081545    -2.312549591567     0.350986718738     1.007825032230
         H            3.888309918455    -1.830972591567     0.925385718738     1.007825032230
         H            3.117219918455    -2.540680591567    -0.499764281262     1.007825032230
         H            4.371270918455    -1.302543591567    -0.689722281262     1.007825032230
         H            2.046149918455     2.849648408433     0.146231718738     1.007825032230
         H           -4.224584081545    -1.674941591567     0.153643718738     1.007825032230
         H           -4.240981081545     1.057543408433    -0.255396281262     1.007825032230

  Basis Set: AUG-CC-PVTZ
    Blend: AUG-CC-PVTZ
  Basis Set: (AUG-CC-PVTZ AUX)
    Blend: AUG-CC-PVTZ-JKFIT
	 Reference Energy          =    -513.3766361871104209 [Eh]
	 Singles Energy            =      -0.0000000000000000 [Eh]
	 Same-Spin Energy          =      -0.5590251576829181 [Eh]
	 Opposite-Spin Energy      =      -1.7136401844552414 [Eh]
	 Correlation Energy        =      -2.2726653421381595 [Eh]
	 Total Energy              =    -515.6493015292485325 [Eh]

	 ================> DF-SCS-MP2 Energies <==================
	-----------------------------------------------------------
	 SCS Same-Spin Scale       =       0.3333333333333333 [-]
	 SCS Opposite-Spin Scale   =       1.2000000000000000 [-]
	 SCS Same-Spin Energy      =      -0.1863417192276393 [Eh]
	 SCS Opposite-Spin Energy  =      -2.0563682213462897 [Eh]
	 SCS Correlation Energy    =      -2.2427099405739290 [Eh]
	 SCS Total Energy          =    -515.6193461276843664 [Eh]
	-----------------------------------------------------------

  Dipole Moment: [D]
     X:     1.4598      Y:    -2.3777      Z:    -0.0006     Total:     2.7901

*** Psi4 exiting successfully. Buy a developer a beer!
