                               Psi4 1.4a3.dev225

  ==> Input File <==

--------------------------------------------------------------------------
#psi4
#
memory 32 gb

molecule  {
0 1
  O       -2.2261580     0.9189870    -0.1609950
  N        0.4211910     1.5299470     0.0903790
  C        0.0817250     0.2107030     0.0159890
  C        2.4145630    -0.5010270    -0.0428790
  C       -1.3460660    -0.1139160     0.0206840
  C        1.0420520    -0.8182650    -0.0594370
  C        2.7641530     0.8636850     0.0360660
  C       -2.0477590    -1.2949740     0.1722820
  C        3.4684270    -1.5756500    -0.0824610
  C        1.7493340     1.8260270     0.0926910
  C       -3.3316322    -0.9889539     0.0835461
  C       -3.4828100     0.3886030    -0.1245500
  H        0.7225460    -1.8551450    -0.1446860
  H        3.8080070     1.1710760     0.0438400
  H       -1.6259220    -2.2752860     0.3500510
  H        3.8398640    -1.7937090     0.9244500
  H        3.0687740    -2.5034170    -0.5007000
  H        4.3228250    -1.2652800    -0.6906580
  H        1.9977040     2.8869120     0.1452960
  H       -4.2730300    -1.6376780     0.1527080
  H       -4.2894270     1.0948070    -0.2563320
units angstrom
no_reorient  #important for SAPT in psi4, default
symmetry c1  #important for SAPT in psi4, default
}

set PROPERTIES_ORIGIN ["COM"]
properties('MP2/aug-cc-pvtz', properties = ['dipole'])
--------------------------------------------------------------------------

    Molecular point group: c1
  Charge       = 0
  Multiplicity = 1
  Basis Set: AUG-CC-PVTZ
    Blend: AUG-CC-PVTZ
  Basis Set: (AUG-CC-PVTZ AUX)
    Blend: AUG-CC-PVTZ-JKFIT

    Orbital Energies [Eh]
    ---------------------

    Doubly Occupied:

       1A    -20.626616     2A    -15.562606     3A    -11.296249
       4A    -11.294417     5A    -11.293960     6A    -11.278328
       7A    -11.271479     8A    -11.241820     9A    -11.239194
      10A    -11.237538    11A    -11.234304    12A    -11.230772
      13A     -1.457145    14A     -1.243475    15A     -1.107514
      16A     -1.102599    17A     -1.056933    18A     -0.981225
      19A     -0.967827    20A     -0.861667    21A     -0.838028
      22A     -0.794206    23A     -0.771374    24A     -0.728152
      25A     -0.672468    26A     -0.667657    27A     -0.640641
      28A     -0.635508    29A     -0.600440    30A     -0.590326
      31A     -0.585852    32A     -0.566527    33A     -0.552142
      34A     -0.547247    35A     -0.537248    36A     -0.524834
      37A     -0.508951    38A     -0.418015    39A     -0.414305
      40A     -0.374567    41A     -0.361968    42A     -0.279886

  @DF-RHF Final Energy:  -513.36028132528463

   => Energetics <=

    Nuclear Repulsion Energy =            630.4667769820422336
    One-Electron Energy =               -1947.2620989935230682
    Two-Electron Energy =                 803.4350406861963165
    Total Energy =                       -513.3602813252846317
  Basis Set: (AUG-CC-PVTZ AUX)
    Blend: AUG-CC-PVTZ-RI
    Molecular point group: c1

    Geometry (in Angstrom), charge = 0, multiplicity = 1:

       Center              X                  Y                   Z               Mass
    ------------   -----------------  -----------------  -----------------  -----------------
         O           -2.186333564379     0.882199030200    -0.161358443018    15.994914619570
         N            0.461015435621     1.493159030200     0.090015556982    14.003074004430
         C            0.121549435621     0.173915030200     0.015625556982    12.000000000000
         C            2.454387435621    -0.537814969800    -0.043242443018    12.000000000000
         C           -1.306241564379    -0.150703969800     0.020320556982    12.000000000000
         C            1.081876435621    -0.855052969800    -0.059800443018    12.000000000000
         C            2.803977435621     0.826897030200     0.035702556982    12.000000000000
         C           -2.007934564379    -1.331761969800     0.171918556982    12.000000000000
         C            3.508251435621    -1.612437969800    -0.082824443018    12.000000000000
         C            1.789158435621     1.789239030200     0.092327556982    12.000000000000
         C           -3.291807764379    -1.025741869800     0.083182656982    12.000000000000
         C           -3.442985564379     0.351815030200    -0.124913443018    12.000000000000
         H            0.762370435621    -1.891932969800    -0.145049443018     1.007825032230
         H            3.847831435621     1.134288030200     0.043476556982     1.007825032230
         H           -1.586097564379    -2.312073969800     0.349687556982     1.007825032230
         H            3.879688435621    -1.830496969800     0.924086556982     1.007825032230
         H            3.108598435621    -2.540204969800    -0.501063443018     1.007825032230
         H            4.362649435621    -1.302067969800    -0.691021443018     1.007825032230
         H            2.037528435621     2.850124030200     0.144932556982     1.007825032230
         H           -4.233205564379    -1.674465969800     0.152344556982     1.007825032230
         H           -4.249602564379     1.058019030200    -0.256695443018     1.007825032230

  Basis Set: AUG-CC-PVTZ
    Blend: AUG-CC-PVTZ
  Basis Set: (AUG-CC-PVTZ AUX)
    Blend: AUG-CC-PVTZ-JKFIT
	 Reference Energy          =    -513.3602813252846317 [Eh]
	 Singles Energy            =      -0.0000000000000000 [Eh]
	 Same-Spin Energy          =      -0.5616202931606329 [Eh]
	 Opposite-Spin Energy      =      -1.7164350125436547 [Eh]
	 Correlation Energy        =      -2.2780553057042878 [Eh]
	 Total Energy              =    -515.6383366309888743 [Eh]

	 ================> DF-SCS-MP2 Energies <==================
	-----------------------------------------------------------
	 SCS Same-Spin Scale       =       0.3333333333333333 [-]
	 SCS Opposite-Spin Scale   =       1.2000000000000000 [-]
	 SCS Same-Spin Energy      =      -0.1872067643868776 [Eh]
	 SCS Opposite-Spin Energy  =      -2.0597220150523854 [Eh]
	 SCS Correlation Energy    =      -2.2469287794392629 [Eh]
	 SCS Total Energy          =    -515.6072101047238903 [Eh]
	-----------------------------------------------------------

  Dipole Moment: [D]
     X:     1.4124      Y:    -2.3634      Z:    -0.0078     Total:     2.7533

*** Psi4 exiting successfully. Buy a developer a beer!
