                               Psi4 1.4a3.dev225

  ==> Input File <==

--------------------------------------------------------------------------
#psi4
#
memory 32 gb

molecule  {
0 1
  O       -2.2261580     0.9189870    -0.1609950
  N        0.4211910     1.5299470     0.0903790
  C        0.0817250     0.2107030     0.0159890
  C        2.4145630    -0.5010270    -0.0428790
  C       -1.3460660    -0.1139160     0.0206840
  C        1.0420520    -0.8182650    -0.0594370
  C        2.7641530     0.8636850     0.0360660
  C       -2.0477590    -1.2949740     0.1722820
  C        3.4684270    -1.5756500    -0.0824610
  C        1.7493340     1.8260270     0.0926910
  C       -3.4286880    -0.9658200     0.0768380
  C       -3.4828100     0.3886030    -0.1245500
  H        0.7225460    -1.8551450    -0.1446860
  H        3.8080070     1.1710760     0.0438400
  H       -1.6259220    -2.2752860     0.3500510
  H        3.8398640    -1.7937090     0.9244500
  H        3.0687740    -2.5034170    -0.5007000
  H        4.3228250    -1.2652800    -0.6906580
  H        1.9749353     2.7896580     0.1404736
  H       -4.2730300    -1.6376780     0.1527080
  H       -4.2894270     1.0948070    -0.2563320
units angstrom
no_reorient  #important for SAPT in psi4, default
symmetry c1  #important for SAPT in psi4, default
}

set PROPERTIES_ORIGIN ["COM"]
properties('MP2/aug-cc-pvtz', properties = ['dipole'])
--------------------------------------------------------------------------

    Molecular point group: c1
  Charge       = 0
  Multiplicity = 1
  Basis Set: AUG-CC-PVTZ
    Blend: AUG-CC-PVTZ
  Basis Set: (AUG-CC-PVTZ AUX)
    Blend: AUG-CC-PVTZ-JKFIT

    Orbital Energies [Eh]
    ---------------------

    Doubly Occupied:

       1A    -20.621692     2A    -15.563001     3A    -11.297017
       4A    -11.293778     5A    -11.293055     6A    -11.271353
       7A    -11.266987     8A    -11.242360     9A    -11.239196
      10A    -11.238705    11A    -11.237788    12A    -11.233715
      13A     -1.453729    14A     -1.244188    15A     -1.103882
      16A     -1.087785    17A     -1.059583    18A     -0.985642
      19A     -0.967780    20A     -0.865502    21A     -0.842778
      22A     -0.802041    23A     -0.764706    24A     -0.729535
      25A     -0.673699    26A     -0.668334    27A     -0.650663
      28A     -0.633672    29A     -0.604096    30A     -0.590343
      31A     -0.578672    32A     -0.566198    33A     -0.558842
      34A     -0.547892    35A     -0.540479    36A     -0.524907
      37A     -0.512712    38A     -0.418329    39A     -0.402285
      40A     -0.375623    41A     -0.362188    42A     -0.287695

  @DF-RHF Final Energy:  -513.37193073981143

   => Energetics <=

    Nuclear Repulsion Energy =            629.5008942979764015
    One-Electron Energy =               -1945.3407934171241322
    Two-Electron Energy =                 802.4679683793362983
    Total Energy =                       -513.3719307398114324
  Basis Set: (AUG-CC-PVTZ AUX)
    Blend: AUG-CC-PVTZ-RI
    Molecular point group: c1

    Geometry (in Angstrom), charge = 0, multiplicity = 1:

       Center              X                  Y                   Z               Mass
    ------------   -----------------  -----------------  -----------------  -----------------
         O           -2.178867490904     0.881070007914    -0.160821835320    15.994914619570
         N            0.468481509096     1.492030007914     0.090552164680    14.003074004430
         C            0.129015509096     0.172786007914     0.016162164680    12.000000000000
         C            2.461853509096    -0.538943992086    -0.042705835320    12.000000000000
         C           -1.298775490904    -0.151832992086     0.020857164680    12.000000000000
         C            1.089342509096    -0.856181992086    -0.059263835320    12.000000000000
         C            2.811443509096     0.825768007914     0.036239164680    12.000000000000
         C           -2.000468490904    -1.332890992086     0.172455164680    12.000000000000
         C            3.515717509096    -1.613566992086    -0.082287835320    12.000000000000
         C            1.796624509096     1.788110007914     0.092864164680    12.000000000000
         C           -3.381397490904    -1.003736992086     0.077011164680    12.000000000000
         C           -3.435519490904     0.350686007914    -0.124376835320    12.000000000000
         H            0.769836509096    -1.893061992086    -0.144512835320     1.007825032230
         H            3.855297509096     1.133159007914     0.044013164680     1.007825032230
         H           -1.578631490904    -2.313202992086     0.350224164680     1.007825032230
         H            3.887154509096    -1.831625992086     0.924623164680     1.007825032230
         H            3.116064509096    -2.541333992086    -0.500526835320     1.007825032230
         H            4.370115509096    -1.303196992086    -0.690484835320     1.007825032230
         H            2.022225809096     2.751741007914     0.140646764680     1.007825032230
         H           -4.225739490904    -1.675594992086     0.152881164680     1.007825032230
         H           -4.242136490904     1.056890007914    -0.256158835320     1.007825032230

  Basis Set: AUG-CC-PVTZ
    Blend: AUG-CC-PVTZ
  Basis Set: (AUG-CC-PVTZ AUX)
    Blend: AUG-CC-PVTZ-JKFIT
	 Reference Energy          =    -513.3719307398114324 [Eh]
	 Singles Energy            =      -0.0000000000000000 [Eh]
	 Same-Spin Energy          =      -0.5588735477957320 [Eh]
	 Opposite-Spin Energy      =      -1.7130243854932885 [Eh]
	 Correlation Energy        =      -2.2718979332890203 [Eh]
	 Total Energy              =    -515.6438286731004155 [Eh]

	 ================> DF-SCS-MP2 Energies <==================
	-----------------------------------------------------------
	 SCS Same-Spin Scale       =       0.3333333333333333 [-]
	 SCS Opposite-Spin Scale   =       1.2000000000000000 [-]
	 SCS Same-Spin Energy      =      -0.1862911825985773 [Eh]
	 SCS Opposite-Spin Energy  =      -2.0556292625919461 [Eh]
	 SCS Correlation Energy    =      -2.2419204451905235 [Eh]
	 SCS Total Energy          =    -515.6138511850019768 [Eh]
	-----------------------------------------------------------

  Dipole Moment: [D]
     X:     1.5085      Y:    -2.3439      Z:    -0.0034     Total:     2.7874

*** Psi4 exiting successfully. Buy a developer a beer!
