                               Psi4 1.4a3.dev225

  ==> Input File <==

--------------------------------------------------------------------------
#psi4
#
memory 32 gb

molecule  {
0 1
  O       -2.1922660     0.8311021    -0.1469190
  N        0.4211910     1.5299470     0.0903790
  C        0.0817250     0.2107030     0.0159890
  C        2.4145630    -0.5010270    -0.0428790
  C       -1.3460660    -0.1139160     0.0206840
  C        1.0420520    -0.8182650    -0.0594370
  C        2.7641530     0.8636850     0.0360660
  C       -2.0477590    -1.2949740     0.1722820
  C        3.4684270    -1.5756500    -0.0824610
  C        1.7493340     1.8260270     0.0926910
  C       -3.4286880    -0.9658200     0.0768380
  C       -3.4828100     0.3886030    -0.1245500
  H        0.7225460    -1.8551450    -0.1446860
  H        3.8080070     1.1710760     0.0438400
  H       -1.6259220    -2.2752860     0.3500510
  H        3.8398640    -1.7937090     0.9244500
  H        3.0687740    -2.5034170    -0.5007000
  H        4.3228250    -1.2652800    -0.6906580
  H        1.9977040     2.8869120     0.1452960
  H       -4.2730300    -1.6376780     0.1527080
  H       -4.2894270     1.0948070    -0.2563320
units angstrom
no_reorient  #important for SAPT in psi4, default
symmetry c1  #important for SAPT in psi4, default
}

set PROPERTIES_ORIGIN ["COM"]
properties('MP2/aug-cc-pvtz', properties = ['dipole'])
--------------------------------------------------------------------------

    Molecular point group: c1
  Charge       = 0
  Multiplicity = 1
  Basis Set: AUG-CC-PVTZ
    Blend: AUG-CC-PVTZ
  Basis Set: (AUG-CC-PVTZ AUX)
    Blend: AUG-CC-PVTZ-JKFIT

    Orbital Energies [Eh]
    ---------------------

    Doubly Occupied:

       1A    -20.621699     2A    -15.565442     3A    -11.294197
       4A    -11.292423     5A    -11.289101     6A    -11.279645
       7A    -11.272410     8A    -11.243406     9A    -11.239878
      10A    -11.239831    11A    -11.233487    12A    -11.227144
      13A     -1.488486    14A     -1.245298    15A     -1.105222
      16A     -1.080035    17A     -1.064389    18A     -0.992956
      19A     -0.969238    20A     -0.864300    21A     -0.838424
      22A     -0.808277    23A     -0.762044    24A     -0.734052
      25A     -0.675613    26A     -0.670123    27A     -0.653459
      28A     -0.647095    29A     -0.605583    30A     -0.591129
      31A     -0.576729    32A     -0.563244    33A     -0.558104
      34A     -0.549369    35A     -0.533318    36A     -0.525847
      37A     -0.507966    38A     -0.419175    39A     -0.394106
      40A     -0.377018    41A     -0.363352    42A     -0.288500

  @DF-RHF Final Energy:  -513.37384755371977

   => Energetics <=

    Nuclear Repulsion Energy =            631.6605186957108344
    One-Electron Energy =               -1949.5665082140076265
    Two-Electron Energy =                 804.5321419645770220
    Total Energy =                       -513.3738475537197701
  Basis Set: (AUG-CC-PVTZ AUX)
    Blend: AUG-CC-PVTZ-RI
    Molecular point group: c1

    Geometry (in Angstrom), charge = 0, multiplicity = 1:

       Center              X                  Y                   Z               Mass
    ------------   -----------------  -----------------  -----------------  -----------------
         O           -2.148527714115     0.801406076640    -0.148191782683    15.994914619570
         N            0.464929285885     1.500250976640     0.089106217317    14.003074004430
         C            0.125463285885     0.181006976640     0.014716217317    12.000000000000
         C            2.458301285885    -0.530723023360    -0.044151782683    12.000000000000
         C           -1.302327714115    -0.143612023360     0.019411217317    12.000000000000
         C            1.085790285885    -0.847961023360    -0.060709782683    12.000000000000
         C            2.807891285885     0.833988976640     0.034793217317    12.000000000000
         C           -2.004020714115    -1.324670023360     0.171009217317    12.000000000000
         C            3.512165285885    -1.605346023360    -0.083733782683    12.000000000000
         C            1.793072285885     1.796330976640     0.091418217317    12.000000000000
         C           -3.384949714115    -0.995516023360     0.075565217317    12.000000000000
         C           -3.439071714115     0.358906976640    -0.125822782683    12.000000000000
         H            0.766284285885    -1.884841023360    -0.145958782683     1.007825032230
         H            3.851745285885     1.141379976640     0.042567217317     1.007825032230
         H           -1.582183714115    -2.304982023360     0.348778217317     1.007825032230
         H            3.883602285885    -1.823405023360     0.923177217317     1.007825032230
         H            3.112512285885    -2.533113023360    -0.501972782683     1.007825032230
         H            4.366563285885    -1.294976023360    -0.691930782683     1.007825032230
         H            2.041442285885     2.857215976640     0.144023217317     1.007825032230
         H           -4.229291714115    -1.667374023360     0.151435217317     1.007825032230
         H           -4.245688714115     1.065110976640    -0.257604782683     1.007825032230

  Basis Set: AUG-CC-PVTZ
    Blend: AUG-CC-PVTZ
  Basis Set: (AUG-CC-PVTZ AUX)
    Blend: AUG-CC-PVTZ-JKFIT
	 Reference Energy          =    -513.3738475537197701 [Eh]
	 Singles Energy            =      -0.0000000000000000 [Eh]
	 Same-Spin Energy          =      -0.5588912171583970 [Eh]
	 Opposite-Spin Energy      =      -1.7109677204852494 [Eh]
	 Correlation Energy        =      -2.2698589376436464 [Eh]
	 Total Energy              =    -515.6437064913634458 [Eh]

	 ================> DF-SCS-MP2 Energies <==================
	-----------------------------------------------------------
	 SCS Same-Spin Scale       =       0.3333333333333333 [-]
	 SCS Opposite-Spin Scale   =       1.2000000000000000 [-]
	 SCS Same-Spin Energy      =      -0.1862970723861323 [Eh]
	 SCS Opposite-Spin Energy  =      -2.0531612645822990 [Eh]
	 SCS Correlation Energy    =      -2.2394583369684313 [Eh]
	 SCS Total Energy          =    -515.6133058906882525 [Eh]
	-----------------------------------------------------------

  Dipole Moment: [D]
     X:     1.4465      Y:    -2.1144      Z:    -0.0484     Total:     2.5623

*** Psi4 exiting successfully. Buy a developer a beer!
