                               Psi4 1.4a3.dev225

  ==> Input File <==

--------------------------------------------------------------------------
#psi4
#
memory 32 gb

molecule  {
0 1
  O       -2.2261580     0.9189870    -0.1609950
  N        0.4211910     1.5299470     0.0903790
  C        0.0817250     0.2107030     0.0159890
  C        2.4145630    -0.5010270    -0.0428790
  C       -1.3254070    -0.1261144     0.0231914
  C        1.0420520    -0.8182650    -0.0594370
  C        2.7641530     0.8636850     0.0360660
  C       -2.0477590    -1.2949740     0.1722820
  C        3.4684270    -1.5756500    -0.0824610
  C        1.7493340     1.8260270     0.0926910
  C       -3.4286880    -0.9658200     0.0768380
  C       -3.4828100     0.3886030    -0.1245500
  H        0.7225460    -1.8551450    -0.1446860
  H        3.8080070     1.1710760     0.0438400
  H       -1.6259220    -2.2752860     0.3500510
  H        3.8398640    -1.7937090     0.9244500
  H        3.0687740    -2.5034170    -0.5007000
  H        4.3228250    -1.2652800    -0.6906580
  H        1.9977040     2.8869120     0.1452960
  H       -4.2730300    -1.6376780     0.1527080
  H       -4.2894270     1.0948070    -0.2563320
units angstrom
no_reorient  #important for SAPT in psi4, default
symmetry c1  #important for SAPT in psi4, default
}

set PROPERTIES_ORIGIN ["COM"]
properties('MP2/aug-cc-pvtz', properties = ['dipole'])
--------------------------------------------------------------------------

    Molecular point group: c1
  Charge       = 0
  Multiplicity = 1
  Basis Set: AUG-CC-PVTZ
    Blend: AUG-CC-PVTZ
  Basis Set: (AUG-CC-PVTZ AUX)
    Blend: AUG-CC-PVTZ-JKFIT

    Orbital Energies [Eh]
    ---------------------

    Doubly Occupied:

       1A    -20.618876     2A    -15.563676     3A    -11.296835
       4A    -11.294935     5A    -11.293595     6A    -11.278779
       7A    -11.271730     8A    -11.242332     9A    -11.241438
      10A    -11.239424    11A    -11.238348    12A    -11.233686
      13A     -1.444740    14A     -1.244542    15A     -1.104205
      16A     -1.087945    17A     -1.059225    18A     -0.983620
      19A     -0.967945    20A     -0.864960    21A     -0.837216
      22A     -0.797612    23A     -0.763994    24A     -0.727178
      25A     -0.673121    26A     -0.669062    27A     -0.639751
      28A     -0.628906    29A     -0.599230    30A     -0.590510
      31A     -0.579331    32A     -0.564272    33A     -0.559001
      34A     -0.546990    35A     -0.540323    36A     -0.525703
      37A     -0.511180    38A     -0.417488    39A     -0.403283
      40A     -0.376708    41A     -0.362699    42A     -0.287162

  @DF-RHF Final Energy:  -513.37539830023366

   => Energetics <=

    Nuclear Repulsion Energy =            628.8338858552031070
    One-Electron Energy =               -1944.0754585106808463
    Two-Electron Energy =                 801.8661743552440839
    Total Energy =                       -513.3753983002336554
  Basis Set: (AUG-CC-PVTZ AUX)
    Blend: AUG-CC-PVTZ-RI
    Molecular point group: c1

    Geometry (in Angstrom), charge = 0, multiplicity = 1:

       Center              X                  Y                   Z               Mass
    ------------   -----------------  -----------------  -----------------  -----------------
         O           -2.180570247970     0.881374064408    -0.161041545410    15.994914619570
         N            0.466778752030     1.492334064408     0.090332454590    14.003074004430
         C            0.127312752030     0.173090064408     0.015942454590    12.000000000000
         C            2.460150752030    -0.538639935592    -0.042925545410    12.000000000000
         C           -1.279819247970    -0.163727335592     0.023144854590    12.000000000000
         C            1.087639752030    -0.855877935592    -0.059483545410    12.000000000000
         C            2.809740752030     0.826072064408     0.036019454590    12.000000000000
         C           -2.002171247970    -1.332586935592     0.172235454590    12.000000000000
         C            3.514014752030    -1.613262935592    -0.082507545410    12.000000000000
         C            1.794921752030     1.788414064408     0.092644454590    12.000000000000
         C           -3.383100247970    -1.003432935592     0.076791454590    12.000000000000
         C           -3.437222247970     0.350990064408    -0.124596545410    12.000000000000
         H            0.768133752030    -1.892757935592    -0.144732545410     1.007825032230
         H            3.853594752030     1.133463064408     0.043793454590     1.007825032230
         H           -1.580334247970    -2.312898935592     0.350004454590     1.007825032230
         H            3.885451752030    -1.831321935592     0.924403454590     1.007825032230
         H            3.114361752030    -2.541029935592    -0.500746545410     1.007825032230
         H            4.368412752030    -1.302892935592    -0.690704545410     1.007825032230
         H            2.043291752030     2.849299064408     0.145249454590     1.007825032230
         H           -4.227442247970    -1.675290935592     0.152661454590     1.007825032230
         H           -4.243839247970     1.057194064408    -0.256378545410     1.007825032230

  Basis Set: AUG-CC-PVTZ
    Blend: AUG-CC-PVTZ
  Basis Set: (AUG-CC-PVTZ AUX)
    Blend: AUG-CC-PVTZ-JKFIT
	 Reference Energy          =    -513.3753983002336554 [Eh]
	 Singles Energy            =      -0.0000000000000000 [Eh]
	 Same-Spin Energy          =      -0.5593939749525749 [Eh]
	 Opposite-Spin Energy      =      -1.7143857759126191 [Eh]
	 Correlation Energy        =      -2.2737797508651942 [Eh]
	 Total Energy              =    -515.6491780510988292 [Eh]

	 ================> DF-SCS-MP2 Energies <==================
	-----------------------------------------------------------
	 SCS Same-Spin Scale       =       0.3333333333333333 [-]
	 SCS Opposite-Spin Scale   =       1.2000000000000000 [-]
	 SCS Same-Spin Energy      =      -0.1864646583175250 [Eh]
	 SCS Opposite-Spin Energy  =      -2.0572629310951429 [Eh]
	 SCS Correlation Energy    =      -2.2437275894126678 [Eh]
	 SCS Total Energy          =    -515.6191258896462841 [Eh]
	-----------------------------------------------------------

  Dipole Moment: [D]
     X:     1.4980      Y:    -2.3937      Z:    -0.0002     Total:     2.8238

*** Psi4 exiting successfully. Buy a developer a beer!
