                               Psi4 1.4a3.dev225

  ==> Input File <==

--------------------------------------------------------------------------
#psi4
#
memory 32 gb

molecule  {
0 1
  O       -2.2261580     0.9189870    -0.1609950
  N        0.4211910     1.5299470     0.0903790
  C        0.0817250     0.2107030     0.0159890
  C        2.4145630    -0.5010270    -0.0428790
  C       -1.3265638    -0.1094820     0.0206199
  C        1.0420520    -0.8182650    -0.0594370
  C        2.7641530     0.8636850     0.0360660
  C       -2.0477590    -1.2949740     0.1722820
  C        3.4684270    -1.5756500    -0.0824610
  C        1.7493340     1.8260270     0.0926910
  C       -3.4286880    -0.9658200     0.0768380
  C       -3.4828100     0.3886030    -0.1245500
  H        0.7225460    -1.8551450    -0.1446860
  H        3.8080070     1.1710760     0.0438400
  H       -1.6259220    -2.2752860     0.3500510
  H        3.8398640    -1.7937090     0.9244500
  H        3.0687740    -2.5034170    -0.5007000
  H        4.3228250    -1.2652800    -0.6906580
  H        1.9977040     2.8869120     0.1452960
  H       -4.2730300    -1.6376780     0.1527080
  H       -4.2894270     1.0948070    -0.2563320
units angstrom
no_reorient  #important for SAPT in psi4, default
symmetry c1  #important for SAPT in psi4, default
}

set PROPERTIES_ORIGIN ["COM"]
properties('MP2/aug-cc-pvtz', properties = ['dipole'])
--------------------------------------------------------------------------

    Molecular point group: c1
  Charge       = 0
  Multiplicity = 1
  Basis Set: AUG-CC-PVTZ
    Blend: AUG-CC-PVTZ
  Basis Set: (AUG-CC-PVTZ AUX)
    Blend: AUG-CC-PVTZ-JKFIT

    Orbital Energies [Eh]
    ---------------------

    Doubly Occupied:

       1A    -20.621076     2A    -15.563441     3A    -11.297746
       4A    -11.294531     5A    -11.293217     6A    -11.278662
       7A    -11.271808     8A    -11.242528     9A    -11.241809
      10A    -11.239441    11A    -11.238312    12A    -11.234208
      13A     -1.449824    14A     -1.244706    15A     -1.104265
      16A     -1.086040    17A     -1.059960    18A     -0.983533
      19A     -0.968005    20A     -0.865207    21A     -0.837245
      22A     -0.798509    23A     -0.764017    24A     -0.727917
      25A     -0.673151    26A     -0.669027    27A     -0.640997
      28A     -0.631543    29A     -0.600540    30A     -0.590555
      31A     -0.578161    32A     -0.565572    33A     -0.558847
      34A     -0.547276    35A     -0.539476    36A     -0.525687
      37A     -0.510706    38A     -0.417733    39A     -0.401728
      40A     -0.377211    41A     -0.362738    42A     -0.285644

  @DF-RHF Final Energy:  -513.37530375301492

   => Energetics <=

    Nuclear Repulsion Energy =            628.9146550049825919
    One-Electron Energy =               -1944.2147210303583051
    Two-Electron Energy =                 801.9247622723606810
    Total Energy =                       -513.3753037530149186
  Basis Set: (AUG-CC-PVTZ AUX)
    Blend: AUG-CC-PVTZ-RI
    Molecular point group: c1

    Geometry (in Angstrom), charge = 0, multiplicity = 1:

       Center              X                  Y                   Z               Mass
    ------------   -----------------  -----------------  -----------------  -----------------
         O           -2.180482979859     0.880119328819    -0.160847553408    15.994914619570
         N            0.466866020141     1.491079328819     0.090526446592    14.003074004430
         C            0.127400020141     0.171835328819     0.016136446592    12.000000000000
         C            2.460238020141    -0.539894671181    -0.042731553408    12.000000000000
         C           -1.280888779859    -0.148349671181     0.020767346592    12.000000000000
         C            1.087727020141    -0.857132671181    -0.059289553408    12.000000000000
         C            2.809828020141     0.824817328819     0.036213446592    12.000000000000
         C           -2.002083979859    -1.333841671181     0.172429446592    12.000000000000
         C            3.514102020141    -1.614517671181    -0.082313553408    12.000000000000
         C            1.795009020141     1.787159328819     0.092838446592    12.000000000000
         C           -3.383012979859    -1.004687671181     0.076985446592    12.000000000000
         C           -3.437134979859     0.349735328819    -0.124402553408    12.000000000000
         H            0.768221020141    -1.894012671181    -0.144538553408     1.007825032230
         H            3.853682020141     1.132208328819     0.043987446592     1.007825032230
         H           -1.580246979859    -2.314153671181     0.350198446592     1.007825032230
         H            3.885539020141    -1.832576671181     0.924597446592     1.007825032230
         H            3.114449020141    -2.542284671181    -0.500552553408     1.007825032230
         H            4.368500020141    -1.304147671181    -0.690510553408     1.007825032230
         H            2.043379020141     2.848044328819     0.145443446592     1.007825032230
         H           -4.227354979859    -1.676545671181     0.152855446592     1.007825032230
         H           -4.243751979859     1.055939328819    -0.256184553408     1.007825032230

  Basis Set: AUG-CC-PVTZ
    Blend: AUG-CC-PVTZ
  Basis Set: (AUG-CC-PVTZ AUX)
    Blend: AUG-CC-PVTZ-JKFIT
	 Reference Energy          =    -513.3753037530149186 [Eh]
	 Singles Energy            =      -0.0000000000000000 [Eh]
	 Same-Spin Energy          =      -0.5596044989711759 [Eh]
	 Opposite-Spin Energy      =      -1.7144735926030599 [Eh]
	 Correlation Energy        =      -2.2740780915742356 [Eh]
	 Total Energy              =    -515.6493818445891293 [Eh]

	 ================> DF-SCS-MP2 Energies <==================
	-----------------------------------------------------------
	 SCS Same-Spin Scale       =       0.3333333333333333 [-]
	 SCS Opposite-Spin Scale   =       1.2000000000000000 [-]
	 SCS Same-Spin Energy      =      -0.1865348329903920 [Eh]
	 SCS Opposite-Spin Energy  =      -2.0573683111236716 [Eh]
	 SCS Correlation Energy    =      -2.2439031441140633 [Eh]
	 SCS Total Energy          =    -515.6192068971289473 [Eh]
	-----------------------------------------------------------

  Dipole Moment: [D]
     X:     1.4705      Y:    -2.3709      Z:    -0.0056     Total:     2.7899

*** Psi4 exiting successfully. Buy a developer a beer!
