                               Psi4 1.4a3.dev225

  ==> Input File <==

--------------------------------------------------------------------------
#psi4
#
memory 32 gb

molecule  {
0 1
  O       -2.2661723     1.0042879    -0.1748934
  N        0.4211910     1.5299470     0.0903790
  C        0.0817250     0.2107030     0.0159890
  C        2.4145630    -0.5010270    -0.0428790
  C       -1.3460660    -0.1139160     0.0206840
  C        1.0420520    -0.8182650    -0.0594370
  C        2.7641530     0.8636850     0.0360660
  C       -2.0477590    -1.2949740     0.1722820
  C        3.4684270    -1.5756500    -0.0824610
  C        1.7493340     1.8260270     0.0926910
  C       -3.4286880    -0.9658200     0.0768380
  C       -3.4828100     0.3886030    -0.1245500
  H        0.7225460    -1.8551450    -0.1446860
  H        3.8080070     1.1710760     0.0438400
  H       -1.6259220    -2.2752860     0.3500510
  H        3.8398640    -1.7937090     0.9244500
  H        3.0687740    -2.5034170    -0.5007000
  H        4.3228250    -1.2652800    -0.6906580
  H        1.9977040     2.8869120     0.1452960
  H       -4.2730300    -1.6376780     0.1527080
  H       -4.2894270     1.0948070    -0.2563320
units angstrom
no_reorient  #important for SAPT in psi4, default
symmetry c1  #important for SAPT in psi4, default
}

set PROPERTIES_ORIGIN ["COM"]
properties('MP2/aug-cc-pvtz', properties = ['dipole'])
--------------------------------------------------------------------------

    Molecular point group: c1
  Charge       = 0
  Multiplicity = 1
  Basis Set: AUG-CC-PVTZ
    Blend: AUG-CC-PVTZ
  Basis Set: (AUG-CC-PVTZ AUX)
    Blend: AUG-CC-PVTZ-JKFIT

    Orbital Energies [Eh]
    ---------------------

    Doubly Occupied:

       1A    -20.621685     2A    -15.562588     3A    -11.302508
       4A    -11.297195     5A    -11.295272     6A    -11.278219
       7A    -11.271681     8A    -11.249611     9A    -11.242163
      10A    -11.239406    11A    -11.237559    12A    -11.234216
      13A     -1.426383    14A     -1.243577    15A     -1.103845
      16A     -1.095887    17A     -1.053521    18A     -0.977817
      19A     -0.966593    20A     -0.863190    21A     -0.835179
      22A     -0.792568    23A     -0.767576    24A     -0.722522
      25A     -0.671879    26A     -0.667734    27A     -0.633571
      28A     -0.618564    29A     -0.593732    30A     -0.590311
      31A     -0.583034    32A     -0.566095    33A     -0.559091
      34A     -0.546849    35A     -0.542244    36A     -0.525252
      37A     -0.509802    38A     -0.417074    39A     -0.411022
      40A     -0.374795    41A     -0.362059    42A     -0.287086

  @DF-RHF Final Energy:  -513.36550384619386

   => Energetics <=

    Nuclear Repulsion Energy =            626.3223681969867584
    One-Electron Energy =               -1939.0938401780051663
    Two-Electron Energy =                 799.4059681348244339
    Total Energy =                       -513.3655038461938602
  Basis Set: (AUG-CC-PVTZ AUX)
    Blend: AUG-CC-PVTZ-RI
    Molecular point group: c1

    Geometry (in Angstrom), charge = 0, multiplicity = 1:

       Center              X                  Y                   Z               Mass
    ------------   -----------------  -----------------  -----------------  -----------------
         O           -2.215002463569     0.957177406877    -0.173353253777    15.994914619570
         N            0.472360836431     1.482836506877     0.091919146223    14.003074004430
         C            0.132894836431     0.163592506877     0.017529146223    12.000000000000
         C            2.465732836431    -0.548137493123    -0.041338853777    12.000000000000
         C           -1.294896163569    -0.161026493123     0.022224146223    12.000000000000
         C            1.093221836431    -0.865375493123    -0.057896853777    12.000000000000
         C            2.815322836431     0.816574506877     0.037606146223    12.000000000000
         C           -1.996589163569    -1.342084493123     0.173822146223    12.000000000000
         C            3.519596836431    -1.622760493123    -0.080920853777    12.000000000000
         C            1.800503836431     1.778916506877     0.094231146223    12.000000000000
         C           -3.377518163569    -1.012930493123     0.078378146223    12.000000000000
         C           -3.431640163569     0.341492506877    -0.123009853777    12.000000000000
         H            0.773715836431    -1.902255493123    -0.143145853777     1.007825032230
         H            3.859176836431     1.123965506877     0.045380146223     1.007825032230
         H           -1.574752163569    -2.322396493123     0.351591146223     1.007825032230
         H            3.891033836431    -1.840819493123     0.925990146223     1.007825032230
         H            3.119943836431    -2.550527493123    -0.499159853777     1.007825032230
         H            4.373994836431    -1.312390493123    -0.689117853777     1.007825032230
         H            2.048873836431     2.839801506877     0.146836146223     1.007825032230
         H           -4.221860163569    -1.684788493123     0.154248146223     1.007825032230
         H           -4.238257163569     1.047696506877    -0.254791853777     1.007825032230

  Basis Set: AUG-CC-PVTZ
    Blend: AUG-CC-PVTZ
  Basis Set: (AUG-CC-PVTZ AUX)
    Blend: AUG-CC-PVTZ-JKFIT
	 Reference Energy          =    -513.3655038461938602 [Eh]
	 Singles Energy            =      -0.0000000000000000 [Eh]
	 Same-Spin Energy          =      -0.5595130520894103 [Eh]
	 Opposite-Spin Energy      =      -1.7167699485289023 [Eh]
	 Correlation Energy        =      -2.2762830006183128 [Eh]
	 Total Energy              =    -515.6417868468121242 [Eh]

	 ================> DF-SCS-MP2 Energies <==================
	-----------------------------------------------------------
	 SCS Same-Spin Scale       =       0.3333333333333333 [-]
	 SCS Opposite-Spin Scale   =       1.2000000000000000 [-]
	 SCS Same-Spin Energy      =      -0.1865043506964701 [Eh]
	 SCS Opposite-Spin Energy  =      -2.0601239382346828 [Eh]
	 SCS Correlation Energy    =      -2.2466282889311526 [Eh]
	 SCS Total Energy          =    -515.6121321351249662 [Eh]
	-----------------------------------------------------------

  Dipole Moment: [D]
     X:     1.5686      Y:    -2.5972      Z:     0.0348     Total:     3.0343

*** Psi4 exiting successfully. Buy a developer a beer!
