                               Psi4 1.4a3.dev225

  ==> Input File <==

--------------------------------------------------------------------------
#psi4
#
memory 32 gb

molecule  {
0 1
  O       -2.2261580     0.9189870    -0.1609950
  N        0.4211910     1.5299470     0.0903790
  C        0.0817250     0.2107030     0.0159890
  C        2.4145630    -0.5010270    -0.0428790
  C       -1.3460660    -0.1139160     0.0206840
  C        1.0420520    -0.8182650    -0.0594370
  C        2.7641530     0.8636850     0.0360660
  C       -2.0477590    -1.2949740     0.1722820
  C        3.4684270    -1.5756500    -0.0824610
  C        1.7493340     1.8260270     0.0926910
  C       -3.4286880    -0.9658200     0.0768380
  C       -3.4808353     0.3391853    -0.1172021
  H        0.7225460    -1.8551450    -0.1446860
  H        3.8080070     1.1710760     0.0438400
  H       -1.6259220    -2.2752860     0.3500510
  H        3.8398640    -1.7937090     0.9244500
  H        3.0687740    -2.5034170    -0.5007000
  H        4.3228250    -1.2652800    -0.6906580
  H        1.9977040     2.8869120     0.1452960
  H       -4.2730300    -1.6376780     0.1527080
  H       -4.2894270     1.0948070    -0.2563320
units angstrom
no_reorient  #important for SAPT in psi4, default
symmetry c1  #important for SAPT in psi4, default
}

set PROPERTIES_ORIGIN ["COM"]
properties('MP2/aug-cc-pvtz', properties = ['dipole'])
--------------------------------------------------------------------------

    Molecular point group: c1
  Charge       = 0
  Multiplicity = 1
  Basis Set: AUG-CC-PVTZ
    Blend: AUG-CC-PVTZ
  Basis Set: (AUG-CC-PVTZ AUX)
    Blend: AUG-CC-PVTZ-JKFIT

    Orbital Energies [Eh]
    ---------------------

    Doubly Occupied:

       1A    -20.617693     2A    -15.564076     3A    -11.297488
       4A    -11.294119     5A    -11.289326     6A    -11.278771
       7A    -11.271877     8A    -11.242740     9A    -11.239558
      10A    -11.238867    11A    -11.237867    12A    -11.228851
      13A     -1.447582    14A     -1.244206    15A     -1.104718
      16A     -1.094131    17A     -1.059863    18A     -0.983985
      19A     -0.967776    20A     -0.864599    21A     -0.834720
      22A     -0.798013    23A     -0.764727    24A     -0.724515
      25A     -0.672914    26A     -0.667656    27A     -0.635984
      28A     -0.631245    29A     -0.594004    30A     -0.590646
      31A     -0.582160    32A     -0.562979    33A     -0.559378
      34A     -0.546112    35A     -0.543722    36A     -0.525204
      37A     -0.509892    38A     -0.417825    39A     -0.405352
      40A     -0.379170    41A     -0.363102    42A     -0.291039

  @DF-RHF Final Energy:  -513.37474476784723

   => Energetics <=

    Nuclear Repulsion Energy =            629.3766402043944481
    One-Electron Energy =               -1945.1658706646178416
    Two-Electron Energy =                 802.4144856923760472
    Total Energy =                       -513.3747447678472327
  Basis Set: (AUG-CC-PVTZ AUX)
    Blend: AUG-CC-PVTZ-RI
    Molecular point group: c1

    Geometry (in Angstrom), charge = 0, multiplicity = 1:

       Center              X                  Y                   Z               Mass
    ------------   -----------------  -----------------  -----------------  -----------------
         O           -2.179160718608     0.884181860054    -0.161406709043    15.994914619570
         N            0.468188281392     1.495141860054     0.089967290957    14.003074004430
         C            0.128722281392     0.175897860054     0.015577290957    12.000000000000
         C            2.461560281392    -0.535832139946    -0.043290709043    12.000000000000
         C           -1.299068718608    -0.148721139946     0.020272290957    12.000000000000
         C            1.089049281392    -0.853070139946    -0.059848709043    12.000000000000
         C            2.811150281392     0.828879860054     0.035654290957    12.000000000000
         C           -2.000761718608    -1.329779139946     0.171870290957    12.000000000000
         C            3.515424281392    -1.610455139946    -0.082872709043    12.000000000000
         C            1.796331281392     1.791221860054     0.092279290957    12.000000000000
         C           -3.381690718608    -1.000625139946     0.076426290957    12.000000000000
         C           -3.433838018608     0.304380160054    -0.117613809043    12.000000000000
         H            0.769543281392    -1.889950139946    -0.145097709043     1.007825032230
         H            3.855004281392     1.136270860054     0.043428290957     1.007825032230
         H           -1.578924718608    -2.310091139946     0.349639290957     1.007825032230
         H            3.886861281392    -1.828514139946     0.924038290957     1.007825032230
         H            3.115771281392    -2.538222139946    -0.501111709043     1.007825032230
         H            4.369822281392    -1.300085139946    -0.691069709043     1.007825032230
         H            2.044701281392     2.852106860054     0.144884290957     1.007825032230
         H           -4.226032718608    -1.672483139946     0.152296290957     1.007825032230
         H           -4.242429718608     1.060001860054    -0.256743709043     1.007825032230

  Basis Set: AUG-CC-PVTZ
    Blend: AUG-CC-PVTZ
  Basis Set: (AUG-CC-PVTZ AUX)
    Blend: AUG-CC-PVTZ-JKFIT
	 Reference Energy          =    -513.3747447678472327 [Eh]
	 Singles Energy            =      -0.0000000000000000 [Eh]
	 Same-Spin Energy          =      -0.5585361750513194 [Eh]
	 Opposite-Spin Energy      =      -1.7131505344355991 [Eh]
	 Correlation Energy        =      -2.2716867094869184 [Eh]
	 Total Energy              =    -515.6464314773342039 [Eh]

	 ================> DF-SCS-MP2 Energies <==================
	-----------------------------------------------------------
	 SCS Same-Spin Scale       =       0.3333333333333333 [-]
	 SCS Opposite-Spin Scale   =       1.2000000000000000 [-]
	 SCS Same-Spin Energy      =      -0.1861787250171064 [Eh]
	 SCS Opposite-Spin Energy  =      -2.0557806413227189 [Eh]
	 SCS Correlation Energy    =      -2.2419593663398252 [Eh]
	 SCS Total Energy          =    -515.6167041341871027 [Eh]
	-----------------------------------------------------------

  Dipole Moment: [D]
     X:     1.4548      Y:    -2.4480      Z:     0.0057     Total:     2.8476

*** Psi4 exiting successfully. Buy a developer a beer!
