                               Psi4 1.4a3.dev225

  ==> Input File <==

--------------------------------------------------------------------------
#psi4
#
memory 32 gb

molecule  {
0 1
  O       -2.2261580     0.9189870    -0.1609950
  N        0.4211910     1.5299470     0.0903790
  C        0.0817250     0.2107030     0.0159890
  C        2.4145630    -0.5010270    -0.0428790
  C       -1.3460660    -0.1139160     0.0206840
  C        1.0420520    -0.8182650    -0.0594370
  C        2.7641530     0.8636850     0.0360660
  C       -2.0477590    -1.2949740     0.1722820
  C        3.4684270    -1.5756500    -0.0824610
  C        1.7493340     1.8260270     0.0926910
  C       -3.4286880    -0.9658200     0.0768380
  C       -3.4350065     0.3898375    -0.1234137
  H        0.7225460    -1.8551450    -0.1446860
  H        3.8080070     1.1710760     0.0438400
  H       -1.6259220    -2.2752860     0.3500510
  H        3.8398640    -1.7937090     0.9244500
  H        3.0687740    -2.5034170    -0.5007000
  H        4.3228250    -1.2652800    -0.6906580
  H        1.9977040     2.8869120     0.1452960
  H       -4.2730300    -1.6376780     0.1527080
  H       -4.2894270     1.0948070    -0.2563320
units angstrom
no_reorient  #important for SAPT in psi4, default
symmetry c1  #important for SAPT in psi4, default
}

set PROPERTIES_ORIGIN ["COM"]
properties('MP2/aug-cc-pvtz', properties = ['dipole'])
--------------------------------------------------------------------------

    Molecular point group: c1
  Charge       = 0
  Multiplicity = 1
  Basis Set: AUG-CC-PVTZ
    Blend: AUG-CC-PVTZ
  Basis Set: (AUG-CC-PVTZ AUX)
    Blend: AUG-CC-PVTZ-JKFIT

    Orbital Energies [Eh]
    ---------------------

    Doubly Occupied:

       1A    -20.628743     2A    -15.562747     3A    -11.295845
       4A    -11.295114     5A    -11.294083     6A    -11.278328
       7A    -11.271347     8A    -11.241378     9A    -11.240763
      10A    -11.239064    11A    -11.237334    12A    -11.230625
      13A     -1.474862    14A     -1.243791    15A     -1.103675
      16A     -1.091571    17A     -1.058002    18A     -0.984600
      19A     -0.967843    20A     -0.861679    21A     -0.835349
      22A     -0.805540    23A     -0.767305    24A     -0.727519
      25A     -0.672607    26A     -0.667477    27A     -0.645845
      28A     -0.639452    29A     -0.601601    30A     -0.590297
      31A     -0.577867    32A     -0.573080    33A     -0.557866
      34A     -0.546522    35A     -0.535016    36A     -0.525393
      37A     -0.509334    38A     -0.417221    39A     -0.404716
      40A     -0.375226    41A     -0.362006    42A     -0.286457

  @DF-RHF Final Energy:  -513.37625641426678

   => Energetics <=

    Nuclear Repulsion Energy =            630.0504724985071334
    One-Electron Energy =               -1946.4032788528543279
    Two-Electron Energy =                 802.9765499400804174
    Total Energy =                       -513.3762564142667770
  Basis Set: (AUG-CC-PVTZ AUX)
    Blend: AUG-CC-PVTZ-RI
    Molecular point group: c1

    Geometry (in Angstrom), charge = 0, multiplicity = 1:

       Center              X                  Y                   Z               Mass
    ------------   -----------------  -----------------  -----------------  -----------------
         O           -2.182618008377     0.880360696663    -0.160938110670    15.994914619570
         N            0.464730991623     1.491320696663     0.090435889330    14.003074004430
         C            0.125264991623     0.172076696663     0.016045889330    12.000000000000
         C            2.458102991623    -0.539653303337    -0.042822110670    12.000000000000
         C           -1.302526008377    -0.152542303337     0.020740889330    12.000000000000
         C            1.085591991623    -0.856891303337    -0.059380110670    12.000000000000
         C            2.807692991623     0.825058696663     0.036122889330    12.000000000000
         C           -2.004219008377    -1.333600303337     0.172338889330    12.000000000000
         C            3.511966991623    -1.614276303337    -0.082404110670    12.000000000000
         C            1.792873991623     1.787400696663     0.092747889330    12.000000000000
         C           -3.385148008377    -1.004446303337     0.076894889330    12.000000000000
         C           -3.391466508377     0.351211196663    -0.123356810670    12.000000000000
         H            0.766085991623    -1.893771303337    -0.144629110670     1.007825032230
         H            3.851546991623     1.132449696663     0.043896889330     1.007825032230
         H           -1.582382008377    -2.313912303337     0.350107889330     1.007825032230
         H            3.883403991623    -1.832335303337     0.924506889330     1.007825032230
         H            3.112313991623    -2.542043303337    -0.500643110670     1.007825032230
         H            4.366364991623    -1.303906303337    -0.690601110670     1.007825032230
         H            2.041243991623     2.848285696663     0.145352889330     1.007825032230
         H           -4.229490008377    -1.676304303337     0.152764889330     1.007825032230
         H           -4.245887008377     1.056180696663    -0.256275110670     1.007825032230

  Basis Set: AUG-CC-PVTZ
    Blend: AUG-CC-PVTZ
  Basis Set: (AUG-CC-PVTZ AUX)
    Blend: AUG-CC-PVTZ-JKFIT
	 Reference Energy          =    -513.3762564142667770 [Eh]
	 Singles Energy            =      -0.0000000000000000 [Eh]
	 Same-Spin Energy          =      -0.5589549105009060 [Eh]
	 Opposite-Spin Energy      =      -1.7125582293081720 [Eh]
	 Correlation Energy        =      -2.2715131398090778 [Eh]
	 Total Energy              =    -515.6477695540758077 [Eh]

	 ================> DF-SCS-MP2 Energies <==================
	-----------------------------------------------------------
	 SCS Same-Spin Scale       =       0.3333333333333333 [-]
	 SCS Opposite-Spin Scale   =       1.2000000000000000 [-]
	 SCS Same-Spin Energy      =      -0.1863183035003020 [Eh]
	 SCS Opposite-Spin Energy  =      -2.0550698751698064 [Eh]
	 SCS Correlation Energy    =      -2.2413881786701082 [Eh]
	 SCS Total Energy          =    -515.6176445929369265 [Eh]
	-----------------------------------------------------------

  Dipole Moment: [D]
     X:     1.4840      Y:    -2.3562      Z:    -0.0075     Total:     2.7846

*** Psi4 exiting successfully. Buy a developer a beer!
