                               Psi4 1.4a3.dev225

  ==> Input File <==

--------------------------------------------------------------------------
#psi4
#
memory 32 gb

molecule  {
0 1
  O       -2.2261580     0.9189870    -0.1609950
  N        0.4211910     1.5299470     0.0903790
  C        0.0817250     0.2107030     0.0159890
  C        2.4145630    -0.5010270    -0.0428790
  C       -1.3460660    -0.1139160     0.0206840
  C        1.0420520    -0.8182650    -0.0594370
  C        2.7641530     0.8636850     0.0360660
  C       -2.0477590    -1.2949740     0.1722820
  C        3.4684270    -1.5756500    -0.0824610
  C        1.7348335     1.8397777     0.0935001
  C       -3.4286880    -0.9658200     0.0768380
  C       -3.4828100     0.3886030    -0.1245500
  H        0.7225460    -1.8551450    -0.1446860
  H        3.8080070     1.1710760     0.0438400
  H       -1.6259220    -2.2752860     0.3500510
  H        3.8398640    -1.7937090     0.9244500
  H        3.0687740    -2.5034170    -0.5007000
  H        4.3228250    -1.2652800    -0.6906580
  H        1.9977040     2.8869120     0.1452960
  H       -4.2730300    -1.6376780     0.1527080
  H       -4.2894270     1.0948070    -0.2563320
units angstrom
no_reorient  #important for SAPT in psi4, default
symmetry c1  #important for SAPT in psi4, default
}

set PROPERTIES_ORIGIN ["COM"]
properties('MP2/aug-cc-pvtz', properties = ['dipole'])
--------------------------------------------------------------------------

    Molecular point group: c1
  Charge       = 0
  Multiplicity = 1
  Basis Set: AUG-CC-PVTZ
    Blend: AUG-CC-PVTZ
  Basis Set: (AUG-CC-PVTZ AUX)
    Blend: AUG-CC-PVTZ-JKFIT

    Orbital Energies [Eh]
    ---------------------

    Doubly Occupied:

       1A    -20.621772     2A    -15.563386     3A    -11.297274
       4A    -11.294450     5A    -11.292994     6A    -11.279926
       7A    -11.271257     8A    -11.242765     9A    -11.240210
      10A    -11.239192    11A    -11.238638    12A    -11.233757
      13A     -1.453817    14A     -1.246010    15A     -1.104165
      16A     -1.087542    17A     -1.057579    18A     -0.982526
      19A     -0.967333    20A     -0.864326    21A     -0.835940
      22A     -0.800421    23A     -0.764725    24A     -0.727901
      25A     -0.672634    26A     -0.667971    27A     -0.642143
      28A     -0.633700    29A     -0.599976    30A     -0.590251
      31A     -0.578338    32A     -0.566069    33A     -0.558939
      34A     -0.547822    35A     -0.540552    36A     -0.525717
      37A     -0.511913    38A     -0.415743    39A     -0.402133
      40A     -0.374326    41A     -0.364258    42A     -0.286647

  @DF-RHF Final Energy:  -513.37696684905802

   => Energetics <=

    Nuclear Repulsion Energy =            628.8121452010736903
    One-Electron Energy =               -1944.0041457880247435
    Two-Electron Energy =                 801.8150337378930317
    Total Energy =                       -513.3769668490580216
  Basis Set: (AUG-CC-PVTZ AUX)
    Blend: AUG-CC-PVTZ-RI
    Molecular point group: c1

    Geometry (in Angstrom), charge = 0, multiplicity = 1:

       Center              X                  Y                   Z               Mass
    ------------   -----------------  -----------------  -----------------  -----------------
         O           -2.177917842067     0.879416484067    -0.160913426951    15.994914619570
         N            0.469431157933     1.490376484067     0.090460573049    14.003074004430
         C            0.129965157933     0.171132484067     0.016070573049    12.000000000000
         C            2.462803157933    -0.540597515933    -0.042797426951    12.000000000000
         C           -1.297825842067    -0.153486515933     0.020765573049    12.000000000000
         C            1.090292157933    -0.857835515933    -0.059355426951    12.000000000000
         C            2.812393157933     0.824114484067     0.036147573049    12.000000000000
         C           -1.999518842067    -1.334544515933     0.172363573049    12.000000000000
         C            3.516667157933    -1.615220515933    -0.082379426951    12.000000000000
         C            1.783073657933     1.800207184067     0.093581673049    12.000000000000
         C           -3.380447842067    -1.005390515933     0.076919573049    12.000000000000
         C           -3.434569842067     0.349032484067    -0.124468426951    12.000000000000
         H            0.770786157933    -1.894715515933    -0.144604426951     1.007825032230
         H            3.856247157933     1.131505484067     0.043921573049     1.007825032230
         H           -1.577681842067    -2.314856515933     0.350132573049     1.007825032230
         H            3.888104157933    -1.833279515933     0.924531573049     1.007825032230
         H            3.117014157933    -2.542987515933    -0.500618426951     1.007825032230
         H            4.371065157933    -1.304850515933    -0.690576426951     1.007825032230
         H            2.045944157933     2.847341484067     0.145377573049     1.007825032230
         H           -4.224789842067    -1.677248515933     0.152789573049     1.007825032230
         H           -4.241186842067     1.055236484067    -0.256250426951     1.007825032230

  Basis Set: AUG-CC-PVTZ
    Blend: AUG-CC-PVTZ
  Basis Set: (AUG-CC-PVTZ AUX)
    Blend: AUG-CC-PVTZ-JKFIT
	 Reference Energy          =    -513.3769668490580216 [Eh]
	 Singles Energy            =      -0.0000000000000000 [Eh]
	 Same-Spin Energy          =      -0.5590400138820821 [Eh]
	 Opposite-Spin Energy      =      -1.7135080457613978 [Eh]
	 Correlation Energy        =      -2.2725480596434799 [Eh]
	 Total Energy              =    -515.6495149087014624 [Eh]

	 ================> DF-SCS-MP2 Energies <==================
	-----------------------------------------------------------
	 SCS Same-Spin Scale       =       0.3333333333333333 [-]
	 SCS Opposite-Spin Scale   =       1.2000000000000000 [-]
	 SCS Same-Spin Energy      =      -0.1863466712940274 [Eh]
	 SCS Opposite-Spin Energy  =      -2.0562096549136775 [Eh]
	 SCS Correlation Energy    =      -2.2425563262077048 [Eh]
	 SCS Total Energy          =    -515.6195231752657264 [Eh]
	-----------------------------------------------------------

  Dipole Moment: [D]
     X:     1.4863      Y:    -2.3398      Z:    -0.0031     Total:     2.7720

*** Psi4 exiting successfully. Buy a developer a beer!
