                               Psi4 1.4a3.dev225

  ==> Input File <==

--------------------------------------------------------------------------
#psi4
#
memory 32 gb

molecule  {
0 1
  O       -2.2261580     0.9189870    -0.1609950
  N        0.4211910     1.5299470     0.0903790
  C        0.0817250     0.2107030     0.0159890
  C        2.2735965    -0.4571629    -0.0387633
  C       -1.3460660    -0.1139160     0.0206840
  C        1.0420520    -0.8182650    -0.0594370
  C        2.7641530     0.8636850     0.0360660
  C       -2.0477590    -1.2949740     0.1722820
  C        3.4684270    -1.5756500    -0.0824610
  C        1.7493340     1.8260270     0.0926910
  C       -3.4286880    -0.9658200     0.0768380
  C       -3.4828100     0.3886030    -0.1245500
  H        0.7225460    -1.8551450    -0.1446860
  H        3.8080070     1.1710760     0.0438400
  H       -1.6259220    -2.2752860     0.3500510
  H        3.8398640    -1.7937090     0.9244500
  H        3.0687740    -2.5034170    -0.5007000
  H        4.3228250    -1.2652800    -0.6906580
  H        1.9977040     2.8869120     0.1452960
  H       -4.2730300    -1.6376780     0.1527080
  H       -4.2894270     1.0948070    -0.2563320
units angstrom
no_reorient  #important for SAPT in psi4, default
symmetry c1  #important for SAPT in psi4, default
}

set PROPERTIES_ORIGIN ["COM"]
properties('MP2/aug-cc-pvtz', properties = ['dipole'])
--------------------------------------------------------------------------

    Molecular point group: c1
  Charge       = 0
  Multiplicity = 1
  Basis Set: AUG-CC-PVTZ
    Blend: AUG-CC-PVTZ
  Basis Set: (AUG-CC-PVTZ AUX)
    Blend: AUG-CC-PVTZ-JKFIT

    Orbital Energies [Eh]
    ---------------------

    Doubly Occupied:

       1A    -20.623974     2A    -15.563395     3A    -11.299021
       4A    -11.297811     5A    -11.296552     6A    -11.275667
       7A    -11.260024     8A    -11.242912     9A    -11.238677
      10A    -11.237346    11A    -11.236309    12A    -11.229863
      13A     -1.456166    14A     -1.250132    15A     -1.109363
      16A     -1.090032    17A     -1.061333    18A     -0.990240
      19A     -0.951359    20A     -0.873112    21A     -0.835610
      22A     -0.802437    23A     -0.767133    24A     -0.728299
      25A     -0.681918    26A     -0.668880    27A     -0.638000
      28A     -0.635062    29A     -0.604178    30A     -0.585312
      31A     -0.579444    32A     -0.569172    33A     -0.554363
      34A     -0.547467    35A     -0.531146    36A     -0.528093
      37A     -0.497903    38A     -0.411053    39A     -0.404336
      40A     -0.385143    41A     -0.372712    42A     -0.290135

  @DF-RHF Final Energy:  -513.35603387993331

   => Energetics <=

    Nuclear Repulsion Energy =            630.8582112245675262
    One-Electron Energy =               -1948.0263292783063207
    Two-Electron Energy =                 803.8120841738056015
    Total Energy =                       -513.3560338799333067
  Basis Set: (AUG-CC-PVTZ AUX)
    Blend: AUG-CC-PVTZ-RI
    Molecular point group: c1

    Geometry (in Angstrom), charge = 0, multiplicity = 1:

       Center              X                  Y                   Z               Mass
    ------------   -----------------  -----------------  -----------------  -----------------
         O           -2.168377343343     0.877144752105    -0.161162874337    15.994914619570
         N            0.478971656657     1.488104752105     0.090211125663    14.003074004430
         C            0.139505656657     0.168860752105     0.015821125663    12.000000000000
         C            2.331377156657    -0.499005147895    -0.038931174337    12.000000000000
         C           -1.288285343343    -0.155758247895     0.020516125663    12.000000000000
         C            1.099832656657    -0.860107247895    -0.059604874337    12.000000000000
         C            2.821933656657     0.821842752105     0.035898125663    12.000000000000
         C           -1.989978343343    -1.336816247895     0.172114125663    12.000000000000
         C            3.526207656657    -1.617492247895    -0.082628874337    12.000000000000
         C            1.807114656657     1.784184752105     0.092523125663    12.000000000000
         C           -3.370907343343    -1.007662247895     0.076670125663    12.000000000000
         C           -3.425029343343     0.346760752105    -0.124717874337    12.000000000000
         H            0.780326656657    -1.896987247895    -0.144853874337     1.007825032230
         H            3.865787656657     1.129233752105     0.043672125663     1.007825032230
         H           -1.568141343343    -2.317128247895     0.349883125663     1.007825032230
         H            3.897644656657    -1.835551247895     0.924282125663     1.007825032230
         H            3.126554656657    -2.545259247895    -0.500867874337     1.007825032230
         H            4.380605656657    -1.307122247895    -0.690825874337     1.007825032230
         H            2.055484656657     2.845069752105     0.145128125663     1.007825032230
         H           -4.215249343343    -1.679520247895     0.152540125663     1.007825032230
         H           -4.231646343343     1.052964752105    -0.256499874337     1.007825032230

  Basis Set: AUG-CC-PVTZ
    Blend: AUG-CC-PVTZ
  Basis Set: (AUG-CC-PVTZ AUX)
    Blend: AUG-CC-PVTZ-JKFIT
	 Reference Energy          =    -513.3560338799333067 [Eh]
	 Singles Energy            =      -0.0000000000000000 [Eh]
	 Same-Spin Energy          =      -0.5583127641068294 [Eh]
	 Opposite-Spin Energy      =      -1.7129817220239960 [Eh]
	 Correlation Energy        =      -2.2712944861308255 [Eh]
	 Total Energy              =    -515.6273283660641482 [Eh]

	 ================> DF-SCS-MP2 Energies <==================
	-----------------------------------------------------------
	 SCS Same-Spin Scale       =       0.3333333333333333 [-]
	 SCS Opposite-Spin Scale   =       1.2000000000000000 [-]
	 SCS Same-Spin Energy      =      -0.1861042547022765 [Eh]
	 SCS Opposite-Spin Energy  =      -2.0555780664287950 [Eh]
	 SCS Correlation Energy    =      -2.2416823211310715 [Eh]
	 SCS Total Energy          =    -515.5977162010643724 [Eh]
	-----------------------------------------------------------

  Dipole Moment: [D]
     X:     1.1759      Y:    -2.2093      Z:    -0.0071     Total:     2.5028

*** Psi4 exiting successfully. Buy a developer a beer!
