                               Psi4 1.4a3.dev225

  ==> Input File <==

--------------------------------------------------------------------------
#psi4
#
memory 32 gb

molecule  {
0 1
  O       -2.2261580     0.9189870    -0.1609950
  N        0.4211910     1.5299470     0.0903790
  C        0.0817250     0.2107030     0.0159890
  C        2.4145630    -0.5010270    -0.0428790
  C       -1.3460660    -0.1139160     0.0206840
  C        1.0420520    -0.8182650    -0.0594370
  C        2.7641530     0.8636850     0.0360660
  C       -2.0477590    -1.2949740     0.1722820
  C        3.4684270    -1.5756500    -0.0824610
  C        1.7493340     1.8260270     0.0926910
  C       -3.4480992    -0.9611932     0.0754964
  C       -3.4828100     0.3886030    -0.1245500
  H        0.7225460    -1.8551450    -0.1446860
  H        3.8080070     1.1710760     0.0438400
  H       -1.6259220    -2.2752860     0.3500510
  H        3.8398640    -1.7937090     0.9244500
  H        3.0687740    -2.5034170    -0.5007000
  H        4.3228250    -1.2652800    -0.6906580
  H        1.9977040     2.8869120     0.1452960
  H       -4.2730300    -1.6376780     0.1527080
  H       -4.2894270     1.0948070    -0.2563320
units angstrom
no_reorient  #important for SAPT in psi4, default
symmetry c1  #important for SAPT in psi4, default
}

set PROPERTIES_ORIGIN ["COM"]
properties('MP2/aug-cc-pvtz', properties = ['dipole'])
--------------------------------------------------------------------------

    Molecular point group: c1
  Charge       = 0
  Multiplicity = 1
  Basis Set: AUG-CC-PVTZ
    Blend: AUG-CC-PVTZ
  Basis Set: (AUG-CC-PVTZ AUX)
    Blend: AUG-CC-PVTZ-JKFIT

    Orbital Energies [Eh]
    ---------------------

    Doubly Occupied:

       1A    -20.621188     2A    -15.563939     3A    -11.297545
       4A    -11.294569     5A    -11.293206     6A    -11.278828
       7A    -11.271938     8A    -11.242665     9A    -11.240325
      10A    -11.239555    11A    -11.238662    12A    -11.233969
      13A     -1.453437    14A     -1.244331    15A     -1.104366
      16A     -1.084988    17A     -1.057958    18A     -0.984869
      19A     -0.968153    20A     -0.863491    21A     -0.835859
      22A     -0.801565    23A     -0.764083    24A     -0.727631
      25A     -0.673336    26A     -0.668893    27A     -0.639561
      28A     -0.633403    29A     -0.600567    30A     -0.590685
      31A     -0.581891    32A     -0.563953    33A     -0.559222
      34A     -0.547187    35A     -0.538947    36A     -0.525420
      37A     -0.509862    38A     -0.417797    39A     -0.400515
      40A     -0.376280    41A     -0.362661    42A     -0.289389

  @DF-RHF Final Energy:  -513.37743026983264

   => Energetics <=

    Nuclear Repulsion Energy =            628.6378281736285771
    One-Electron Energy =               -1943.6571346620451095
    Two-Electron Energy =                 801.6418762185838887
    Total Energy =                       -513.3774302698326437
  Basis Set: (AUG-CC-PVTZ AUX)
    Blend: AUG-CC-PVTZ-RI
    Molecular point group: c1

    Geometry (in Angstrom), charge = 0, multiplicity = 1:

       Center              X                  Y                   Z               Mass
    ------------   -----------------  -----------------  -----------------  -----------------
         O           -2.177547382599     0.880104784134    -0.160751179781    15.994914619570
         N            0.469801617401     1.491064784134     0.090622820219    14.003074004430
         C            0.130335617401     0.171820784134     0.016232820219    12.000000000000
         C            2.463173617401    -0.539909215866    -0.042635179781    12.000000000000
         C           -1.297455382599    -0.152798215866     0.020927820219    12.000000000000
         C            1.090662617401    -0.857147215866    -0.059193179781    12.000000000000
         C            2.812763617401     0.824802784134     0.036309820219    12.000000000000
         C           -1.999148382599    -1.333856215866     0.172525820219    12.000000000000
         C            3.517037617401    -1.614532215866    -0.082217179781    12.000000000000
         C            1.797944617401     1.787144784134     0.092934820219    12.000000000000
         C           -3.399488582599    -1.000075415866     0.075740220219    12.000000000000
         C           -3.434199382599     0.349720784134    -0.124306179781    12.000000000000
         H            0.771156617401    -1.894027215866    -0.144442179781     1.007825032230
         H            3.856617617401     1.132193784134     0.044083820219     1.007825032230
         H           -1.577311382599    -2.314168215866     0.350294820219     1.007825032230
         H            3.888474617401    -1.832591215866     0.924693820219     1.007825032230
         H            3.117384617401    -2.542299215866    -0.500456179781     1.007825032230
         H            4.371435617401    -1.304162215866    -0.690414179781     1.007825032230
         H            2.046314617401     2.848029784134     0.145539820219     1.007825032230
         H           -4.224419382599    -1.676560215866     0.152951820219     1.007825032230
         H           -4.240816382599     1.055924784134    -0.256088179781     1.007825032230

  Basis Set: AUG-CC-PVTZ
    Blend: AUG-CC-PVTZ
  Basis Set: (AUG-CC-PVTZ AUX)
    Blend: AUG-CC-PVTZ-JKFIT
	 Reference Energy          =    -513.3774302698326437 [Eh]
	 Singles Energy            =      -0.0000000000000000 [Eh]
	 Same-Spin Energy          =      -0.5586508108592030 [Eh]
	 Opposite-Spin Energy      =      -1.7132686169487146 [Eh]
	 Correlation Energy        =      -2.2719194278079176 [Eh]
	 Total Energy              =    -515.6493496976405595 [Eh]

	 ================> DF-SCS-MP2 Energies <==================
	-----------------------------------------------------------
	 SCS Same-Spin Scale       =       0.3333333333333333 [-]
	 SCS Opposite-Spin Scale   =       1.2000000000000000 [-]
	 SCS Same-Spin Energy      =      -0.1862169369530677 [Eh]
	 SCS Opposite-Spin Energy  =      -2.0559223403384572 [Eh]
	 SCS Correlation Energy    =      -2.2421392772915247 [Eh]
	 SCS Total Energy          =    -515.6195695471241152 [Eh]
	-----------------------------------------------------------

  Dipole Moment: [D]
     X:     1.4994      Y:    -2.3752      Z:    -0.0038     Total:     2.8089

*** Psi4 exiting successfully. Buy a developer a beer!
