                               Psi4 1.4a3.dev225

  ==> Input File <==

--------------------------------------------------------------------------
#psi4
#
memory 32 gb

molecule  {
0 1
  O       -2.2261580     0.9189870    -0.1609950
  N        0.4211910     1.5299470     0.0903790
  C        0.0817250     0.2107030     0.0159890
  C        2.4145630    -0.5010270    -0.0428790
  C       -1.3460660    -0.1139160     0.0206840
  C        1.0420520    -0.8182650    -0.0594370
  C        2.7641530     0.8636850     0.0360660
  C       -2.0477590    -1.2949740     0.1722820
  C        3.4684270    -1.5756500    -0.0824610
  C        1.7130828     1.8604037     0.0947138
  C       -3.4286880    -0.9658200     0.0768380
  C       -3.4828100     0.3886030    -0.1245500
  H        0.7225460    -1.8551450    -0.1446860
  H        3.8080070     1.1710760     0.0438400
  H       -1.6259220    -2.2752860     0.3500510
  H        3.8398640    -1.7937090     0.9244500
  H        3.0687740    -2.5034170    -0.5007000
  H        4.3228250    -1.2652800    -0.6906580
  H        1.9977040     2.8869120     0.1452960
  H       -4.2730300    -1.6376780     0.1527080
  H       -4.2894270     1.0948070    -0.2563320
units angstrom
no_reorient  #important for SAPT in psi4, default
symmetry c1  #important for SAPT in psi4, default
}

set PROPERTIES_ORIGIN ["COM"]
properties('MP2/aug-cc-pvtz', properties = ['dipole'])
--------------------------------------------------------------------------

    Molecular point group: c1
  Charge       = 0
  Multiplicity = 1
  Basis Set: AUG-CC-PVTZ
    Blend: AUG-CC-PVTZ
  Basis Set: (AUG-CC-PVTZ AUX)
    Blend: AUG-CC-PVTZ-JKFIT

    Orbital Energies [Eh]
    ---------------------

    Doubly Occupied:

       1A    -20.621568     2A    -15.562876     3A    -11.297239
       4A    -11.294438     5A    -11.292574     6A    -11.281545
       7A    -11.270314     8A    -11.243161     9A    -11.242542
      10A    -11.238724    11A    -11.238130    12A    -11.233542
      13A     -1.453624    14A     -1.248872    15A     -1.104152
      16A     -1.087060    17A     -1.057347    18A     -0.980262
      19A     -0.965789    20A     -0.866101    21A     -0.835606
      22A     -0.800584    23A     -0.764456    24A     -0.728042
      25A     -0.672397    26A     -0.667042    27A     -0.645769
      28A     -0.633659    29A     -0.600181    30A     -0.589692
      31A     -0.577500    32A     -0.565903    33A     -0.558790
      34A     -0.548081    35A     -0.540373    36A     -0.526357
      37A     -0.514452    38A     -0.412604    39A     -0.401664
      40A     -0.372280    41A     -0.366656    42A     -0.284722

  @DF-RHF Final Energy:  -513.37491848641559

   => Energetics <=

    Nuclear Repulsion Energy =            628.6418150425696467
    One-Electron Energy =               -1943.6601242633341826
    Two-Electron Energy =                 801.6433907343488272
    Total Energy =                       -513.3749184864155950
  Basis Set: (AUG-CC-PVTZ AUX)
    Blend: AUG-CC-PVTZ-RI
    Molecular point group: c1

    Geometry (in Angstrom), charge = 0, multiplicity = 1:

       Center              X                  Y                   Z               Mass
    ------------   -----------------  -----------------  -----------------  -----------------
         O           -2.176276985824     0.877860474336    -0.161004987555    15.994914619570
         N            0.471072014176     1.488820474336     0.090369012445    14.003074004430
         C            0.131606014176     0.169576474336     0.015979012445    12.000000000000
         C            2.464444014176    -0.542153525664    -0.042888987555    12.000000000000
         C           -1.296184985824    -0.155042525664     0.020674012445    12.000000000000
         C            1.091933014176    -0.859391525664    -0.059446987555    12.000000000000
         C            2.814034014176     0.822558474336     0.036056012445    12.000000000000
         C           -1.997877985824    -1.336100525664     0.172272012445    12.000000000000
         C            3.518308014176    -1.616776525664    -0.082470987555    12.000000000000
         C            1.762963814176     1.819277174336     0.094703812445    12.000000000000
         C           -3.378806985824    -1.006946525664     0.076828012445    12.000000000000
         C           -3.432928985824     0.347476474336    -0.124559987555    12.000000000000
         H            0.772427014176    -1.896271525664    -0.144695987555     1.007825032230
         H            3.857888014176     1.129949474336     0.043830012445     1.007825032230
         H           -1.576040985824    -2.316412525664     0.350041012445     1.007825032230
         H            3.889745014176    -1.834835525664     0.924440012445     1.007825032230
         H            3.118655014176    -2.544543525664    -0.500709987555     1.007825032230
         H            4.372706014176    -1.306406525664    -0.690667987555     1.007825032230
         H            2.047585014176     2.845785474336     0.145286012445     1.007825032230
         H           -4.223148985824    -1.678804525664     0.152698012445     1.007825032230
         H           -4.239545985824     1.053680474336    -0.256341987555     1.007825032230

  Basis Set: AUG-CC-PVTZ
    Blend: AUG-CC-PVTZ
  Basis Set: (AUG-CC-PVTZ AUX)
    Blend: AUG-CC-PVTZ-JKFIT
	 Reference Energy          =    -513.3749184864155950 [Eh]
	 Singles Energy            =      -0.0000000000000000 [Eh]
	 Same-Spin Energy          =      -0.5589636838442920 [Eh]
	 Opposite-Spin Energy      =      -1.7134243360976431 [Eh]
	 Correlation Energy        =      -2.2723880199419351 [Eh]
	 Total Energy              =    -515.6473065063574950 [Eh]

	 ================> DF-SCS-MP2 Energies <==================
	-----------------------------------------------------------
	 SCS Same-Spin Scale       =       0.3333333333333333 [-]
	 SCS Opposite-Spin Scale   =       1.2000000000000000 [-]
	 SCS Same-Spin Energy      =      -0.1863212279480973 [Eh]
	 SCS Opposite-Spin Energy  =      -2.0561092033171717 [Eh]
	 SCS Correlation Energy    =      -2.2424304312652690 [Eh]
	 SCS Total Energy          =    -515.6173489176808289 [Eh]
	-----------------------------------------------------------

  Dipole Moment: [D]
     X:     1.4856      Y:    -2.2890      Z:    -0.0005     Total:     2.7288

*** Psi4 exiting successfully. Buy a developer a beer!
