                               Psi4 1.4a3.dev225

  ==> Input File <==

--------------------------------------------------------------------------
#psi4
#
memory 32 gb

molecule  {
0 1
  O       -2.2261580     0.9189870    -0.1609950
  N        0.4211910     1.5299470     0.0903790
  C        0.0817250     0.2107030     0.0159890
  C        2.4145630    -0.5010270    -0.0428790
  C       -1.3460660    -0.1139160     0.0206840
  C        1.0420520    -0.8182650    -0.0594370
  C        2.7641530     0.8636850     0.0360660
  C       -2.0477590    -1.2949740     0.1722820
  C        3.4684270    -1.5756500    -0.0824610
  C        1.7493340     1.8260270     0.0926910
  C       -3.4286880    -0.9658200     0.0768380
  C       -3.3394346     0.3873521    -0.1204110
  H        0.7225460    -1.8551450    -0.1446860
  H        3.8080070     1.1710760     0.0438400
  H       -1.6259220    -2.2752860     0.3500510
  H        3.8398640    -1.7937090     0.9244500
  H        3.0687740    -2.5034170    -0.5007000
  H        4.3228250    -1.2652800    -0.6906580
  H        1.9977040     2.8869120     0.1452960
  H       -4.2730300    -1.6376780     0.1527080
  H       -4.2894270     1.0948070    -0.2563320
units angstrom
no_reorient  #important for SAPT in psi4, default
symmetry c1  #important for SAPT in psi4, default
}

set PROPERTIES_ORIGIN ["COM"]
properties('MP2/aug-cc-pvtz', properties = ['dipole'])
--------------------------------------------------------------------------

    Molecular point group: c1
  Charge       = 0
  Multiplicity = 1
  Basis Set: AUG-CC-PVTZ
    Blend: AUG-CC-PVTZ
  Basis Set: (AUG-CC-PVTZ AUX)
    Blend: AUG-CC-PVTZ-JKFIT

    Orbital Energies [Eh]
    ---------------------

    Doubly Occupied:

       1A    -20.642685     2A    -15.560905     3A    -11.303150
       4A    -11.294054     5A    -11.290595     6A    -11.277628
       7A    -11.270438     8A    -11.245158     9A    -11.239191
      10A    -11.238291    11A    -11.235117    12A    -11.225350
      13A     -1.523740    14A     -1.243106    15A     -1.103100
      16A     -1.101023    17A     -1.058760    18A     -0.985941
      19A     -0.967421    20A     -0.859691    21A     -0.835907
      22A     -0.816890    23A     -0.776325    24A     -0.725511
      25A     -0.675355    26A     -0.670906    27A     -0.664024
      28A     -0.642167    29A     -0.609626    30A     -0.589636
      31A     -0.587239    32A     -0.574204    33A     -0.556702
      34A     -0.545870    35A     -0.526817    36A     -0.509905
      37A     -0.507719    38A     -0.416590    39A     -0.410292
      40A     -0.373921    41A     -0.361112    42A     -0.283624

  @DF-RHF Final Energy:  -513.35540082457169

   => Energetics <=

    Nuclear Repulsion Energy =            632.4459799840401502
    One-Electron Energy =               -1950.9513907764930991
    Two-Electron Energy =                 805.1500099678812603
    Total Energy =                       -513.3554008245716886
  Basis Set: (AUG-CC-PVTZ AUX)
    Blend: AUG-CC-PVTZ-RI
    Molecular point group: c1

    Geometry (in Angstrom), charge = 0, multiplicity = 1:

       Center              X                  Y                   Z               Mass
    ------------   -----------------  -----------------  -----------------  -----------------
         O           -2.189827879726     0.880548193346    -0.161164632071    15.994914619570
         N            0.457521120274     1.491508193346     0.090209367929    14.003074004430
         C            0.118055120274     0.172264193346     0.015819367929    12.000000000000
         C            2.450893120274    -0.539465806654    -0.043048632071    12.000000000000
         C           -1.309735879726    -0.152354806654     0.020514367929    12.000000000000
         C            1.078382120274    -0.856703806654    -0.059606632071    12.000000000000
         C            2.800483120274     0.825246193346     0.035896367929    12.000000000000
         C           -2.011428879726    -1.333412806654     0.172112367929    12.000000000000
         C            3.504757120274    -1.614088806654    -0.082630632071    12.000000000000
         C            1.785664120274     1.787588193346     0.092521367929    12.000000000000
         C           -3.392357879726    -1.004258806654     0.076668367929    12.000000000000
         C           -3.303104479726     0.348913293346    -0.120580632071    12.000000000000
         H            0.758876120274    -1.893583806654    -0.144855632071     1.007825032230
         H            3.844337120274     1.132637193346     0.043670367929     1.007825032230
         H           -1.589591879726    -2.313724806654     0.349881367929     1.007825032230
         H            3.876194120274    -1.832147806654     0.924280367929     1.007825032230
         H            3.105104120274    -2.541855806654    -0.500869632071     1.007825032230
         H            4.359155120274    -1.303718806654    -0.690827632071     1.007825032230
         H            2.034034120274     2.848473193346     0.145126367929     1.007825032230
         H           -4.236699879726    -1.676116806654     0.152538367929     1.007825032230
         H           -4.253096879726     1.056368193346    -0.256501632071     1.007825032230

  Basis Set: AUG-CC-PVTZ
    Blend: AUG-CC-PVTZ
  Basis Set: (AUG-CC-PVTZ AUX)
    Blend: AUG-CC-PVTZ-JKFIT
	 Reference Energy          =    -513.3554008245716886 [Eh]
	 Singles Energy            =      -0.0000000000000000 [Eh]
	 Same-Spin Energy          =      -0.5588160139007705 [Eh]
	 Opposite-Spin Energy      =      -1.7108877750916101 [Eh]
	 Correlation Energy        =      -2.2697037889923806 [Eh]
	 Total Energy              =    -515.6251046135640763 [Eh]

	 ================> DF-SCS-MP2 Energies <==================
	-----------------------------------------------------------
	 SCS Same-Spin Scale       =       0.3333333333333333 [-]
	 SCS Opposite-Spin Scale   =       1.2000000000000000 [-]
	 SCS Same-Spin Energy      =      -0.1862720046335902 [Eh]
	 SCS Opposite-Spin Energy  =      -2.0530653301099320 [Eh]
	 SCS Correlation Energy    =      -2.2393373347435221 [Eh]
	 SCS Total Energy          =    -515.5947381593151704 [Eh]
	-----------------------------------------------------------

  Dipole Moment: [D]
     X:     1.5086      Y:    -2.3437      Z:    -0.0094     Total:     2.7872

*** Psi4 exiting successfully. Buy a developer a beer!
