                               Psi4 1.4a3.dev225

  ==> Input File <==

--------------------------------------------------------------------------
#psi4
#
memory 32 gb

molecule  {
0 1
  O       -2.2261580     0.9189870    -0.1609950
  N        0.4211910     1.5299470     0.0903790
  C        0.0817250     0.2107030     0.0159890
  C        2.4145630    -0.5010270    -0.0428790
  C       -1.3460660    -0.1139160     0.0206840
  C        1.0420520    -0.8182650    -0.0594370
  C        2.7641530     0.8636850     0.0360660
  C       -2.0477590    -1.2949740     0.1722820
  C        3.4684270    -1.5756500    -0.0824610
  C        1.7493340     1.8260270     0.0926910
  C       -3.4286880    -0.9658200     0.0768380
  C       -3.3907126     0.4274737    -0.1272210
  H        0.7225460    -1.8551450    -0.1446860
  H        3.8080070     1.1710760     0.0438400
  H       -1.6259220    -2.2752860     0.3500510
  H        3.8398640    -1.7937090     0.9244500
  H        3.0687740    -2.5034170    -0.5007000
  H        4.3228250    -1.2652800    -0.6906580
  H        1.9977040     2.8869120     0.1452960
  H       -4.2730300    -1.6376780     0.1527080
  H       -4.2894270     1.0948070    -0.2563320
units angstrom
no_reorient  #important for SAPT in psi4, default
symmetry c1  #important for SAPT in psi4, default
}

set PROPERTIES_ORIGIN ["COM"]
properties('MP2/aug-cc-pvtz', properties = ['dipole'])
--------------------------------------------------------------------------

    Molecular point group: c1
  Charge       = 0
  Multiplicity = 1
  Basis Set: AUG-CC-PVTZ
    Blend: AUG-CC-PVTZ
  Basis Set: (AUG-CC-PVTZ AUX)
    Blend: AUG-CC-PVTZ-JKFIT

    Orbital Energies [Eh]
    ---------------------

    Doubly Occupied:

       1A    -20.638861     2A    -15.561291     3A    -11.302456
       4A    -11.294255     5A    -11.291982     6A    -11.277761
       7A    -11.270680     8A    -11.243388     9A    -11.239855
      10A    -11.238472    11A    -11.235682    12A    -11.230680
      13A     -1.503667    14A     -1.243215    15A     -1.102690
      16A     -1.092910    17A     -1.055730    18A     -0.985967
      19A     -0.967638    20A     -0.859074    21A     -0.836745
      22A     -0.811338    23A     -0.770783    24A     -0.730087
      25A     -0.672666    26A     -0.667779    27A     -0.660343
      28A     -0.644158    29A     -0.606422    30A     -0.589775
      31A     -0.583358    32A     -0.572953    33A     -0.556661
      34A     -0.546162    35A     -0.527037    36A     -0.521524
      37A     -0.508510    38A     -0.416526    39A     -0.406834
      40A     -0.371740    41A     -0.360574    42A     -0.282057

  @DF-RHF Final Energy:  -513.36825831537010

   => Energetics <=

    Nuclear Repulsion Energy =            630.8608657928757566
    One-Electron Energy =               -1947.8976795772505284
    Two-Electron Energy =                 803.6685554690046729
    Total Energy =                       -513.3682583153700989
  Basis Set: (AUG-CC-PVTZ AUX)
    Blend: AUG-CC-PVTZ-RI
    Molecular point group: c1

    Geometry (in Angstrom), charge = 0, multiplicity = 1:

       Center              X                  Y                   Z               Mass
    ------------   -----------------  -----------------  -----------------  -----------------
         O           -2.185959506459     0.877521450398    -0.160650890857    15.994914619570
         N            0.461389493541     1.488481450398     0.090723109143    14.003074004430
         C            0.121923493541     0.169237450398     0.016333109143    12.000000000000
         C            2.454761493541    -0.542492549602    -0.042534890857    12.000000000000
         C           -1.305867506459    -0.155381549602     0.021028109143    12.000000000000
         C            1.082250493541    -0.859730549602    -0.059092890857    12.000000000000
         C            2.804351493541     0.822219450398     0.036410109143    12.000000000000
         C           -2.007560506459    -1.336439549602     0.172626109143    12.000000000000
         C            3.508625493541    -1.617115549602    -0.082116890857    12.000000000000
         C            1.789532493541     1.784561450398     0.093035109143    12.000000000000
         C           -3.388489506459    -1.007285549602     0.077182109143    12.000000000000
         C           -3.350514106459     0.386008150398    -0.126876890857    12.000000000000
         H            0.762744493541    -1.896610549602    -0.144341890857     1.007825032230
         H            3.848205493541     1.129610450398     0.044184109143     1.007825032230
         H           -1.585723506459    -2.316751549602     0.350395109143     1.007825032230
         H            3.880062493541    -1.835174549602     0.924794109143     1.007825032230
         H            3.108972493541    -2.544882549602    -0.500355890857     1.007825032230
         H            4.363023493541    -1.306745549602    -0.690313890857     1.007825032230
         H            2.037902493541     2.845446450398     0.145640109143     1.007825032230
         H           -4.232831506459    -1.679143549602     0.153052109143     1.007825032230
         H           -4.249228506459     1.053341450398    -0.255987890857     1.007825032230

  Basis Set: AUG-CC-PVTZ
    Blend: AUG-CC-PVTZ
  Basis Set: (AUG-CC-PVTZ AUX)
    Blend: AUG-CC-PVTZ-JKFIT
	 Reference Energy          =    -513.3682583153700989 [Eh]
	 Singles Energy            =      -0.0000000000000000 [Eh]
	 Same-Spin Energy          =      -0.5592469569432054 [Eh]
	 Opposite-Spin Energy      =      -1.7119061313629007 [Eh]
	 Correlation Energy        =      -2.2711530883061060 [Eh]
	 Total Energy              =    -515.6394114036761493 [Eh]

	 ================> DF-SCS-MP2 Energies <==================
	-----------------------------------------------------------
	 SCS Same-Spin Scale       =       0.3333333333333333 [-]
	 SCS Opposite-Spin Scale   =       1.2000000000000000 [-]
	 SCS Same-Spin Energy      =      -0.1864156523144018 [Eh]
	 SCS Opposite-Spin Energy  =      -2.0542873576354808 [Eh]
	 SCS Correlation Energy    =      -2.2407030099498826 [Eh]
	 SCS Total Energy          =    -515.6089613253200241 [Eh]
	-----------------------------------------------------------

  Dipole Moment: [D]
     X:     1.4924      Y:    -2.2755      Z:    -0.0199     Total:     2.7214

*** Psi4 exiting successfully. Buy a developer a beer!
