                               Psi4 1.4a3.dev225

  ==> Input File <==

--------------------------------------------------------------------------
#psi4
#
memory 32 gb

molecule  {
0 1
  O       -2.2261580     0.9189870    -0.1609950
  N        0.4211910     1.5299470     0.0903790
  C        0.0817250     0.2107030     0.0159890
  C        2.4145630    -0.5010270    -0.0428790
  C       -1.3460660    -0.1139160     0.0206840
  C        1.0420520    -0.8182650    -0.0594370
  C        2.7641530     0.8636850     0.0360660
  C       -2.0477590    -1.2949740     0.1722820
  C        3.4684270    -1.5756500    -0.0824610
  C        1.7493340     1.8260270     0.0926910
  C       -3.4286880    -0.9658200     0.0768380
  C       -3.4828100     0.3886030    -0.1245500
  H        0.7225460    -1.8551450    -0.1446860
  H        3.9039318     1.1993236     0.0445544
  H       -1.6259220    -2.2752860     0.3500510
  H        3.8398640    -1.7937090     0.9244500
  H        3.0687740    -2.5034170    -0.5007000
  H        4.3228250    -1.2652800    -0.6906580
  H        1.9977040     2.8869120     0.1452960
  H       -4.2730300    -1.6376780     0.1527080
  H       -4.2894270     1.0948070    -0.2563320
units angstrom
no_reorient  #important for SAPT in psi4, default
symmetry c1  #important for SAPT in psi4, default
}

set PROPERTIES_ORIGIN ["COM"]
properties('MP2/aug-cc-pvtz', properties = ['dipole'])
--------------------------------------------------------------------------

    Molecular point group: c1
  Charge       = 0
  Multiplicity = 1
  Basis Set: AUG-CC-PVTZ
    Blend: AUG-CC-PVTZ
  Basis Set: (AUG-CC-PVTZ AUX)
    Blend: AUG-CC-PVTZ-JKFIT

    Orbital Energies [Eh]
    ---------------------

    Doubly Occupied:

       1A    -20.622202     2A    -15.564591     3A    -11.297619
       4A    -11.294973     5A    -11.293545     6A    -11.279756
       7A    -11.272995     8A    -11.249625     9A    -11.243349
      10A    -11.239476    11A    -11.239290    12A    -11.234148
      13A     -1.454242    14A     -1.244893    15A     -1.104044
      16A     -1.088034    17A     -1.057644    18A     -0.982767
      19A     -0.968088    20A     -0.860220    21A     -0.836638
      22A     -0.800481    23A     -0.764683    24A     -0.728071
      25A     -0.669619    26A     -0.662118    27A     -0.637666
      28A     -0.633800    29A     -0.599249    30A     -0.590616
      31A     -0.575572    32A     -0.566346    33A     -0.555193
      34A     -0.547954    35A     -0.540952    36A     -0.526007
      37A     -0.506156    38A     -0.417960    39A     -0.402811
      40A     -0.376504    41A     -0.363198    42A     -0.288320

  @DF-RHF Final Energy:  -513.36973892637377

   => Energetics <=

    Nuclear Repulsion Energy =            628.4313987867851665
    One-Electron Energy =               -1943.2394481503683892
    Two-Electron Energy =                 801.4383104372094522
    Total Energy =                       -513.3697389263737705
  Basis Set: (AUG-CC-PVTZ AUX)
    Blend: AUG-CC-PVTZ-RI
    Molecular point group: c1

    Geometry (in Angstrom), charge = 0, multiplicity = 1:

       Center              X                  Y                   Z               Mass
    ------------   -----------------  -----------------  -----------------  -----------------
         O           -2.179619508715     0.880274855369    -0.160856915356    15.994914619570
         N            0.467729491285     1.491234855369     0.090517084644    14.003074004430
         C            0.128263491285     0.171990855369     0.016127084644    12.000000000000
         C            2.461101491285    -0.539739144631    -0.042740915356    12.000000000000
         C           -1.299527508715    -0.152628144631     0.020822084644    12.000000000000
         C            1.088590491285    -0.856977144631    -0.059298915356    12.000000000000
         C            2.810691491285     0.824972855369     0.036204084644    12.000000000000
         C           -2.001220508715    -1.333686144631     0.172420084644    12.000000000000
         C            3.514965491285    -1.614362144631    -0.082322915356    12.000000000000
         C            1.795872491285     1.787314855369     0.092829084644    12.000000000000
         C           -3.382149508715    -1.004532144631     0.076976084644    12.000000000000
         C           -3.436271508715     0.349890855369    -0.124411915356    12.000000000000
         H            0.769084491285    -1.893857144631    -0.144547915356     1.007825032230
         H            3.950470291285     1.160611455369     0.044692484644     1.007825032230
         H           -1.579383508715    -2.313998144631     0.350189084644     1.007825032230
         H            3.886402491285    -1.832421144631     0.924588084644     1.007825032230
         H            3.115312491285    -2.542129144631    -0.500561915356     1.007825032230
         H            4.369363491285    -1.303992144631    -0.690519915356     1.007825032230
         H            2.044242491285     2.848199855369     0.145434084644     1.007825032230
         H           -4.226491508715    -1.676390144631     0.152846084644     1.007825032230
         H           -4.242888508715     1.056094855369    -0.256193915356     1.007825032230

  Basis Set: AUG-CC-PVTZ
    Blend: AUG-CC-PVTZ
  Basis Set: (AUG-CC-PVTZ AUX)
    Blend: AUG-CC-PVTZ-JKFIT
	 Reference Energy          =    -513.3697389263737705 [Eh]
	 Singles Energy            =      -0.0000000000000000 [Eh]
	 Same-Spin Energy          =      -0.5593368230605891 [Eh]
	 Opposite-Spin Energy      =      -1.7145852820982457 [Eh]
	 Correlation Energy        =      -2.2739221051588347 [Eh]
	 Total Energy              =    -515.6436610315325879 [Eh]

	 ================> DF-SCS-MP2 Energies <==================
	-----------------------------------------------------------
	 SCS Same-Spin Scale       =       0.3333333333333333 [-]
	 SCS Opposite-Spin Scale   =       1.2000000000000000 [-]
	 SCS Same-Spin Energy      =      -0.1864456076868630 [Eh]
	 SCS Opposite-Spin Energy  =      -2.0575023385178945 [Eh]
	 SCS Correlation Energy    =      -2.2439479462047576 [Eh]
	 SCS Total Energy          =    -515.6136868725785689 [Eh]
	-----------------------------------------------------------

  Dipole Moment: [D]
     X:     1.4388      Y:    -2.3848      Z:    -0.0048     Total:     2.7853

*** Psi4 exiting successfully. Buy a developer a beer!
