                               Psi4 1.4a3.dev225

  ==> Input File <==

--------------------------------------------------------------------------
#psi4
#
memory 32 gb

molecule  {
0 1
  O       -2.2261580     0.9189870    -0.1609950
  N        0.4211910     1.5299470     0.0903790
  C        0.0817250     0.2107030     0.0159890
  C        2.4145630    -0.5010270    -0.0428790
  C       -1.3460660    -0.1139160     0.0206840
  C        1.0420520    -0.8182650    -0.0594370
  C        2.7641530     0.8636850     0.0360660
  C       -2.0477590    -1.2949740     0.1722820
  C        3.4684270    -1.5756500    -0.0824610
  C        1.7493340     1.8260270     0.0926910
  C       -3.4286880    -0.9658200     0.0768380
  C       -3.4643905     0.3963771    -0.1250842
  H        0.7225460    -1.8551450    -0.1446860
  H        3.8080070     1.1710760     0.0438400
  H       -1.6259220    -2.2752860     0.3500510
  H        3.8398640    -1.7937090     0.9244500
  H        3.0687740    -2.5034170    -0.5007000
  H        4.3228250    -1.2652800    -0.6906580
  H        1.9977040     2.8869120     0.1452960
  H       -4.2730300    -1.6376780     0.1527080
  H       -4.2894270     1.0948070    -0.2563320
units angstrom
no_reorient  #important for SAPT in psi4, default
symmetry c1  #important for SAPT in psi4, default
}

set PROPERTIES_ORIGIN ["COM"]
properties('MP2/aug-cc-pvtz', properties = ['dipole'])
--------------------------------------------------------------------------

    Molecular point group: c1
  Charge       = 0
  Multiplicity = 1
  Basis Set: AUG-CC-PVTZ
    Blend: AUG-CC-PVTZ
  Basis Set: (AUG-CC-PVTZ AUX)
    Blend: AUG-CC-PVTZ-JKFIT

    Orbital Energies [Eh]
    ---------------------

    Doubly Occupied:

       1A    -20.625197     2A    -15.563284     3A    -11.296368
       4A    -11.294782     5A    -11.294377     6A    -11.278568
       7A    -11.271650     8A    -11.242038     9A    -11.239802
      10A    -11.239311    11A    -11.237971    12A    -11.233228
      13A     -1.462819    14A     -1.244024    15A     -1.104001
      16A     -1.088564    17A     -1.057448    18A     -0.984496
      19A     -0.968041    20A     -0.862365    21A     -0.836048
      22A     -0.802408    23A     -0.765733    24A     -0.728292
      25A     -0.673020    26A     -0.668354    27A     -0.641039
      28A     -0.637883    29A     -0.600933    30A     -0.590489
      31A     -0.578196    32A     -0.569024    33A     -0.558367
      34A     -0.547087    35A     -0.538702    36A     -0.525454
      37A     -0.509633    38A     -0.417466    39A     -0.403108
      40A     -0.375167    41A     -0.362206    42A     -0.286871

  @DF-RHF Final Energy:  -513.37732542096467

   => Energetics <=

    Nuclear Repulsion Energy =            629.3020349552385824
    One-Electron Energy =               -1944.9510909132043253
    Two-Electron Energy =                 802.2717305370009626
    Total Energy =                       -513.3773254209646666
  Basis Set: (AUG-CC-PVTZ AUX)
    Blend: AUG-CC-PVTZ-RI
    Molecular point group: c1

    Geometry (in Angstrom), charge = 0, multiplicity = 1:

       Center              X                  Y                   Z               Mass
    ------------   -----------------  -----------------  -----------------  -----------------
         O           -2.180401301796     0.879867354219    -0.160812089422    15.994914619570
         N            0.466947698204     1.490827354219     0.090561910578    14.003074004430
         C            0.127481698204     0.171583354219     0.016171910578    12.000000000000
         C            2.460319698204    -0.540146645781    -0.042696089422    12.000000000000
         C           -1.300309301796    -0.153035645781     0.020866910578    12.000000000000
         C            1.087808698204    -0.857384645781    -0.059254089422    12.000000000000
         C            2.809909698204     0.824565354219     0.036248910578    12.000000000000
         C           -2.002002301796    -1.334093645781     0.172464910578    12.000000000000
         C            3.514183698204    -1.614769645781    -0.082278089422    12.000000000000
         C            1.795090698204     1.786907354219     0.092873910578    12.000000000000
         C           -3.382931301796    -1.004939645781     0.077020910578    12.000000000000
         C           -3.418633801796     0.357257454219    -0.124901289422    12.000000000000
         H            0.768302698204    -1.894264645781    -0.144503089422     1.007825032230
         H            3.853763698204     1.131956354219     0.044022910578     1.007825032230
         H           -1.580165301796    -2.314405645781     0.350233910578     1.007825032230
         H            3.885620698204    -1.832828645781     0.924632910578     1.007825032230
         H            3.114530698204    -2.542536645781    -0.500517089422     1.007825032230
         H            4.368581698204    -1.304399645781    -0.690475089422     1.007825032230
         H            2.043460698204     2.847792354219     0.145478910578     1.007825032230
         H           -4.227273301796    -1.676797645781     0.152890910578     1.007825032230
         H           -4.243670301796     1.055687354219    -0.256149089422     1.007825032230

  Basis Set: AUG-CC-PVTZ
    Blend: AUG-CC-PVTZ
  Basis Set: (AUG-CC-PVTZ AUX)
    Blend: AUG-CC-PVTZ-JKFIT
	 Reference Energy          =    -513.3773254209646666 [Eh]
	 Singles Energy            =      -0.0000000000000000 [Eh]
	 Same-Spin Energy          =      -0.5591078740667756 [Eh]
	 Opposite-Spin Energy      =      -1.7132726896375217 [Eh]
	 Correlation Energy        =      -2.2723805637042975 [Eh]
	 Total Energy              =    -515.6497059846689126 [Eh]

	 ================> DF-SCS-MP2 Energies <==================
	-----------------------------------------------------------
	 SCS Same-Spin Scale       =       0.3333333333333333 [-]
	 SCS Opposite-Spin Scale   =       1.2000000000000000 [-]
	 SCS Same-Spin Energy      =      -0.1863692913555919 [Eh]
	 SCS Opposite-Spin Energy  =      -2.0559272275650260 [Eh]
	 SCS Correlation Energy    =      -2.2422965189206177 [Eh]
	 SCS Total Energy          =    -515.6196219398852918 [Eh]
	-----------------------------------------------------------

  Dipole Moment: [D]
     X:     1.4870      Y:    -2.3547      Z:    -0.0074     Total:     2.7849

*** Psi4 exiting successfully. Buy a developer a beer!
