                               Psi4 1.4a3.dev225

  ==> Input File <==

--------------------------------------------------------------------------
#psi4
#
memory 32 gb

molecule  {
0 1
  O       -2.2261580     0.9189870    -0.1609950
  N        0.4211910     1.5299470     0.0903790
  C        0.0817250     0.2107030     0.0159890
  C        2.4624806    -0.5123447    -0.0440606
  C       -1.3460660    -0.1139160     0.0206840
  C        1.0420520    -0.8182650    -0.0594370
  C        2.7641530     0.8636850     0.0360660
  C       -2.0477590    -1.2949740     0.1722820
  C        3.4684270    -1.5756500    -0.0824610
  C        1.7493340     1.8260270     0.0926910
  C       -3.4286880    -0.9658200     0.0768380
  C       -3.4828100     0.3886030    -0.1245500
  H        0.7225460    -1.8551450    -0.1446860
  H        3.8080070     1.1710760     0.0438400
  H       -1.6259220    -2.2752860     0.3500510
  H        3.8398640    -1.7937090     0.9244500
  H        3.0687740    -2.5034170    -0.5007000
  H        4.3228250    -1.2652800    -0.6906580
  H        1.9977040     2.8869120     0.1452960
  H       -4.2730300    -1.6376780     0.1527080
  H       -4.2894270     1.0948070    -0.2563320
units angstrom
no_reorient  #important for SAPT in psi4, default
symmetry c1  #important for SAPT in psi4, default
}

set PROPERTIES_ORIGIN ["COM"]
properties('MP2/aug-cc-pvtz', properties = ['dipole'])
--------------------------------------------------------------------------

    Molecular point group: c1
  Charge       = 0
  Multiplicity = 1
  Basis Set: AUG-CC-PVTZ
    Blend: AUG-CC-PVTZ
  Basis Set: (AUG-CC-PVTZ AUX)
    Blend: AUG-CC-PVTZ-JKFIT

    Orbital Energies [Eh]
    ---------------------

    Doubly Occupied:

       1A    -20.621192     2A    -15.563728     3A    -11.296706
       4A    -11.293301     5A    -11.292164     6A    -11.279942
       7A    -11.275895     8A    -11.246197     9A    -11.239369
      10A    -11.239240    11A    -11.237652    12A    -11.233087
      13A     -1.453184    14A     -1.242755    15A     -1.106145
      16A     -1.087031    17A     -1.056571    18A     -0.984175
      19A     -0.971501    20A     -0.860473    21A     -0.835604
      22A     -0.799505    23A     -0.764037    24A     -0.727656
      25A     -0.670916    26A     -0.668812    27A     -0.641106
      28A     -0.633058    29A     -0.598896    30A     -0.595437
      31A     -0.577295    32A     -0.566473    33A     -0.562061
      34A     -0.556717    35A     -0.540051    36A     -0.523766
      37A     -0.501880    38A     -0.418746    39A     -0.401824
      40A     -0.375729    41A     -0.357021    42A     -0.287136

  @DF-RHF Final Energy:  -513.37205224097147

   => Energetics <=

    Nuclear Repulsion Energy =            628.3749265336717826
    One-Electron Energy =               -1943.1258928178406222
    Two-Electron Energy =                 801.3789140431974829
    Total Energy =                       -513.3720522409714704
  Basis Set: (AUG-CC-PVTZ AUX)
    Blend: AUG-CC-PVTZ-RI
    Molecular point group: c1

    Geometry (in Angstrom), charge = 0, multiplicity = 1:

       Center              X                  Y                   Z               Mass
    ------------   -----------------  -----------------  -----------------  -----------------
         O           -2.182626615994     0.881307625071    -0.160763250059    15.994914619570
         N            0.464722384006     1.492267625071     0.090610749941    14.003074004430
         C            0.125256384006     0.173023625071     0.016220749941    12.000000000000
         C            2.506011984006    -0.550024074929    -0.043828850059    12.000000000000
         C           -1.302534615994    -0.151595374929     0.020915749941    12.000000000000
         C            1.085583384006    -0.855944374929    -0.059205250059    12.000000000000
         C            2.807684384006     0.826005625071     0.036297749941    12.000000000000
         C           -2.004227615994    -1.332653374929     0.172513749941    12.000000000000
         C            3.511958384006    -1.613329374929    -0.082229250059    12.000000000000
         C            1.792865384006     1.788347625071     0.092922749941    12.000000000000
         C           -3.385156615994    -1.003499374929     0.077069749941    12.000000000000
         C           -3.439278615994     0.350923625071    -0.124318250059    12.000000000000
         H            0.766077384006    -1.892824374929    -0.144454250059     1.007825032230
         H            3.851538384006     1.133396625071     0.044071749941     1.007825032230
         H           -1.582390615994    -2.312965374929     0.350282749941     1.007825032230
         H            3.883395384006    -1.831388374929     0.924681749941     1.007825032230
         H            3.112305384006    -2.541096374929    -0.500468250059     1.007825032230
         H            4.366356384006    -1.302959374929    -0.690426250059     1.007825032230
         H            2.041235384006     2.849232625071     0.145527749941     1.007825032230
         H           -4.229498615994    -1.675357374929     0.152939749941     1.007825032230
         H           -4.245895615994     1.057127625071    -0.256100250059     1.007825032230

  Basis Set: AUG-CC-PVTZ
    Blend: AUG-CC-PVTZ
  Basis Set: (AUG-CC-PVTZ AUX)
    Blend: AUG-CC-PVTZ-JKFIT
	 Reference Energy          =    -513.3720522409714704 [Eh]
	 Singles Energy            =      -0.0000000000000000 [Eh]
	 Same-Spin Energy          =      -0.5596210372310936 [Eh]
	 Opposite-Spin Energy      =      -1.7145319643537551 [Eh]
	 Correlation Energy        =      -2.2741530015848488 [Eh]
	 Total Energy              =    -515.6462052425563343 [Eh]

	 ================> DF-SCS-MP2 Energies <==================
	-----------------------------------------------------------
	 SCS Same-Spin Scale       =       0.3333333333333333 [-]
	 SCS Opposite-Spin Scale   =       1.2000000000000000 [-]
	 SCS Same-Spin Energy      =      -0.1865403457436978 [Eh]
	 SCS Opposite-Spin Energy  =      -2.0574383572245059 [Eh]
	 SCS Correlation Energy    =      -2.2439787029682039 [Eh]
	 SCS Total Energy          =    -515.6160309439396769 [Eh]
	-----------------------------------------------------------

  Dipole Moment: [D]
     X:     1.5836      Y:    -2.4266      Z:    -0.0029     Total:     2.8976

*** Psi4 exiting successfully. Buy a developer a beer!
