                               Psi4 1.4a3.dev225

  ==> Input File <==

--------------------------------------------------------------------------
#psi4
#
memory 32 gb

molecule  {
0 1
  O       -2.2261580     0.9189870    -0.1609950
  N        0.4211910     1.5299470     0.0903790
  C        0.0817250     0.2107030     0.0159890
  C        2.3907603    -0.4947437    -0.0422520
  C       -1.3460660    -0.1139160     0.0206840
  C        1.0420520    -0.8182650    -0.0594370
  C        2.7641530     0.8636850     0.0360660
  C       -2.0477590    -1.2949740     0.1722820
  C        3.4684270    -1.5756500    -0.0824610
  C        1.7493340     1.8260270     0.0926910
  C       -3.4286880    -0.9658200     0.0768380
  C       -3.4828100     0.3886030    -0.1245500
  H        0.7225460    -1.8551450    -0.1446860
  H        3.8080070     1.1710760     0.0438400
  H       -1.6259220    -2.2752860     0.3500510
  H        3.8398640    -1.7937090     0.9244500
  H        3.0687740    -2.5034170    -0.5007000
  H        4.3228250    -1.2652800    -0.6906580
  H        1.9977040     2.8869120     0.1452960
  H       -4.2730300    -1.6376780     0.1527080
  H       -4.2894270     1.0948070    -0.2563320
units angstrom
no_reorient  #important for SAPT in psi4, default
symmetry c1  #important for SAPT in psi4, default
}

set PROPERTIES_ORIGIN ["COM"]
properties('MP2/aug-cc-pvtz', properties = ['dipole'])
--------------------------------------------------------------------------

    Molecular point group: c1
  Charge       = 0
  Multiplicity = 1
  Basis Set: AUG-CC-PVTZ
    Blend: AUG-CC-PVTZ
  Basis Set: (AUG-CC-PVTZ AUX)
    Blend: AUG-CC-PVTZ-JKFIT

    Orbital Energies [Eh]
    ---------------------

    Doubly Occupied:

       1A    -20.622256     2A    -15.563700     3A    -11.297583
       4A    -11.295019     5A    -11.293819     6A    -11.278165
       7A    -11.269833     8A    -11.240550     9A    -11.239629
      10A    -11.239518    11A    -11.238168    12A    -11.234302
      13A     -1.454319    14A     -1.244987    15A     -1.104075
      16A     -1.088226    17A     -1.058420    18A     -0.985021
      19A     -0.965694    20A     -0.864688    21A     -0.836268
      22A     -0.800703    23A     -0.765294    24A     -0.727816
      25A     -0.674512    26A     -0.668563    27A     -0.639199
      28A     -0.633942    29A     -0.600171    30A     -0.588415
      31A     -0.579809    32A     -0.566589    33A     -0.557960
      34A     -0.545051    35A     -0.537821    36A     -0.526243
      37A     -0.512814    38A     -0.416968    39A     -0.402819
      40A     -0.376287    41A     -0.365228    42A     -0.288323

  @DF-RHF Final Energy:  -513.37759056888842

   => Energetics <=

    Nuclear Repulsion Energy =            629.2259950819121741
    One-Electron Energy =               -1944.8296371585386169
    Two-Electron Energy =                 802.2260515077379068
    Total Energy =                       -513.3775905688884222
  Basis Set: (AUG-CC-PVTZ AUX)
    Blend: AUG-CC-PVTZ-RI
    Molecular point group: c1

    Geometry (in Angstrom), charge = 0, multiplicity = 1:

       Center              X                  Y                   Z               Mass
    ------------   -----------------  -----------------  -----------------  -----------------
         O           -2.177216091184     0.879979819036    -0.160899689466    15.994914619570
         N            0.470132908816     1.490939819036     0.090474310534    14.003074004430
         C            0.130666908816     0.171695819036     0.016084310534    12.000000000000
         C            2.439702208816    -0.533750880964    -0.042156689466    12.000000000000
         C           -1.297124091184    -0.152923180964     0.020779310534    12.000000000000
         C            1.090993908816    -0.857272180964    -0.059341689466    12.000000000000
         C            2.813094908816     0.824677819036     0.036161310534    12.000000000000
         C           -1.998817091184    -1.333981180964     0.172377310534    12.000000000000
         C            3.517368908816    -1.614657180964    -0.082365689466    12.000000000000
         C            1.798275908816     1.787019819036     0.092786310534    12.000000000000
         C           -3.379746091184    -1.004827180964     0.076933310534    12.000000000000
         C           -3.433868091184     0.349595819036    -0.124454689466    12.000000000000
         H            0.771487908816    -1.894152180964    -0.144590689466     1.007825032230
         H            3.856948908816     1.132068819036     0.043935310534     1.007825032230
         H           -1.576980091184    -2.314293180964     0.350146310534     1.007825032230
         H            3.888805908816    -1.832716180964     0.924545310534     1.007825032230
         H            3.117715908816    -2.542424180964    -0.500604689466     1.007825032230
         H            4.371766908816    -1.304287180964    -0.690562689466     1.007825032230
         H            2.046645908816     2.847904819036     0.145391310534     1.007825032230
         H           -4.224088091184    -1.676685180964     0.152803310534     1.007825032230
         H           -4.240485091184     1.055799819036    -0.256236689466     1.007825032230

  Basis Set: AUG-CC-PVTZ
    Blend: AUG-CC-PVTZ
  Basis Set: (AUG-CC-PVTZ AUX)
    Blend: AUG-CC-PVTZ-JKFIT
	 Reference Energy          =    -513.3775905688884222 [Eh]
	 Singles Energy            =      -0.0000000000000000 [Eh]
	 Same-Spin Energy          =      -0.5588505991465060 [Eh]
	 Opposite-Spin Energy      =      -1.7132940438809743 [Eh]
	 Correlation Energy        =      -2.2721446430274801 [Eh]
	 Total Energy              =    -515.6497352119158677 [Eh]

	 ================> DF-SCS-MP2 Energies <==================
	-----------------------------------------------------------
	 SCS Same-Spin Scale       =       0.3333333333333333 [-]
	 SCS Opposite-Spin Scale   =       1.2000000000000000 [-]
	 SCS Same-Spin Energy      =      -0.1862835330488353 [Eh]
	 SCS Opposite-Spin Energy  =      -2.0559528526571689 [Eh]
	 SCS Correlation Energy    =      -2.2422363857060041 [Eh]
	 SCS Total Energy          =    -515.6198269545943731 [Eh]
	-----------------------------------------------------------

  Dipole Moment: [D]
     X:     1.4337      Y:    -2.3457      Z:    -0.0054     Total:     2.7491

*** Psi4 exiting successfully. Buy a developer a beer!
