                               Psi4 1.4a3.dev225

  ==> Input File <==

--------------------------------------------------------------------------
#psi4
#
memory 32 gb

molecule  {
0 1
  O       -2.2261580     0.9189870    -0.1609950
  N        0.4211910     1.5299470     0.0903790
  C        0.0817250     0.2107030     0.0159890
  C        2.4145630    -0.5010270    -0.0428790
  C       -1.3460660    -0.1139160     0.0206840
  C        1.0420520    -0.8182650    -0.0594370
  C        2.7641530     0.8636850     0.0360660
  C       -2.0477590    -1.2949740     0.1722820
  C        3.4684270    -1.5756500    -0.0824610
  C        1.7493340     1.8260270     0.0926910
  C       -3.4286880    -0.9658200     0.0768380
  C       -3.4820201     0.3688359    -0.1216108
  H        0.7225460    -1.8551450    -0.1446860
  H        3.8080070     1.1710760     0.0438400
  H       -1.6259220    -2.2752860     0.3500510
  H        3.8398640    -1.7937090     0.9244500
  H        3.0687740    -2.5034170    -0.5007000
  H        4.3228250    -1.2652800    -0.6906580
  H        1.9977040     2.8869120     0.1452960
  H       -4.2730300    -1.6376780     0.1527080
  H       -4.2894270     1.0948070    -0.2563320
units angstrom
no_reorient  #important for SAPT in psi4, default
symmetry c1  #important for SAPT in psi4, default
}

set PROPERTIES_ORIGIN ["COM"]
properties('MP2/aug-cc-pvtz', properties = ['dipole'])
--------------------------------------------------------------------------

    Molecular point group: c1
  Charge       = 0
  Multiplicity = 1
  Basis Set: AUG-CC-PVTZ
    Blend: AUG-CC-PVTZ
  Basis Set: (AUG-CC-PVTZ AUX)
    Blend: AUG-CC-PVTZ-JKFIT

    Orbital Energies [Eh]
    ---------------------

    Doubly Occupied:

       1A    -20.620210     2A    -15.563868     3A    -11.297362
       4A    -11.294321     5A    -11.291688     6A    -11.278755
       7A    -11.271868     8A    -11.242613     9A    -11.239521
      10A    -11.238639    11A    -11.238510    12A    -11.231949
      13A     -1.451413    14A     -1.244197    15A     -1.104420
      16A     -1.090005    17A     -1.058794    18A     -0.984162
      19A     -0.967978    20A     -0.863676    21A     -0.835533
      22A     -0.799560    23A     -0.764793    24A     -0.726372
      25A     -0.672998    26A     -0.668269    27A     -0.638035
      28A     -0.632659    29A     -0.597319    30A     -0.590634
      31A     -0.580061    32A     -0.564889    33A     -0.559471
      34A     -0.547171    35A     -0.542136    36A     -0.525313
      37A     -0.509869    38A     -0.417729    39A     -0.403347
      40A     -0.377324    41A     -0.362794    42A     -0.289225

  @DF-RHF Final Energy:  -513.37717163334003

   => Energetics <=

    Nuclear Repulsion Energy =            629.1065309131671484
    One-Electron Energy =               -1944.6085051793845651
    Two-Electron Energy =                 802.1248026328775040
    Total Energy =                       -513.3771716333400263
  Basis Set: (AUG-CC-PVTZ AUX)
    Blend: AUG-CC-PVTZ-RI
    Molecular point group: c1

    Geometry (in Angstrom), charge = 0, multiplicity = 1:

       Center              X                  Y                   Z               Mass
    ------------   -----------------  -----------------  -----------------  -----------------
         O           -2.179071338198     0.881945041372    -0.161074120073    15.994914619570
         N            0.468277661802     1.492905041372     0.090299879927    14.003074004430
         C            0.128811661802     0.173661041372     0.015909879927    12.000000000000
         C            2.461649661802    -0.538068958628    -0.042958120073    12.000000000000
         C           -1.298979338198    -0.150957958628     0.020604879927    12.000000000000
         C            1.089138661802    -0.855306958628    -0.059516120073    12.000000000000
         C            2.811239661802     0.826643041372     0.035986879927    12.000000000000
         C           -2.000672338198    -1.332015958628     0.172202879927    12.000000000000
         C            3.515513661802    -1.612691958628    -0.082540120073    12.000000000000
         C            1.796420661802     1.788985041372     0.092611879927    12.000000000000
         C           -3.381601338198    -1.002861958628     0.076758879927    12.000000000000
         C           -3.434933438198     0.331793941372    -0.121689920073    12.000000000000
         H            0.769632661802    -1.892186958628    -0.144765120073     1.007825032230
         H            3.855093661802     1.134034041372     0.043760879927     1.007825032230
         H           -1.578835338198    -2.312327958628     0.349971879927     1.007825032230
         H            3.886950661802    -1.830750958628     0.924370879927     1.007825032230
         H            3.115860661802    -2.540458958628    -0.500779120073     1.007825032230
         H            4.369911661802    -1.302321958628    -0.690737120073     1.007825032230
         H            2.044790661802     2.849870041372     0.145216879927     1.007825032230
         H           -4.225943338198    -1.674719958628     0.152628879927     1.007825032230
         H           -4.242340338198     1.057765041372    -0.256411120073     1.007825032230

  Basis Set: AUG-CC-PVTZ
    Blend: AUG-CC-PVTZ
  Basis Set: (AUG-CC-PVTZ AUX)
    Blend: AUG-CC-PVTZ-JKFIT
	 Reference Energy          =    -513.3771716333400263 [Eh]
	 Singles Energy            =      -0.0000000000000000 [Eh]
	 Same-Spin Energy          =      -0.5588403189061374 [Eh]
	 Opposite-Spin Energy      =      -1.7133903166051541 [Eh]
	 Correlation Energy        =      -2.2722306355112916 [Eh]
	 Total Energy              =    -515.6494022688513041 [Eh]

	 ================> DF-SCS-MP2 Energies <==================
	-----------------------------------------------------------
	 SCS Same-Spin Scale       =       0.3333333333333333 [-]
	 SCS Opposite-Spin Scale   =       1.2000000000000000 [-]
	 SCS Same-Spin Energy      =      -0.1862801063020458 [Eh]
	 SCS Opposite-Spin Energy  =      -2.0560683799261850 [Eh]
	 SCS Correlation Energy    =      -2.2423484862282308 [Eh]
	 SCS Total Energy          =    -515.6195201195682785 [Eh]
	-----------------------------------------------------------

  Dipole Moment: [D]
     X:     1.4711      Y:    -2.4017      Z:    -0.0007     Total:     2.8164

*** Psi4 exiting successfully. Buy a developer a beer!
