                               Psi4 1.4a3.dev225

  ==> Input File <==

--------------------------------------------------------------------------
#psi4
#
memory 32 gb

molecule  {
0 1
  O       -2.2261580     0.9189870    -0.1609950
  N        0.4211910     1.5299470     0.0903790
  C        0.1048356     0.2050051     0.0153853
  C        2.4145630    -0.5010270    -0.0428790
  C       -1.3460660    -0.1139160     0.0206840
  C        1.0420520    -0.8182650    -0.0594370
  C        2.7641530     0.8636850     0.0360660
  C       -2.0477590    -1.2949740     0.1722820
  C        3.4684270    -1.5756500    -0.0824610
  C        1.7493340     1.8260270     0.0926910
  C       -3.4286880    -0.9658200     0.0768380
  C       -3.4828100     0.3886030    -0.1245500
  H        0.7225460    -1.8551450    -0.1446860
  H        3.8080070     1.1710760     0.0438400
  H       -1.6259220    -2.2752860     0.3500510
  H        3.8398640    -1.7937090     0.9244500
  H        3.0687740    -2.5034170    -0.5007000
  H        4.3228250    -1.2652800    -0.6906580
  H        1.9977040     2.8869120     0.1452960
  H       -4.2730300    -1.6376780     0.1527080
  H       -4.2894270     1.0948070    -0.2563320
units angstrom
no_reorient  #important for SAPT in psi4, default
symmetry c1  #important for SAPT in psi4, default
}

set PROPERTIES_ORIGIN ["COM"]
properties('MP2/aug-cc-pvtz', properties = ['dipole'])
--------------------------------------------------------------------------

    Molecular point group: c1
  Charge       = 0
  Multiplicity = 1
  Basis Set: AUG-CC-PVTZ
    Blend: AUG-CC-PVTZ
  Basis Set: (AUG-CC-PVTZ AUX)
    Blend: AUG-CC-PVTZ-JKFIT

    Orbital Energies [Eh]
    ---------------------

    Doubly Occupied:

       1A    -20.621148     2A    -15.564517     3A    -11.297550
       4A    -11.293880     5A    -11.291726     6A    -11.279536
       7A    -11.273024     8A    -11.241171     9A    -11.240152
      10A    -11.238955    11A    -11.236982    12A    -11.232713
      13A     -1.452707    14A     -1.246120    15A     -1.105693
      16A     -1.086287    17A     -1.056777    18A     -0.984089
      19A     -0.970408    20A     -0.861177    21A     -0.836329
      22A     -0.799240    23A     -0.764147    24A     -0.726972
      25A     -0.674145    26A     -0.670175    27A     -0.638892
      28A     -0.632366    29A     -0.599621    30A     -0.591484
      31A     -0.578000    32A     -0.565065    33A     -0.559421
      34A     -0.548116    35A     -0.539325    36A     -0.527002
      37A     -0.507517    38A     -0.420941    39A     -0.401319
      40A     -0.374873    41A     -0.364054    42A     -0.289166

  @DF-RHF Final Energy:  -513.37738100190302

   => Energetics <=

    Nuclear Repulsion Energy =            628.9528829037078594
    One-Electron Energy =               -1944.2949675450620362
    Two-Electron Energy =                 801.9647036394511588
    Total Energy =                       -513.3773810019030179
  Basis Set: (AUG-CC-PVTZ AUX)
    Blend: AUG-CC-PVTZ-RI
    Molecular point group: c1

    Geometry (in Angstrom), charge = 0, multiplicity = 1:

       Center              X                  Y                   Z               Mass
    ------------   -----------------  -----------------  -----------------  -----------------
         O           -2.180755194807     0.880883671639    -0.160806846395    15.994914619570
         N            0.466593805193     1.491843671639     0.090567153605    14.003074004430
         C            0.150238405193     0.166901771639     0.015573453605    12.000000000000
         C            2.459965805193    -0.539130328361    -0.042690846395    12.000000000000
         C           -1.300663194807    -0.152019328361     0.020872153605    12.000000000000
         C            1.087454805193    -0.856368328361    -0.059248846395    12.000000000000
         C            2.809555805193     0.825581671639     0.036254153605    12.000000000000
         C           -2.002356194807    -1.333077328361     0.172470153605    12.000000000000
         C            3.513829805193    -1.613753328361    -0.082272846395    12.000000000000
         C            1.794736805193     1.787923671639     0.092879153605    12.000000000000
         C           -3.383285194807    -1.003923328361     0.077026153605    12.000000000000
         C           -3.437407194807     0.350499671639    -0.124361846395    12.000000000000
         H            0.767948805193    -1.893248328361    -0.144497846395     1.007825032230
         H            3.853409805193     1.132972671639     0.044028153605     1.007825032230
         H           -1.580519194807    -2.313389328361     0.350239153605     1.007825032230
         H            3.885266805193    -1.831812328361     0.924638153605     1.007825032230
         H            3.114176805193    -2.541520328361    -0.500511846395     1.007825032230
         H            4.368227805193    -1.303383328361    -0.690469846395     1.007825032230
         H            2.043106805193     2.848808671639     0.145484153605     1.007825032230
         H           -4.227627194807    -1.675781328361     0.152896153605     1.007825032230
         H           -4.244024194807     1.056703671639    -0.256143846395     1.007825032230

  Basis Set: AUG-CC-PVTZ
    Blend: AUG-CC-PVTZ
  Basis Set: (AUG-CC-PVTZ AUX)
    Blend: AUG-CC-PVTZ-JKFIT
	 Reference Energy          =    -513.3773810019030179 [Eh]
	 Singles Energy            =      -0.0000000000000000 [Eh]
	 Same-Spin Energy          =      -0.5587772641986186 [Eh]
	 Opposite-Spin Energy      =      -1.7132658535194247 [Eh]
	 Correlation Energy        =      -2.2720431177180433 [Eh]
	 Total Energy              =    -515.6494241196210169 [Eh]

	 ================> DF-SCS-MP2 Energies <==================
	-----------------------------------------------------------
	 SCS Same-Spin Scale       =       0.3333333333333333 [-]
	 SCS Opposite-Spin Scale   =       1.2000000000000000 [-]
	 SCS Same-Spin Energy      =      -0.1862590880662062 [Eh]
	 SCS Opposite-Spin Energy  =      -2.0559190242233094 [Eh]
	 SCS Correlation Energy    =      -2.2421781122895155 [Eh]
	 SCS Total Energy          =    -515.6195591141924979 [Eh]
	-----------------------------------------------------------

  Dipole Moment: [D]
     X:     1.6000      Y:    -2.3513      Z:    -0.0062     Total:     2.8441

*** Psi4 exiting successfully. Buy a developer a beer!
