                               Psi4 1.4a3.dev225

  ==> Input File <==

--------------------------------------------------------------------------
#psi4
#
memory 32 gb

molecule  {
0 1
  O       -2.2261580     0.9189870    -0.1609950
  N        0.4211910     1.5299470     0.0903790
  C        0.0817250     0.2107030     0.0159890
  C        2.4145630    -0.5010270    -0.0428790
  C       -1.3460660    -0.1139160     0.0206840
  C        1.0420520    -0.8182650    -0.0594370
  C        2.7641530     0.8636850     0.0360660
  C       -2.0477590    -1.2949740     0.1722820
  C        3.4684270    -1.5756500    -0.0824610
  C        1.7493340     1.8260270     0.0926910
  C       -3.4286880    -0.9658200     0.0768380
  C       -3.4828100     0.3886030    -0.1245500
  H        0.7225460    -1.8551450    -0.1446860
  H        3.8080070     1.1710760     0.0438400
  H       -1.6259220    -2.2752860     0.3500510
  H        3.8398640    -1.7937090     0.9244500
  H        3.0687740    -2.5034170    -0.5007000
  H        4.3228250    -1.2652800    -0.6906580
  H        1.9931503     2.8674612     0.1443315
  H       -4.2730300    -1.6376780     0.1527080
  H       -4.2894270     1.0948070    -0.2563320
units angstrom
no_reorient  #important for SAPT in psi4, default
symmetry c1  #important for SAPT in psi4, default
}

set PROPERTIES_ORIGIN ["COM"]
properties('MP2/aug-cc-pvtz', properties = ['dipole'])
--------------------------------------------------------------------------

    Molecular point group: c1
  Charge       = 0
  Multiplicity = 1
  Basis Set: AUG-CC-PVTZ
    Blend: AUG-CC-PVTZ
  Basis Set: (AUG-CC-PVTZ AUX)
    Blend: AUG-CC-PVTZ-JKFIT

    Orbital Energies [Eh]
    ---------------------

    Doubly Occupied:

       1A    -20.621857     2A    -15.563555     3A    -11.297232
       4A    -11.294305     5A    -11.293220     6A    -11.276436
       7A    -11.271746     8A    -11.242480     9A    -11.239426
      10A    -11.238910    11A    -11.238320    12A    -11.233857
      13A     -1.453895    14A     -1.244152    15A     -1.104197
      16A     -1.087825    17A     -1.058075    18A     -0.984539
      19A     -0.968032    20A     -0.863440    21A     -0.837360
      22A     -0.800664    23A     -0.764843    24A     -0.728056
      25A     -0.673222    26A     -0.668600    27A     -0.641697
      28A     -0.633700    29A     -0.600755    30A     -0.590557
      31A     -0.578824    32A     -0.566209    33A     -0.558943
      34A     -0.547643    35A     -0.540625    36A     -0.525271
      37A     -0.510498    38A     -0.417813    39A     -0.402441
      40A     -0.375886    41A     -0.362447    42A     -0.287883

  @DF-RHF Final Energy:  -513.37743787224838

   => Energetics <=

    Nuclear Repulsion Energy =            629.0401154731284805
    One-Electron Energy =               -1944.4562339675539988
    Two-Electron Energy =                 802.0386806221771394
    Total Energy =                       -513.3774378722483789
  Basis Set: (AUG-CC-PVTZ AUX)
    Blend: AUG-CC-PVTZ-RI
    Molecular point group: c1

    Geometry (in Angstrom), charge = 0, multiplicity = 1:

       Center              X                  Y                   Z               Mass
    ------------   -----------------  -----------------  -----------------  -----------------
         O           -2.178982897429     0.880577062705    -0.160846278188    15.994914619570
         N            0.468366102571     1.491537062705     0.090527721812    14.003074004430
         C            0.128900102571     0.172293062705     0.016137721812    12.000000000000
         C            2.461738102571    -0.539436937295    -0.042730278188    12.000000000000
         C           -1.298890897429    -0.152325937295     0.020832721812    12.000000000000
         C            1.089227102571    -0.856674937295    -0.059288278188    12.000000000000
         C            2.811328102571     0.825275062705     0.036214721812    12.000000000000
         C           -2.000583897429    -1.333383937295     0.172430721812    12.000000000000
         C            3.515602102571    -1.614059937295    -0.082312278188    12.000000000000
         C            1.796509102571     1.787617062705     0.092839721812    12.000000000000
         C           -3.381512897429    -1.004229937295     0.076986721812    12.000000000000
         C           -3.435634897429     0.350193062705    -0.124401278188    12.000000000000
         H            0.769721102571    -1.893554937295    -0.144537278188     1.007825032230
         H            3.855182102571     1.132666062705     0.043988721812     1.007825032230
         H           -1.578746897429    -2.313695937295     0.350199721812     1.007825032230
         H            3.887039102571    -1.832118937295     0.924598721812     1.007825032230
         H            3.115949102571    -2.541826937295    -0.500551278188     1.007825032230
         H            4.370000102571    -1.303689937295    -0.690509278188     1.007825032230
         H            2.040325402571     2.829051262705     0.144480221812     1.007825032230
         H           -4.225854897429    -1.676087937295     0.152856721812     1.007825032230
         H           -4.242251897429     1.056397062705    -0.256183278188     1.007825032230

  Basis Set: AUG-CC-PVTZ
    Blend: AUG-CC-PVTZ
  Basis Set: (AUG-CC-PVTZ AUX)
    Blend: AUG-CC-PVTZ-JKFIT
	 Reference Energy          =    -513.3774378722483789 [Eh]
	 Singles Energy            =      -0.0000000000000000 [Eh]
	 Same-Spin Energy          =      -0.5590242665853156 [Eh]
	 Opposite-Spin Energy      =      -1.7134636589830083 [Eh]
	 Correlation Energy        =      -2.2724879255683241 [Eh]
	 Total Energy              =    -515.6499257978166497 [Eh]

	 ================> DF-SCS-MP2 Energies <==================
	-----------------------------------------------------------
	 SCS Same-Spin Scale       =       0.3333333333333333 [-]
	 SCS Opposite-Spin Scale   =       1.2000000000000000 [-]
	 SCS Same-Spin Energy      =      -0.1863414221951052 [Eh]
	 SCS Opposite-Spin Energy  =      -2.0561563907796101 [Eh]
	 SCS Correlation Energy    =      -2.2424978129747153 [Eh]
	 SCS Total Energy          =    -515.6199356852231404 [Eh]
	-----------------------------------------------------------

  Dipole Moment: [D]
     X:     1.4891      Y:    -2.3649      Z:    -0.0043     Total:     2.7947

*** Psi4 exiting successfully. Buy a developer a beer!
