                               Psi4 1.4a3.dev225

  ==> Input File <==

--------------------------------------------------------------------------
#psi4
#
memory 32 gb

molecule  {
0 1
  O       -2.2261580     0.9189870    -0.1609950
  N        0.4211910     1.5299470     0.0903790
  C        0.0817250     0.2107030     0.0159890
  C        2.4450424    -0.4712870    -0.0736774
  C       -1.3460660    -0.1139160     0.0206840
  C        1.0420520    -0.8182650    -0.0594370
  C        2.7641530     0.8636850     0.0360660
  C       -2.0477590    -1.2949740     0.1722820
  C        3.4684270    -1.5756500    -0.0824610
  C        1.7493340     1.8260270     0.0926910
  C       -3.4286880    -0.9658200     0.0768380
  C       -3.4828100     0.3886030    -0.1245500
  H        0.7225460    -1.8551450    -0.1446860
  H        3.8080070     1.1710760     0.0438400
  H       -1.6259220    -2.2752860     0.3500510
  H        3.8398640    -1.7937090     0.9244500
  H        3.0687740    -2.5034170    -0.5007000
  H        4.3228250    -1.2652800    -0.6906580
  H        1.9977040     2.8869120     0.1452960
  H       -4.2730300    -1.6376780     0.1527080
  H       -4.2894270     1.0948070    -0.2563320
units angstrom
no_reorient  #important for SAPT in psi4, default
symmetry c1  #important for SAPT in psi4, default
}

set PROPERTIES_ORIGIN ["COM"]
properties('MP2/aug-cc-pvtz', properties = ['dipole'])
--------------------------------------------------------------------------

    Molecular point group: c1
  Charge       = 0
  Multiplicity = 1
  Basis Set: AUG-CC-PVTZ
    Blend: AUG-CC-PVTZ
  Basis Set: (AUG-CC-PVTZ AUX)
    Blend: AUG-CC-PVTZ-JKFIT

    Orbital Energies [Eh]
    ---------------------

    Doubly Occupied:

       1A    -20.621273     2A    -15.564462     3A    -11.296576
       4A    -11.292945     5A    -11.292164     6A    -11.281082
       7A    -11.272183     8A    -11.245393     9A    -11.239750
      10A    -11.237697    11A    -11.236294    12A    -11.233177
      13A     -1.453260    14A     -1.244546    15A     -1.105152
      16A     -1.087229    17A     -1.057322    18A     -0.984687
      19A     -0.967214    20A     -0.862795    21A     -0.837317
      22A     -0.800101    23A     -0.763850    24A     -0.726711
      25A     -0.673832    26A     -0.669118    27A     -0.640022
      28A     -0.633083    29A     -0.599322    30A     -0.590834
      31A     -0.578307    32A     -0.565911    33A     -0.559698
      34A     -0.547060    35A     -0.540654    36A     -0.525388
      37A     -0.507918    38A     -0.418367    39A     -0.402285
      40A     -0.379150    41A     -0.359294    42A     -0.287532

  @DF-RHF Final Energy:  -513.37435781451438

   => Energetics <=

    Nuclear Repulsion Energy =            628.7805206732112993
    One-Electron Energy =               -1943.9478421211772456
    Two-Electron Energy =                 801.7929636334516772
    Total Energy =                       -513.3743578145143829
  Basis Set: (AUG-CC-PVTZ AUX)
    Blend: AUG-CC-PVTZ-RI
    Molecular point group: c1

    Geometry (in Angstrom), charge = 0, multiplicity = 1:

       Center              X                  Y                   Z               Mass
    ------------   -----------------  -----------------  -----------------  -----------------
         O           -2.181311091467     0.878210263452    -0.158528981223    15.994914619570
         N            0.466037908533     1.489170263452     0.092845018777    14.003074004430
         C            0.126571908533     0.169926263452     0.018455018777    12.000000000000
         C            2.489889308533    -0.512063736548    -0.071211381223    12.000000000000
         C           -1.301219091467    -0.154692736548     0.023150018777    12.000000000000
         C            1.086898908533    -0.859041736548    -0.056970981223    12.000000000000
         C            2.808999908533     0.822908263452     0.038532018777    12.000000000000
         C           -2.002912091467    -1.335750736548     0.174748018777    12.000000000000
         C            3.513273908533    -1.616426736548    -0.079994981223    12.000000000000
         C            1.794180908533     1.785250263452     0.095157018777    12.000000000000
         C           -3.383841091467    -1.006596736548     0.079304018777    12.000000000000
         C           -3.437963091467     0.347826263452    -0.122083981223    12.000000000000
         H            0.767392908533    -1.895921736548    -0.142219981223     1.007825032230
         H            3.852853908533     1.130299263452     0.046306018777     1.007825032230
         H           -1.581075091467    -2.316062736548     0.352517018777     1.007825032230
         H            3.884710908533    -1.834485736548     0.926916018777     1.007825032230
         H            3.113620908533    -2.544193736548    -0.498233981223     1.007825032230
         H            4.367671908533    -1.306056736548    -0.688191981223     1.007825032230
         H            2.042550908533     2.846135263452     0.147762018777     1.007825032230
         H           -4.228183091467    -1.678454736548     0.155174018777     1.007825032230
         H           -4.244580091467     1.054030263452    -0.253865981223     1.007825032230

  Basis Set: AUG-CC-PVTZ
    Blend: AUG-CC-PVTZ
  Basis Set: (AUG-CC-PVTZ AUX)
    Blend: AUG-CC-PVTZ-JKFIT
	 Reference Energy          =    -513.3743578145143829 [Eh]
	 Singles Energy            =      -0.0000000000000000 [Eh]
	 Same-Spin Energy          =      -0.5591319957856755 [Eh]
	 Opposite-Spin Energy      =      -1.7138641745094043 [Eh]
	 Correlation Energy        =      -2.2729961702950798 [Eh]
	 Total Energy              =    -515.6473539848094561 [Eh]

	 ================> DF-SCS-MP2 Energies <==================
	-----------------------------------------------------------
	 SCS Same-Spin Scale       =       0.3333333333333333 [-]
	 SCS Opposite-Spin Scale   =       1.2000000000000000 [-]
	 SCS Same-Spin Energy      =      -0.1863773319285585 [Eh]
	 SCS Opposite-Spin Energy  =      -2.0566370094112849 [Eh]
	 SCS Correlation Energy    =      -2.2430143413398436 [Eh]
	 SCS Total Energy          =    -515.6173721558542411 [Eh]
	-----------------------------------------------------------

  Dipole Moment: [D]
     X:     1.5139      Y:    -2.3562      Z:     0.0103     Total:     2.8006

*** Psi4 exiting successfully. Buy a developer a beer!
