                               Psi4 1.4a3.dev225

  ==> Input File <==

--------------------------------------------------------------------------
#psi4
#
memory 32 gb

molecule  {
0 1
  O       -2.2261580     0.9189870    -0.1609950
  N        0.4211910     1.5299470     0.0903790
  C        0.0817250     0.2107030     0.0159890
  C        2.4145630    -0.5010270    -0.0428790
  C       -1.3460660    -0.1139160     0.0206840
  C        1.0420520    -0.8182650    -0.0594370
  C        2.7591977     0.8443409     0.0349470
  C       -2.0477590    -1.2949740     0.1722820
  C        3.4684270    -1.5756500    -0.0824610
  C        1.7493340     1.8260270     0.0926910
  C       -3.4286880    -0.9658200     0.0768380
  C       -3.4828100     0.3886030    -0.1245500
  H        0.7225460    -1.8551450    -0.1446860
  H        3.8080070     1.1710760     0.0438400
  H       -1.6259220    -2.2752860     0.3500510
  H        3.8398640    -1.7937090     0.9244500
  H        3.0687740    -2.5034170    -0.5007000
  H        4.3228250    -1.2652800    -0.6906580
  H        1.9977040     2.8869120     0.1452960
  H       -4.2730300    -1.6376780     0.1527080
  H       -4.2894270     1.0948070    -0.2563320
units angstrom
no_reorient  #important for SAPT in psi4, default
symmetry c1  #important for SAPT in psi4, default
}

set PROPERTIES_ORIGIN ["COM"]
properties('MP2/aug-cc-pvtz', properties = ['dipole'])
--------------------------------------------------------------------------

    Molecular point group: c1
  Charge       = 0
  Multiplicity = 1
  Basis Set: AUG-CC-PVTZ
    Blend: AUG-CC-PVTZ
  Basis Set: (AUG-CC-PVTZ AUX)
    Blend: AUG-CC-PVTZ-JKFIT

    Orbital Energies [Eh]
    ---------------------

    Doubly Occupied:

       1A    -20.621681     2A    -15.564383     3A    -11.297097
       4A    -11.293907     5A    -11.292852     6A    -11.280650
       7A    -11.269314     8A    -11.242621     9A    -11.239123
      10A    -11.238665    11A    -11.238466    12A    -11.233637
      13A     -1.453713    14A     -1.244741    15A     -1.106819
      16A     -1.087568    17A     -1.057198    18A     -0.983300
      19A     -0.967928    20A     -0.863540    21A     -0.836967
      22A     -0.800379    23A     -0.764579    24A     -0.727718
      25A     -0.672318    26A     -0.668732    27A     -0.639698
      28A     -0.633447    29A     -0.599301    30A     -0.590815
      31A     -0.577895    32A     -0.565981    33A     -0.557652
      34A     -0.547861    35A     -0.540950    36A     -0.525564
      37A     -0.511681    38A     -0.417267    39A     -0.402256
      40A     -0.377080    41A     -0.362941    42A     -0.287318

  @DF-RHF Final Energy:  -513.37695518573059

   => Energetics <=

    Nuclear Repulsion Energy =            629.1750765670327610
    One-Electron Energy =               -1944.7328611254281441
    Two-Electron Energy =                 802.1808293726646752
    Total Energy =                       -513.3769551857305942
  Basis Set: (AUG-CC-PVTZ AUX)
    Blend: AUG-CC-PVTZ-RI
    Molecular point group: c1

    Geometry (in Angstrom), charge = 0, multiplicity = 1:

       Center              X                  Y                   Z               Mass
    ------------   -----------------  -----------------  -----------------  -----------------
         O           -2.178637924686     0.881913130574    -0.160767972555    15.994914619570
         N            0.468711075314     1.492873130574     0.090606027445    14.003074004430
         C            0.129245075314     0.173629130574     0.016216027445    12.000000000000
         C            2.462083075314    -0.538100869426    -0.042651972555    12.000000000000
         C           -1.298545924686    -0.150989869426     0.020911027445    12.000000000000
         C            1.089572075314    -0.855338869426    -0.059209972555    12.000000000000
         C            2.806717775314     0.807267030574     0.035174027445    12.000000000000
         C           -2.000238924686    -1.332047869426     0.172509027445    12.000000000000
         C            3.515947075314    -1.612723869426    -0.082233972555    12.000000000000
         C            1.796854075314     1.788953130574     0.092918027445    12.000000000000
         C           -3.381167924686    -1.002893869426     0.077065027445    12.000000000000
         C           -3.435289924686     0.351529130574    -0.124322972555    12.000000000000
         H            0.770066075314    -1.892218869426    -0.144458972555     1.007825032230
         H            3.855527075314     1.134002130574     0.044067027445     1.007825032230
         H           -1.578401924686    -2.312359869426     0.350278027445     1.007825032230
         H            3.887384075314    -1.830782869426     0.924677027445     1.007825032230
         H            3.116294075314    -2.540490869426    -0.500472972555     1.007825032230
         H            4.370345075314    -1.302353869426    -0.690430972555     1.007825032230
         H            2.045224075314     2.849838130574     0.145523027445     1.007825032230
         H           -4.225509924686    -1.674751869426     0.152935027445     1.007825032230
         H           -4.241906924686     1.057733130574    -0.256104972555     1.007825032230

  Basis Set: AUG-CC-PVTZ
    Blend: AUG-CC-PVTZ
  Basis Set: (AUG-CC-PVTZ AUX)
    Blend: AUG-CC-PVTZ-JKFIT
	 Reference Energy          =    -513.3769551857305942 [Eh]
	 Singles Energy            =      -0.0000000000000000 [Eh]
	 Same-Spin Energy          =      -0.5591539503891318 [Eh]
	 Opposite-Spin Energy      =      -1.7136878888701794 [Eh]
	 Correlation Energy        =      -2.2728418392593115 [Eh]
	 Total Energy              =    -515.6497970249898799 [Eh]

	 ================> DF-SCS-MP2 Energies <==================
	-----------------------------------------------------------
	 SCS Same-Spin Scale       =       0.3333333333333333 [-]
	 SCS Opposite-Spin Scale   =       1.2000000000000000 [-]
	 SCS Same-Spin Energy      =      -0.1863846501297106 [Eh]
	 SCS Opposite-Spin Energy  =      -2.0564254666442152 [Eh]
	 SCS Correlation Energy    =      -2.2428101167739256 [Eh]
	 SCS Total Energy          =    -515.6197653025045611 [Eh]
	-----------------------------------------------------------

  Dipole Moment: [D]
     X:     1.4877      Y:    -2.3496      Z:    -0.0041     Total:     2.7810

*** Psi4 exiting successfully. Buy a developer a beer!
