                               Psi4 1.4a3.dev225

  ==> Input File <==

--------------------------------------------------------------------------
#psi4
#
memory 32 gb

molecule  {
0 1
  O       -2.2261580     0.9189870    -0.1609950
  N        0.4211910     1.5299470     0.0903790
  C        0.0817250     0.2107030     0.0159890
  C        2.4145630    -0.5010270    -0.0428790
  C       -1.3460660    -0.1139160     0.0206840
  C        1.0420520    -0.8182650    -0.0594370
  C        2.7146005     0.6702442     0.0248760
  C       -2.0477590    -1.2949740     0.1722820
  C        3.4684270    -1.5756500    -0.0824610
  C        1.7493340     1.8260270     0.0926910
  C       -3.4286880    -0.9658200     0.0768380
  C       -3.4828100     0.3886030    -0.1245500
  H        0.7225460    -1.8551450    -0.1446860
  H        3.8080070     1.1710760     0.0438400
  H       -1.6259220    -2.2752860     0.3500510
  H        3.8398640    -1.7937090     0.9244500
  H        3.0687740    -2.5034170    -0.5007000
  H        4.3228250    -1.2652800    -0.6906580
  H        1.9977040     2.8869120     0.1452960
  H       -4.2730300    -1.6376780     0.1527080
  H       -4.2894270     1.0948070    -0.2563320
units angstrom
no_reorient  #important for SAPT in psi4, default
symmetry c1  #important for SAPT in psi4, default
}

set PROPERTIES_ORIGIN ["COM"]
properties('MP2/aug-cc-pvtz', properties = ['dipole'])
--------------------------------------------------------------------------

    Molecular point group: c1
  Charge       = 0
  Multiplicity = 1
  Basis Set: AUG-CC-PVTZ
    Blend: AUG-CC-PVTZ
  Basis Set: (AUG-CC-PVTZ AUX)
    Blend: AUG-CC-PVTZ-JKFIT

    Orbital Energies [Eh]
    ---------------------

    Doubly Occupied:

       1A    -20.620042     2A    -15.570267     3A    -11.296998
       4A    -11.295674     5A    -11.289650     6A    -11.289591
       7A    -11.243943     8A    -11.240954     9A    -11.236847
      10A    -11.235856    11A    -11.234495    12A    -11.231623
      13A     -1.452014    14A     -1.250502    15A     -1.138190
      16A     -1.085053    17A     -1.052485    18A     -0.976123
      19A     -0.966524    20A     -0.876151    21A     -0.833718
      22A     -0.800224    23A     -0.761303    24A     -0.727672
      25A     -0.675549    26A     -0.663926    27A     -0.639916
      28A     -0.631984    29A     -0.597205    30A     -0.594676
      31A     -0.574388    32A     -0.564705    33A     -0.557495
      34A     -0.543896    35A     -0.537212    36A     -0.527834
      37A     -0.508090    38A     -0.408694    39A     -0.405893
      40A     -0.395685    41A     -0.361068    42A     -0.282515

  @DF-RHF Final Energy:  -513.31972928807306

   => Energetics <=

    Nuclear Repulsion Energy =            631.6609725441059027
    One-Electron Energy =               -1949.6081468821635099
    Two-Electron Energy =                 804.6274450499846580
    Total Energy =                       -513.3197292880730629
  Basis Set: (AUG-CC-PVTZ AUX)
    Blend: AUG-CC-PVTZ-RI
    Molecular point group: c1

    Geometry (in Angstrom), charge = 0, multiplicity = 1:

       Center              X                  Y                   Z               Mass
    ------------   -----------------  -----------------  -----------------  -----------------
         O           -2.175273545883     0.895046853031    -0.160008223985    15.994914619570
         N            0.472075454117     1.506006853031     0.091365776015    14.003074004430
         C            0.132609454117     0.186762853031     0.016975776015    12.000000000000
         C            2.465447454117    -0.524967146969    -0.041892223985    12.000000000000
         C           -1.295181545883    -0.137856146969     0.021670776015    12.000000000000
         C            1.092936454117    -0.842205146969    -0.058450223985    12.000000000000
         C            2.765484954117     0.646304053031     0.025862776015    12.000000000000
         C           -1.996874545883    -1.318914146969     0.173268776015    12.000000000000
         C            3.519311454117    -1.599590146969    -0.081474223985    12.000000000000
         C            1.800218454117     1.802086853031     0.093677776015    12.000000000000
         C           -3.377803545883    -0.989760146969     0.077824776015    12.000000000000
         C           -3.431925545883     0.364662853031    -0.123563223985    12.000000000000
         H            0.773430454117    -1.879085146969    -0.143699223985     1.007825032230
         H            3.858891454117     1.147135853031     0.044826776015     1.007825032230
         H           -1.575037545883    -2.299226146969     0.351037776015     1.007825032230
         H            3.890748454117    -1.817649146969     0.925436776015     1.007825032230
         H            3.119658454117    -2.527357146969    -0.499713223985     1.007825032230
         H            4.373709454117    -1.289220146969    -0.689671223985     1.007825032230
         H            2.048588454117     2.862971853031     0.146282776015     1.007825032230
         H           -4.222145545883    -1.661618146969     0.153694776015     1.007825032230
         H           -4.238542545883     1.070866853031    -0.255345223985     1.007825032230

  Basis Set: AUG-CC-PVTZ
    Blend: AUG-CC-PVTZ
  Basis Set: (AUG-CC-PVTZ AUX)
    Blend: AUG-CC-PVTZ-JKFIT
	 Reference Energy          =    -513.3197292880730629 [Eh]
	 Singles Energy            =      -0.0000000000000000 [Eh]
	 Same-Spin Energy          =      -0.5591934165918323 [Eh]
	 Opposite-Spin Energy      =      -1.7157322746728529 [Eh]
	 Correlation Energy        =      -2.2749256912646851 [Eh]
	 Total Energy              =    -515.5946549793377471 [Eh]

	 ================> DF-SCS-MP2 Energies <==================
	-----------------------------------------------------------
	 SCS Same-Spin Scale       =       0.3333333333333333 [-]
	 SCS Opposite-Spin Scale   =       1.2000000000000000 [-]
	 SCS Same-Spin Energy      =      -0.1863978055306107 [Eh]
	 SCS Opposite-Spin Energy  =      -2.0588787296074234 [Eh]
	 SCS Correlation Energy    =      -2.2452765351380339 [Eh]
	 SCS Total Energy          =    -515.5650058232110950 [Eh]
	-----------------------------------------------------------

  Dipole Moment: [D]
     X:     1.4418      Y:    -2.1291      Z:     0.0027     Total:     2.5714

*** Psi4 exiting successfully. Buy a developer a beer!
