                               Psi4 1.4a3.dev225

  ==> Input File <==

--------------------------------------------------------------------------
#psi4
#
memory 32 gb

molecule  {
0 1
  O       -2.2261580     0.9189870    -0.1609950
  N        0.4211910     1.5299470     0.0903790
  C        0.0817250     0.2107030     0.0159890
  C        2.4145630    -0.5010270    -0.0428790
  C       -1.3460660    -0.1139160     0.0206840
  C        1.0420520    -0.8182650    -0.0594370
  C        2.7641530     0.8636850     0.0360660
  C       -2.0477590    -1.2949740     0.1722820
  C        3.4684270    -1.5756500    -0.0824610
  C        1.7493340     1.8260270     0.0926910
  C       -3.2859352    -0.9520907     0.0797262
  C       -3.4828100     0.3886030    -0.1245500
  H        0.7225460    -1.8551450    -0.1446860
  H        3.8080070     1.1710760     0.0438400
  H       -1.6259220    -2.2752860     0.3500510
  H        3.8398640    -1.7937090     0.9244500
  H        3.0687740    -2.5034170    -0.5007000
  H        4.3228250    -1.2652800    -0.6906580
  H        1.9977040     2.8869120     0.1452960
  H       -4.2730300    -1.6376780     0.1527080
  H       -4.2894270     1.0948070    -0.2563320
units angstrom
no_reorient  #important for SAPT in psi4, default
symmetry c1  #important for SAPT in psi4, default
}

set PROPERTIES_ORIGIN ["COM"]
properties('MP2/aug-cc-pvtz', properties = ['dipole'])
--------------------------------------------------------------------------

    Molecular point group: c1
  Charge       = 0
  Multiplicity = 1
  Basis Set: AUG-CC-PVTZ
    Blend: AUG-CC-PVTZ
  Basis Set: (AUG-CC-PVTZ AUX)
    Blend: AUG-CC-PVTZ-JKFIT

    Orbital Energies [Eh]
    ---------------------

    Doubly Occupied:

       1A    -20.624425     2A    -15.562976     3A    -11.297222
       4A    -11.293994     5A    -11.288083     6A    -11.278640
       7A    -11.271899     8A    -11.242442     9A    -11.239538
      10A    -11.238060    11A    -11.231506    12A    -11.226664
      13A     -1.458482    14A     -1.243816    15A     -1.116885
      16A     -1.103607    17A     -1.058317    18A     -0.982781
      19A     -0.968420    20A     -0.863533    21A     -0.838825
      22A     -0.793052    23A     -0.770774    24A     -0.728252
      25A     -0.672831    26A     -0.667315    27A     -0.641406
      28A     -0.637284    29A     -0.603690    30A     -0.592583
      31A     -0.590604    32A     -0.564481    33A     -0.551606
      34A     -0.545720    35A     -0.527185    36A     -0.523295
      37A     -0.506749    38A     -0.422084    39A     -0.416236
      40A     -0.375777    41A     -0.362543    42A     -0.280680

  @DF-RHF Final Energy:  -513.34451668440829

   => Energetics <=

    Nuclear Repulsion Energy =            631.8892376859624846
    One-Electron Energy =               -1950.0589808830898164
    Two-Electron Energy =                 804.8252265127191549
    Total Energy =                       -513.3445166844082905
  Basis Set: (AUG-CC-PVTZ AUX)
    Blend: AUG-CC-PVTZ-RI
    Molecular point group: c1

    Geometry (in Angstrom), charge = 0, multiplicity = 1:

       Center              X                  Y                   Z               Mass
    ------------   -----------------  -----------------  -----------------  -----------------
         O           -2.189780911256     0.879418098467    -0.161070272671    15.994914619570
         N            0.457568088744     1.490378098467     0.090303727329    14.003074004430
         C            0.118102088744     0.171134098467     0.015913727329    12.000000000000
         C            2.450940088744    -0.540595901533    -0.042954272671    12.000000000000
         C           -1.309688911256    -0.153484901533     0.020608727329    12.000000000000
         C            1.078429088744    -0.857833901533    -0.059512272671    12.000000000000
         C            2.800530088744     0.824116098467     0.035990727329    12.000000000000
         C           -2.011381911256    -1.334542901533     0.172206727329    12.000000000000
         C            3.504804088744    -1.615218901533    -0.082536272671    12.000000000000
         C            1.785711088744     1.786458098467     0.092615727329    12.000000000000
         C           -3.249558111256    -0.991659601533     0.079650927329    12.000000000000
         C           -3.446432911256     0.349034098467    -0.124625272671    12.000000000000
         H            0.758923088744    -1.894713901533    -0.144761272671     1.007825032230
         H            3.844384088744     1.131507098467     0.043764727329     1.007825032230
         H           -1.589544911256    -2.314854901533     0.349975727329     1.007825032230
         H            3.876241088744    -1.833277901533     0.924374727329     1.007825032230
         H            3.105151088744    -2.542985901533    -0.500775272671     1.007825032230
         H            4.359202088744    -1.304848901533    -0.690733272671     1.007825032230
         H            2.034081088744     2.847343098467     0.145220727329     1.007825032230
         H           -4.236652911256    -1.677246901533     0.152632727329     1.007825032230
         H           -4.253049911256     1.055238098467    -0.256407272671     1.007825032230

  Basis Set: AUG-CC-PVTZ
    Blend: AUG-CC-PVTZ
  Basis Set: (AUG-CC-PVTZ AUX)
    Blend: AUG-CC-PVTZ-JKFIT
	 Reference Energy          =    -513.3445166844082905 [Eh]
	 Singles Energy            =      -0.0000000000000000 [Eh]
	 Same-Spin Energy          =      -0.5621318128115382 [Eh]
	 Opposite-Spin Energy      =      -1.7168154101665030 [Eh]
	 Correlation Energy        =      -2.2789472229780410 [Eh]
	 Total Energy              =    -515.6234639073862809 [Eh]

	 ================> DF-SCS-MP2 Energies <==================
	-----------------------------------------------------------
	 SCS Same-Spin Scale       =       0.3333333333333333 [-]
	 SCS Opposite-Spin Scale   =       1.2000000000000000 [-]
	 SCS Same-Spin Energy      =      -0.1873772709371794 [Eh]
	 SCS Opposite-Spin Energy  =      -2.0601784921998036 [Eh]
	 SCS Correlation Energy    =      -2.2475557631369831 [Eh]
	 SCS Total Energy          =    -515.5920724475453198 [Eh]
	-----------------------------------------------------------

  Dipole Moment: [D]
     X:     1.4510      Y:    -2.3398      Z:    -0.0097     Total:     2.7532

*** Psi4 exiting successfully. Buy a developer a beer!
