                               Psi4 1.4a3.dev225

  ==> Input File <==

--------------------------------------------------------------------------
#psi4
#
memory 32 gb

molecule  {
0 1
  O       -2.2261580     0.9189870    -0.1609950
  N        0.4211910     1.5299470     0.0903790
  C        0.0817250     0.2107030     0.0159890
  C        2.4145630    -0.5010270    -0.0428790
  C       -1.3460660    -0.1139160     0.0206840
  C        1.0420520    -0.8182650    -0.0594370
  C        2.7641530     0.8636850     0.0360660
  C       -2.0477590    -1.2949740     0.1722820
  C        3.4684270    -1.5756500    -0.0824610
  C        1.7493340     1.8260270     0.0926910
  C       -3.4286880    -0.9658200     0.0768380
  C       -3.4828100     0.3886030    -0.1245500
  H        0.7225460    -1.8551450    -0.1446860
  H        3.8271920     1.1767255     0.0439829
  H       -1.6259220    -2.2752860     0.3500510
  H        3.8398640    -1.7937090     0.9244500
  H        3.0687740    -2.5034170    -0.5007000
  H        4.3228250    -1.2652800    -0.6906580
  H        1.9977040     2.8869120     0.1452960
  H       -4.2730300    -1.6376780     0.1527080
  H       -4.2894270     1.0948070    -0.2563320
units angstrom
no_reorient  #important for SAPT in psi4, default
symmetry c1  #important for SAPT in psi4, default
}

set PROPERTIES_ORIGIN ["COM"]
properties('MP2/aug-cc-pvtz', properties = ['dipole'])
--------------------------------------------------------------------------

    Molecular point group: c1
  Charge       = 0
  Multiplicity = 1
  Basis Set: AUG-CC-PVTZ
    Blend: AUG-CC-PVTZ
  Basis Set: (AUG-CC-PVTZ AUX)
    Blend: AUG-CC-PVTZ-JKFIT

    Orbital Energies [Eh]
    ---------------------

    Doubly Occupied:

       1A    -20.621957     2A    -15.563889     3A    -11.297353
       4A    -11.294546     5A    -11.293316     6A    -11.278926
       7A    -11.272068     8A    -11.242682     9A    -11.240788
      10A    -11.239489    11A    -11.239025    12A    -11.233942
      13A     -1.453996    14A     -1.244316    15A     -1.104202
      16A     -1.087877    17A     -1.057734    18A     -0.983946
      19A     -0.968095    20A     -0.862461    21A     -0.836255
      22A     -0.800338    23A     -0.764820    24A     -0.727801
      25A     -0.670897    26A     -0.668542    27A     -0.639352
      28A     -0.633693    29A     -0.599580    30A     -0.590616
      31A     -0.578164    32A     -0.566231    33A     -0.558364
      34A     -0.547639    35A     -0.540725    36A     -0.525496
      37A     -0.509246    38A     -0.417729    39A     -0.402545
      40A     -0.376058    41A     -0.362654    42A     -0.288006

  @DF-RHF Final Energy:  -513.37654607369223

   => Energetics <=

    Nuclear Repulsion Energy =            628.8272245085663599
    One-Electron Energy =               -1944.0368258400030754
    Two-Electron Energy =                 801.8330552577444905
    Total Energy =                       -513.3765460736922250
  Basis Set: (AUG-CC-PVTZ AUX)
    Blend: AUG-CC-PVTZ-RI
    Molecular point group: c1

    Geometry (in Angstrom), charge = 0, multiplicity = 1:

       Center              X                  Y                   Z               Mass
    ------------   -----------------  -----------------  -----------------  -----------------
         O           -2.179133300991     0.880418032323    -0.160853294448    15.994914619570
         N            0.468215699009     1.491378032323     0.090520705552    14.003074004430
         C            0.128749699009     0.172134032323     0.016130705552    12.000000000000
         C            2.461587699009    -0.539595967677    -0.042737294448    12.000000000000
         C           -1.299041300991    -0.152484967677     0.020825705552    12.000000000000
         C            1.089076699009    -0.856833967677    -0.059295294448    12.000000000000
         C            2.811177699009     0.825116032323     0.036207705552    12.000000000000
         C           -2.000734300991    -1.333542967677     0.172423705552    12.000000000000
         C            3.515451699009    -1.614218967677    -0.082319294448    12.000000000000
         C            1.796358699009     1.787458032323     0.092832705552    12.000000000000
         C           -3.381663300991    -1.004388967677     0.076979705552    12.000000000000
         C           -3.435785300991     0.350034032323    -0.124408294448    12.000000000000
         H            0.769570699009    -1.893713967677    -0.144544294448     1.007825032230
         H            3.874216699009     1.138156532323     0.044124605552     1.007825032230
         H           -1.578897300991    -2.313854967677     0.350192705552     1.007825032230
         H            3.886888699009    -1.832277967677     0.924591705552     1.007825032230
         H            3.115798699009    -2.541985967677    -0.500558294448     1.007825032230
         H            4.369849699009    -1.303848967677    -0.690516294448     1.007825032230
         H            2.044728699009     2.848343032323     0.145437705552     1.007825032230
         H           -4.226005300991    -1.676246967677     0.152849705552     1.007825032230
         H           -4.242402300991     1.056238032323    -0.256190294448     1.007825032230

  Basis Set: AUG-CC-PVTZ
    Blend: AUG-CC-PVTZ
  Basis Set: (AUG-CC-PVTZ AUX)
    Blend: AUG-CC-PVTZ-JKFIT
	 Reference Energy          =    -513.3765460736922250 [Eh]
	 Singles Energy            =      -0.0000000000000000 [Eh]
	 Same-Spin Energy          =      -0.5591213975097526 [Eh]
	 Opposite-Spin Energy      =      -1.7137829166299519 [Eh]
	 Correlation Energy        =      -2.2729043141397045 [Eh]
	 Total Energy              =    -515.6494503878319620 [Eh]

	 ================> DF-SCS-MP2 Energies <==================
	-----------------------------------------------------------
	 SCS Same-Spin Scale       =       0.3333333333333333 [-]
	 SCS Opposite-Spin Scale   =       1.2000000000000000 [-]
	 SCS Same-Spin Energy      =      -0.1863737991699175 [Eh]
	 SCS Opposite-Spin Energy  =      -2.0565394999559423 [Eh]
	 SCS Correlation Energy    =      -2.2429132991258598 [Eh]
	 SCS Total Energy          =    -515.6194593728180280 [Eh]
	-----------------------------------------------------------

  Dipole Moment: [D]
     X:     1.4758      Y:    -2.3744      Z:    -0.0047     Total:     2.7957

*** Psi4 exiting successfully. Buy a developer a beer!
