                               Psi4 1.4a3.dev225

  ==> Input File <==

--------------------------------------------------------------------------
#psi4
#
memory 32 gb

molecule  {
0 1
  O       -2.2261580     0.9189870    -0.1609950
  N        0.4211910     1.5299470     0.0903790
  C        0.0817250     0.2107030     0.0159890
  C        2.4145630    -0.5010270    -0.0428790
  C       -1.3460660    -0.1139160     0.0206840
  C        1.0420520    -0.8182650    -0.0594370
  C        2.7641530     0.8636850     0.0360660
  C       -2.0477590    -1.2949740     0.1722820
  C        3.4684270    -1.5756500    -0.0824610
  C        1.8218365     1.7572737     0.0886455
  C       -3.4286880    -0.9658200     0.0768380
  C       -3.4828100     0.3886030    -0.1245500
  H        0.7225460    -1.8551450    -0.1446860
  H        3.8080070     1.1710760     0.0438400
  H       -1.6259220    -2.2752860     0.3500510
  H        3.8398640    -1.7937090     0.9244500
  H        3.0687740    -2.5034170    -0.5007000
  H        4.3228250    -1.2652800    -0.6906580
  H        1.9977040     2.8869120     0.1452960
  H       -4.2730300    -1.6376780     0.1527080
  H       -4.2894270     1.0948070    -0.2563320
units angstrom
no_reorient  #important for SAPT in psi4, default
symmetry c1  #important for SAPT in psi4, default
}

set PROPERTIES_ORIGIN ["COM"]
properties('MP2/aug-cc-pvtz', properties = ['dipole'])
--------------------------------------------------------------------------

    Molecular point group: c1
  Charge       = 0
  Multiplicity = 1
  Basis Set: AUG-CC-PVTZ
    Blend: AUG-CC-PVTZ
  Basis Set: (AUG-CC-PVTZ AUX)
    Blend: AUG-CC-PVTZ-JKFIT

    Orbital Energies [Eh]
    ---------------------

    Doubly Occupied:

       1A    -20.622538     2A    -15.565393     3A    -11.297402
       4A    -11.294576     5A    -11.294449     6A    -11.274636
       7A    -11.271370     8A    -11.241695     9A    -11.240908
      10A    -11.240532    11A    -11.234572    12A    -11.227970
      13A     -1.454556    14A     -1.236479    15A     -1.107155
      16A     -1.089101    17A     -1.059841    18A     -0.995168
      19A     -0.969935    20A     -0.858238    21A     -0.836716
      22A     -0.799939    23A     -0.765301    24A     -0.726239
      25A     -0.678804    26A     -0.671117    27A     -0.634951
      28A     -0.629085    29A     -0.596926    30A     -0.592471
      31A     -0.580975    32A     -0.567151    33A     -0.558912
      34A     -0.545692    35A     -0.541097    36A     -0.524976
      37A     -0.493882    38A     -0.425478    39A     -0.405447
      40A     -0.385549    41A     -0.354314    42A     -0.294263

  @DF-RHF Final Energy:  -513.36279574786977

   => Energetics <=

    Nuclear Repulsion Energy =            629.6167921555618250
    One-Electron Energy =               -1945.5875766783599374
    Two-Electron Energy =                 802.6079887749283444
    Total Energy =                       -513.3627957478697681
  Basis Set: (AUG-CC-PVTZ AUX)
    Blend: AUG-CC-PVTZ-RI
    Molecular point group: c1

    Geometry (in Angstrom), charge = 0, multiplicity = 1:

       Center              X                  Y                   Z               Mass
    ------------   -----------------  -----------------  -----------------  -----------------
         O           -2.184481282126     0.885640522992    -0.160547199624    15.994914619570
         N            0.462867717874     1.496600522992     0.090826800376    14.003074004430
         C            0.123401717874     0.177356522992     0.016436800376    12.000000000000
         C            2.456239717874    -0.534373477008    -0.042431199624    12.000000000000
         C           -1.304389282126    -0.147262477008     0.021131800376    12.000000000000
         C            1.083728717874    -0.851611477008    -0.058989199624    12.000000000000
         C            2.805829717874     0.830338522992     0.036513800376    12.000000000000
         C           -2.006082282126    -1.328320477008     0.172729800376    12.000000000000
         C            3.510103717874    -1.608996477008    -0.082013199624    12.000000000000
         C            1.863513217874     1.723927222992     0.089093300376    12.000000000000
         C           -3.387011282126    -0.999166477008     0.077285800376    12.000000000000
         C           -3.441133282126     0.355256522992    -0.124102199624    12.000000000000
         H            0.764222717874    -1.888491477008    -0.144238199624     1.007825032230
         H            3.849683717874     1.137729522992     0.044287800376     1.007825032230
         H           -1.584245282126    -2.308632477008     0.350498800376     1.007825032230
         H            3.881540717874    -1.827055477008     0.924897800376     1.007825032230
         H            3.110450717874    -2.536763477008    -0.500252199624     1.007825032230
         H            4.364501717874    -1.298626477008    -0.690210199624     1.007825032230
         H            2.039380717874     2.853565522992     0.145743800376     1.007825032230
         H           -4.231353282126    -1.671024477008     0.153155800376     1.007825032230
         H           -4.247750282126     1.061460522992    -0.255884199624     1.007825032230

  Basis Set: AUG-CC-PVTZ
    Blend: AUG-CC-PVTZ
  Basis Set: (AUG-CC-PVTZ AUX)
    Blend: AUG-CC-PVTZ-JKFIT
	 Reference Energy          =    -513.3627957478697681 [Eh]
	 Singles Energy            =      -0.0000000000000000 [Eh]
	 Same-Spin Energy          =      -0.5590202565011447 [Eh]
	 Opposite-Spin Energy      =      -1.7148542870083920 [Eh]
	 Correlation Energy        =      -2.2738745435095367 [Eh]
	 Total Energy              =    -515.6366702913793461 [Eh]

	 ================> DF-SCS-MP2 Energies <==================
	-----------------------------------------------------------
	 SCS Same-Spin Scale       =       0.3333333333333333 [-]
	 SCS Opposite-Spin Scale   =       1.2000000000000000 [-]
	 SCS Same-Spin Energy      =      -0.1863400855003816 [Eh]
	 SCS Opposite-Spin Energy  =      -2.0578251444100704 [Eh]
	 SCS Correlation Energy    =      -2.2441652299104518 [Eh]
	 SCS Total Energy          =    -515.6069609777802043 [Eh]
	-----------------------------------------------------------

  Dipole Moment: [D]
     X:     1.4372      Y:    -2.5232      Z:    -0.0115     Total:     2.9039

*** Psi4 exiting successfully. Buy a developer a beer!
