                               Psi4 1.4a3.dev225

  ==> Input File <==

--------------------------------------------------------------------------
#psi4
#
memory 32 gb

molecule  {
0 1
  O       -2.2261580     0.9189870    -0.1609950
  N        0.4211910     1.5299470     0.0903790
  C        0.0817250     0.2107030     0.0159890
  C        2.3161907    -0.6067296    -0.1060272
  C       -1.3460660    -0.1139160     0.0206840
  C        1.0420520    -0.8182650    -0.0594370
  C        2.7641530     0.8636850     0.0360660
  C       -2.0477590    -1.2949740     0.1722820
  C        3.4684270    -1.5756500    -0.0824610
  C        1.7493340     1.8260270     0.0926910
  C       -3.4286880    -0.9658200     0.0768380
  C       -3.4828100     0.3886030    -0.1245500
  H        0.7225460    -1.8551450    -0.1446860
  H        3.8080070     1.1710760     0.0438400
  H       -1.6259220    -2.2752860     0.3500510
  H        3.8398640    -1.7937090     0.9244500
  H        3.0687740    -2.5034170    -0.5007000
  H        4.3228250    -1.2652800    -0.6906580
  H        1.9977040     2.8869120     0.1452960
  H       -4.2730300    -1.6376780     0.1527080
  H       -4.2894270     1.0948070    -0.2563320
units angstrom
no_reorient  #important for SAPT in psi4, default
symmetry c1  #important for SAPT in psi4, default
}

set PROPERTIES_ORIGIN ["COM"]
properties('MP2/aug-cc-pvtz', properties = ['dipole'])
--------------------------------------------------------------------------

    Molecular point group: c1
  Charge       = 0
  Multiplicity = 1
  Basis Set: AUG-CC-PVTZ
    Blend: AUG-CC-PVTZ
  Basis Set: (AUG-CC-PVTZ AUX)
    Blend: AUG-CC-PVTZ-JKFIT

    Orbital Energies [Eh]
    ---------------------

    Doubly Occupied:

       1A    -20.624135     2A    -15.563445     3A    -11.300281
       4A    -11.299464     5A    -11.296794     6A    -11.270955
       7A    -11.268008     8A    -11.244779     9A    -11.242936
      10A    -11.239908    11A    -11.236295    12A    -11.232102
      13A     -1.456339    14A     -1.243921    15A     -1.110946
      16A     -1.089604    17A     -1.056685    18A     -0.985272
      19A     -0.968435    20A     -0.871170    21A     -0.828136
      22A     -0.798227    23A     -0.768241    24A     -0.732469
      25A     -0.673912    26A     -0.661697    27A     -0.638773
      28A     -0.635694    29A     -0.602164    30A     -0.590858
      31A     -0.582657    32A     -0.568743    33A     -0.565245
      34A     -0.556201    35A     -0.538732    36A     -0.525434
      37A     -0.485994    38A     -0.414104    39A     -0.404000
      40A     -0.379382    41A     -0.367511    42A     -0.286970

  @DF-RHF Final Energy:  -513.35191597897290

   => Energetics <=

    Nuclear Repulsion Energy =            629.2987279235547931
    One-Electron Energy =               -1944.8880501894539066
    Two-Electron Energy =                 802.2374062869263298
    Total Energy =                       -513.3519159789728974
  Basis Set: (AUG-CC-PVTZ AUX)
    Blend: AUG-CC-PVTZ-RI
    Molecular point group: c1

    Geometry (in Angstrom), charge = 0, multiplicity = 1:

       Center              X                  Y                   Z               Mass
    ------------   -----------------  -----------------  -----------------  -----------------
         O           -2.171590617352     0.888427950044    -0.156088536948    15.994914619570
         N            0.475758382648     1.499387950044     0.095285463052    14.003074004430
         C            0.136292382648     0.180143950044     0.020895463052    12.000000000000
         C            2.370758082648    -0.637288649956    -0.101120736948    12.000000000000
         C           -1.291498617352    -0.144475049956     0.025590463052    12.000000000000
         C            1.096619382648    -0.848824049956    -0.054530536948    12.000000000000
         C            2.818720382648     0.833125950044     0.040972463052    12.000000000000
         C           -1.993191617352    -1.325533049956     0.177188463052    12.000000000000
         C            3.522994382648    -1.606209049956    -0.077554536948    12.000000000000
         C            1.803901382648     1.795467950044     0.097597463052    12.000000000000
         C           -3.374120617352    -0.996379049956     0.081744463052    12.000000000000
         C           -3.428242617352     0.358043950044    -0.119643536948    12.000000000000
         H            0.777113382648    -1.885704049956    -0.139779536948     1.007825032230
         H            3.862574382648     1.140516950044     0.048746463052     1.007825032230
         H           -1.571354617352    -2.305845049956     0.354957463052     1.007825032230
         H            3.894431382648    -1.824268049956     0.929356463052     1.007825032230
         H            3.123341382648    -2.533976049956    -0.495793536948     1.007825032230
         H            4.377392382648    -1.295839049956    -0.685751536948     1.007825032230
         H            2.052271382648     2.856352950044     0.150202463052     1.007825032230
         H           -4.218462617352    -1.668237049956     0.157614463052     1.007825032230
         H           -4.234859617352     1.064247950044    -0.251425536948     1.007825032230

  Basis Set: AUG-CC-PVTZ
    Blend: AUG-CC-PVTZ
  Basis Set: (AUG-CC-PVTZ AUX)
    Blend: AUG-CC-PVTZ-JKFIT
	 Reference Energy          =    -513.3519159789728974 [Eh]
	 Singles Energy            =      -0.0000000000000000 [Eh]
	 Same-Spin Energy          =      -0.5585787548483017 [Eh]
	 Opposite-Spin Energy      =      -1.7148147658586035 [Eh]
	 Correlation Energy        =      -2.2733935207069051 [Eh]
	 Total Energy              =    -515.6253094996798154 [Eh]

	 ================> DF-SCS-MP2 Energies <==================
	-----------------------------------------------------------
	 SCS Same-Spin Scale       =       0.3333333333333333 [-]
	 SCS Opposite-Spin Scale   =       1.2000000000000000 [-]
	 SCS Same-Spin Energy      =      -0.1861929182827672 [Eh]
	 SCS Opposite-Spin Energy  =      -2.0577777190303239 [Eh]
	 SCS Correlation Energy    =      -2.2439706373130912 [Eh]
	 SCS Total Energy          =    -515.5958866162859522 [Eh]
	-----------------------------------------------------------

  Dipole Moment: [D]
     X:     1.3333      Y:    -2.4186      Z:     0.0186     Total:     2.7619

*** Psi4 exiting successfully. Buy a developer a beer!
