                               Psi4 1.4a3.dev225

  ==> Input File <==

--------------------------------------------------------------------------
#psi4
#
memory 32 gb

molecule  {
0 1
  O       -2.2261580     0.9189870    -0.1609950
  N        0.4211910     1.5299470     0.0903790
  C        0.0817250     0.2107030     0.0159890
  C        2.4145630    -0.5010270    -0.0428790
  C       -1.3460660    -0.1139160     0.0206840
  C        0.9739196    -0.7452627    -0.0540857
  C        2.7641530     0.8636850     0.0360660
  C       -2.0477590    -1.2949740     0.1722820
  C        3.4684270    -1.5756500    -0.0824610
  C        1.7493340     1.8260270     0.0926910
  C       -3.4286880    -0.9658200     0.0768380
  C       -3.4828100     0.3886030    -0.1245500
  H        0.7225460    -1.8551450    -0.1446860
  H        3.8080070     1.1710760     0.0438400
  H       -1.6259220    -2.2752860     0.3500510
  H        3.8398640    -1.7937090     0.9244500
  H        3.0687740    -2.5034170    -0.5007000
  H        4.3228250    -1.2652800    -0.6906580
  H        1.9977040     2.8869120     0.1452960
  H       -4.2730300    -1.6376780     0.1527080
  H       -4.2894270     1.0948070    -0.2563320
units angstrom
no_reorient  #important for SAPT in psi4, default
symmetry c1  #important for SAPT in psi4, default
}

set PROPERTIES_ORIGIN ["COM"]
properties('MP2/aug-cc-pvtz', properties = ['dipole'])
--------------------------------------------------------------------------

    Molecular point group: c1
  Charge       = 0
  Multiplicity = 1
  Basis Set: AUG-CC-PVTZ
    Blend: AUG-CC-PVTZ
  Basis Set: (AUG-CC-PVTZ AUX)
    Blend: AUG-CC-PVTZ-JKFIT

    Orbital Energies [Eh]
    ---------------------

    Doubly Occupied:

       1A    -20.619485     2A    -15.562281     3A    -11.294564
       4A    -11.289607     5A    -11.280555     6A    -11.280077
       7A    -11.279486     8A    -11.244537     9A    -11.241451
      10A    -11.240033    11A    -11.234741    12A    -11.231209
      13A     -1.451391    14A     -1.248927    15A     -1.099673
      16A     -1.087090    17A     -1.064023    18A     -0.984605
      19A     -0.975158    20A     -0.855576    21A     -0.841397
      22A     -0.796896    23A     -0.764577    24A     -0.731346
      25A     -0.673557    26A     -0.667970    27A     -0.633884
      28A     -0.630600    29A     -0.602173    30A     -0.593372
      31A     -0.576338    32A     -0.563946    33A     -0.562058
      34A     -0.550244    35A     -0.538655    36A     -0.531201
      37A     -0.495098    38A     -0.419793    39A     -0.401586
      40A     -0.379177    41A     -0.358506    42A     -0.290098

  @DF-RHF Final Energy:  -513.36399374773487

   => Energetics <=

    Nuclear Repulsion Energy =            630.2087862941237972
    One-Electron Energy =               -1946.8116833307585694
    Two-Electron Energy =                 803.2389032888997917
    Total Energy =                       -513.3639937477348667
  Basis Set: (AUG-CC-PVTZ AUX)
    Blend: AUG-CC-PVTZ-RI
    Molecular point group: c1

    Geometry (in Angstrom), charge = 0, multiplicity = 1:

       Center              X                  Y                   Z               Mass
    ------------   -----------------  -----------------  -----------------  -----------------
         O           -2.173871892377     0.874946588489    -0.161256087060    15.994914619570
         N            0.473477107623     1.485906588489     0.090117912940    14.003074004430
         C            0.134011107623     0.166662588489     0.015727912940    12.000000000000
         C            2.466849107623    -0.545067411511    -0.043140087060    12.000000000000
         C           -1.293779892377    -0.157956411511     0.020422912940    12.000000000000
         C            1.026205707623    -0.789303111511    -0.054346787060    12.000000000000
         C            2.816439107623     0.819644588489     0.035804912940    12.000000000000
         C           -1.995472892377    -1.339014411511     0.172020912940    12.000000000000
         C            3.520713107623    -1.619690411511    -0.082722087060    12.000000000000
         C            1.801620107623     1.781986588489     0.092429912940    12.000000000000
         C           -3.376401892377    -1.009860411511     0.076576912940    12.000000000000
         C           -3.430523892377     0.344562588489    -0.124811087060    12.000000000000
         H            0.774832107623    -1.899185411511    -0.144947087060     1.007825032230
         H            3.860293107623     1.127035588489     0.043578912940     1.007825032230
         H           -1.573635892377    -2.319326411511     0.349789912940     1.007825032230
         H            3.892150107623    -1.837749411511     0.924188912940     1.007825032230
         H            3.121060107623    -2.547457411511    -0.500961087060     1.007825032230
         H            4.375111107623    -1.309320411511    -0.690919087060     1.007825032230
         H            2.049990107623     2.842871588489     0.145034912940     1.007825032230
         H           -4.220743892377    -1.681718411511     0.152446912940     1.007825032230
         H           -4.237140892377     1.050766588489    -0.256593087060     1.007825032230

  Basis Set: AUG-CC-PVTZ
    Blend: AUG-CC-PVTZ
  Basis Set: (AUG-CC-PVTZ AUX)
    Blend: AUG-CC-PVTZ-JKFIT
	 Reference Energy          =    -513.3639937477348667 [Eh]
	 Singles Energy            =      -0.0000000000000000 [Eh]
	 Same-Spin Energy          =      -0.5591394192573564 [Eh]
	 Opposite-Spin Energy      =      -1.7142563715944474 [Eh]
	 Correlation Energy        =      -2.2733957908518039 [Eh]
	 Total Energy              =    -515.6373895385867172 [Eh]

	 ================> DF-SCS-MP2 Energies <==================
	-----------------------------------------------------------
	 SCS Same-Spin Scale       =       0.3333333333333333 [-]
	 SCS Opposite-Spin Scale   =       1.2000000000000000 [-]
	 SCS Same-Spin Energy      =      -0.1863798064191188 [Eh]
	 SCS Opposite-Spin Energy  =      -2.0571076459133368 [Eh]
	 SCS Correlation Energy    =      -2.2434874523324555 [Eh]
	 SCS Total Energy          =    -515.6074812000673546 [Eh]
	-----------------------------------------------------------

  Dipole Moment: [D]
     X:     1.7287      Y:    -2.3578      Z:    -0.0028     Total:     2.9236

*** Psi4 exiting successfully. Buy a developer a beer!
