                               Psi4 1.4a3.dev225

  ==> Input File <==

--------------------------------------------------------------------------
#psi4
#
memory 32 gb

molecule  {
0 1
  O       -2.2261580     0.9189870    -0.1609950
  N        0.4211910     1.5299470     0.0903790
  C        0.0817250     0.2107030     0.0159890
  C        2.4145630    -0.5010270    -0.0428790
  C       -1.3460660    -0.1139160     0.0206840
  C        1.0420520    -0.8182650    -0.0594370
  C        2.7641530     0.8636850     0.0360660
  C       -2.0477590    -1.2949740     0.1722820
  C        3.4684270    -1.5756500    -0.0824610
  C        1.7493340     1.8260270     0.0926910
  C       -3.5720337    -0.9647100     0.0717433
  C       -3.4828100     0.3886030    -0.1245500
  H        0.7225460    -1.8551450    -0.1446860
  H        3.8080070     1.1710760     0.0438400
  H       -1.6259220    -2.2752860     0.3500510
  H        3.8398640    -1.7937090     0.9244500
  H        3.0687740    -2.5034170    -0.5007000
  H        4.3228250    -1.2652800    -0.6906580
  H        1.9977040     2.8869120     0.1452960
  H       -4.2730300    -1.6376780     0.1527080
  H       -4.2894270     1.0948070    -0.2563320
units angstrom
no_reorient  #important for SAPT in psi4, default
symmetry c1  #important for SAPT in psi4, default
}

set PROPERTIES_ORIGIN ["COM"]
properties('MP2/aug-cc-pvtz', properties = ['dipole'])
--------------------------------------------------------------------------

    Molecular point group: c1
  Charge       = 0
  Multiplicity = 1
  Basis Set: AUG-CC-PVTZ
    Blend: AUG-CC-PVTZ
  Basis Set: (AUG-CC-PVTZ AUX)
    Blend: AUG-CC-PVTZ-JKFIT

    Orbital Energies [Eh]
    ---------------------

    Doubly Occupied:

       1A    -20.621379     2A    -15.564981     3A    -11.300611
       4A    -11.299111     5A    -11.295517     6A    -11.279327
       7A    -11.272309     8A    -11.248395     9A    -11.243214
      10A    -11.239810    11A    -11.239399    12A    -11.238047
      13A     -1.452436    14A     -1.245106    15A     -1.104758
      16A     -1.072078    17A     -1.055331    18A     -0.986345
      19A     -0.968270    20A     -0.865080    21A     -0.835110
      22A     -0.813798    23A     -0.764552    24A     -0.726467
      25A     -0.674816    26A     -0.670271    27A     -0.639572
      28A     -0.632729    29A     -0.620220    30A     -0.590985
      31A     -0.590875    32A     -0.563527    33A     -0.554098
      34A     -0.546838    35A     -0.527062    36A     -0.515144
      37A     -0.505374    38A     -0.418582    39A     -0.392349
      40A     -0.375376    41A     -0.363033    42A     -0.294935

  @DF-RHF Final Energy:  -513.35470652594393

   => Energetics <=

    Nuclear Repulsion Energy =            626.3991189659174097
    One-Electron Energy =               -1939.0932106956054213
    Two-Electron Energy =                 799.3393852037439729
    Total Energy =                       -513.3547065259439250
  Basis Set: (AUG-CC-PVTZ AUX)
    Blend: AUG-CC-PVTZ-RI
    Molecular point group: c1

    Geometry (in Angstrom), charge = 0, multiplicity = 1:

       Center              X                  Y                   Z               Mass
    ------------   -----------------  -----------------  -----------------  -----------------
         O           -2.168197858307     0.880370088848    -0.160468048775    15.994914619570
         N            0.479151141693     1.491330088848     0.090905951225    14.003074004430
         C            0.139685141693     0.172086088848     0.016515951225    12.000000000000
         C            2.472523141693    -0.539643911152    -0.042352048775    12.000000000000
         C           -1.288105858307    -0.152532911152     0.021210951225    12.000000000000
         C            1.100012141693    -0.856881911152    -0.058910048775    12.000000000000
         C            2.822113141693     0.825068088848     0.036592951225    12.000000000000
         C           -1.989798858307    -1.333590911152     0.172808951225    12.000000000000
         C            3.526387141693    -1.614266911152    -0.081934048775    12.000000000000
         C            1.807294141693     1.787410088848     0.093217951225    12.000000000000
         C           -3.514073558307    -1.003326911152     0.072270251225    12.000000000000
         C           -3.424849858307     0.349986088848    -0.124023048775    12.000000000000
         H            0.780506141693    -1.893761911152    -0.144159048775     1.007825032230
         H            3.865967141693     1.132459088848     0.044366951225     1.007825032230
         H           -1.567961858307    -2.313902911152     0.350577951225     1.007825032230
         H            3.897824141693    -1.832325911152     0.924976951225     1.007825032230
         H            3.126734141693    -2.542033911152    -0.500173048775     1.007825032230
         H            4.380785141693    -1.303896911152    -0.690131048775     1.007825032230
         H            2.055664141693     2.848295088848     0.145822951225     1.007825032230
         H           -4.215069858307    -1.676294911152     0.153234951225     1.007825032230
         H           -4.231466858307     1.056190088848    -0.255805048775     1.007825032230

  Basis Set: AUG-CC-PVTZ
    Blend: AUG-CC-PVTZ
  Basis Set: (AUG-CC-PVTZ AUX)
    Blend: AUG-CC-PVTZ-JKFIT
	 Reference Energy          =    -513.3547065259439250 [Eh]
	 Singles Energy            =      -0.0000000000000000 [Eh]
	 Same-Spin Energy          =      -0.5572826767109896 [Eh]
	 Opposite-Spin Energy      =      -1.7137039663533455 [Eh]
	 Correlation Energy        =      -2.2709866430643353 [Eh]
	 Total Energy              =    -515.6256931690082865 [Eh]

	 ================> DF-SCS-MP2 Energies <==================
	-----------------------------------------------------------
	 SCS Same-Spin Scale       =       0.3333333333333333 [-]
	 SCS Opposite-Spin Scale   =       1.2000000000000000 [-]
	 SCS Same-Spin Energy      =      -0.1857608922369965 [Eh]
	 SCS Opposite-Spin Energy  =      -2.0564447596240147 [Eh]
	 SCS Correlation Energy    =      -2.2422056518610112 [Eh]
	 SCS Total Energy          =    -515.5969121778049384 [Eh]
	-----------------------------------------------------------

  Dipole Moment: [D]
     X:     1.6081      Y:    -2.3731      Z:    -0.0014     Total:     2.8666

*** Psi4 exiting successfully. Buy a developer a beer!
