                               Psi4 1.4a3.dev225

  ==> Input File <==

--------------------------------------------------------------------------
#psi4
#
memory 32 gb

molecule  {
0 1
  O       -2.2261580     0.9189870    -0.1609950
  N        0.4211910     1.5299470     0.0903790
  C        0.0817250     0.2107030     0.0159890
  C        2.4145630    -0.5010270    -0.0428790
  C       -1.3460660    -0.1139160     0.0206840
  C        1.0420520    -0.8182650    -0.0594370
  C        2.7641530     0.8636850     0.0360660
  C       -2.0477590    -1.2949740     0.1722820
  C        3.4684270    -1.5756500    -0.0824610
  C        1.7493340     1.8260270     0.0926910
  C       -3.4286880    -0.9658200     0.0768380
  C       -3.4828100     0.3886030    -0.1245500
  H        0.7225460    -1.8551450    -0.1446860
  H        3.8080070     1.1710760     0.0438400
  H       -1.6259220    -2.2752860     0.3500510
  H        3.8398640    -1.7937090     0.9244500
  H        3.0687740    -2.5034170    -0.5007000
  H        4.3228250    -1.2652800    -0.6906580
  H        2.0204727     2.9841660     0.1501184
  H       -4.2730300    -1.6376780     0.1527080
  H       -4.2894270     1.0948070    -0.2563320
units angstrom
no_reorient  #important for SAPT in psi4, default
symmetry c1  #important for SAPT in psi4, default
}

set PROPERTIES_ORIGIN ["COM"]
properties('MP2/aug-cc-pvtz', properties = ['dipole'])
--------------------------------------------------------------------------

    Molecular point group: c1
  Charge       = 0
  Multiplicity = 1
  Basis Set: AUG-CC-PVTZ
    Blend: AUG-CC-PVTZ
  Basis Set: (AUG-CC-PVTZ AUX)
    Blend: AUG-CC-PVTZ-JKFIT

    Orbital Energies [Eh]
    ---------------------

    Doubly Occupied:

       1A    -20.622201     2A    -15.564796     3A    -11.297678
       4A    -11.295338     5A    -11.293564     6A    -11.289783
       7A    -11.272557     8A    -11.242892     9A    -11.239916
      10A    -11.239505    11A    -11.239334    12A    -11.234153
      13A     -1.454242    14A     -1.244636    15A     -1.104898
      16A     -1.088078    17A     -1.056863    18A     -0.983682
      19A     -0.968585    20A     -0.862499    21A     -0.831480
      22A     -0.798698    23A     -0.765176    24A     -0.726589
      25A     -0.673207    26A     -0.669284    27A     -0.634820
      28A     -0.630584    29A     -0.592894    30A     -0.591021
      31A     -0.579094    32A     -0.566210    33A     -0.559188
      34A     -0.547064    35A     -0.540940    36A     -0.526066
      37A     -0.505740    38A     -0.416836    39A     -0.402788
      40A     -0.376468    41A     -0.363081    42A     -0.288308

  @DF-RHF Final Energy:  -513.36949533864004

   => Energetics <=

    Nuclear Repulsion Energy =            628.4240801175940305
    One-Electron Energy =               -1943.2256817082652560
    Two-Electron Energy =                 801.4321062520311898
    Total Energy =                       -513.3694953386400357
  Basis Set: (AUG-CC-PVTZ AUX)
    Blend: AUG-CC-PVTZ-RI
    Molecular point group: c1

    Geometry (in Angstrom), charge = 0, multiplicity = 1:

       Center              X                  Y                   Z               Mass
    ------------   -----------------  -----------------  -----------------  -----------------
         O           -2.179156006584     0.879837644891    -0.160882942806    15.994914619570
         N            0.468192993416     1.490797644891     0.090491057194    14.003074004430
         C            0.128726993416     0.171553644891     0.016101057194    12.000000000000
         C            2.461564993416    -0.540176355109    -0.042766942806    12.000000000000
         C           -1.299064006584    -0.153065355109     0.020796057194    12.000000000000
         C            1.089053993416    -0.857414355109    -0.059324942806    12.000000000000
         C            2.811154993416     0.824535644891     0.036178057194    12.000000000000
         C           -2.000757006584    -1.334123355109     0.172394057194    12.000000000000
         C            3.515428993416    -1.614799355109    -0.082348942806    12.000000000000
         C            1.796335993416     1.786877644891     0.092803057194    12.000000000000
         C           -3.381686006584    -1.004969355109     0.076950057194    12.000000000000
         C           -3.435808006584     0.349453644891    -0.124437942806    12.000000000000
         H            0.769547993416    -1.894294355109    -0.144573942806     1.007825032230
         H            3.855008993416     1.131926644891     0.043952057194     1.007825032230
         H           -1.578920006584    -2.314435355109     0.350163057194     1.007825032230
         H            3.886865993416    -1.832858355109     0.924562057194     1.007825032230
         H            3.115775993416    -2.542566355109    -0.500587942806     1.007825032230
         H            4.369826993416    -1.304429355109    -0.690545942806     1.007825032230
         H            2.067474693416     2.945016644891     0.150230457194     1.007825032230
         H           -4.226028006584    -1.676827355109     0.152820057194     1.007825032230
         H           -4.242425006584     1.055657644891    -0.256219942806     1.007825032230

  Basis Set: AUG-CC-PVTZ
    Blend: AUG-CC-PVTZ
  Basis Set: (AUG-CC-PVTZ AUX)
    Blend: AUG-CC-PVTZ-JKFIT
	 Reference Energy          =    -513.3694953386400357 [Eh]
	 Singles Energy            =      -0.0000000000000000 [Eh]
	 Same-Spin Energy          =      -0.5593712416479031 [Eh]
	 Opposite-Spin Energy      =      -1.7146530346539648 [Eh]
	 Correlation Energy        =      -2.2740242763018679 [Eh]
	 Total Energy              =    -515.6435196149418516 [Eh]

	 ================> DF-SCS-MP2 Energies <==================
	-----------------------------------------------------------
	 SCS Same-Spin Scale       =       0.3333333333333333 [-]
	 SCS Opposite-Spin Scale   =       1.2000000000000000 [-]
	 SCS Same-Spin Energy      =      -0.1864570805493010 [Eh]
	 SCS Opposite-Spin Energy  =      -2.0575836415847575 [Eh]
	 SCS Correlation Energy    =      -2.2440407221340584 [Eh]
	 SCS Total Energy          =    -515.6135360607740949 [Eh]
	-----------------------------------------------------------

  Dipole Moment: [D]
     X:     1.4491      Y:    -2.4234      Z:    -0.0071     Total:     2.8236

*** Psi4 exiting successfully. Buy a developer a beer!
