                               Psi4 1.4a3.dev225

  ==> Input File <==

--------------------------------------------------------------------------
#psi4
#
memory 32 gb

molecule  {
0 1
  O       -2.2261580     0.9189870    -0.1609950
  N        0.4211910     1.5299470     0.0903790
  C        0.0817250     0.2107030     0.0159890
  C        2.4145630    -0.5010270    -0.0428790
  C       -1.3460660    -0.1139160     0.0206840
  C        1.0420520    -0.8182650    -0.0594370
  C        2.7641530     0.8636850     0.0360660
  C       -2.0477590    -1.2949740     0.1722820
  C        3.4684270    -1.5756500    -0.0824610
  C        1.7493340     1.8260270     0.0926910
  C       -3.4286880    -0.9658200     0.0768380
  C       -3.5305476     0.3857183    -0.1254409
  H        0.7225460    -1.8551450    -0.1446860
  H        3.8080070     1.1710760     0.0438400
  H       -1.6259220    -2.2752860     0.3500510
  H        3.8398640    -1.7937090     0.9244500
  H        3.0687740    -2.5034170    -0.5007000
  H        4.3228250    -1.2652800    -0.6906580
  H        1.9977040     2.8869120     0.1452960
  H       -4.2730300    -1.6376780     0.1527080
  H       -4.2894270     1.0948070    -0.2563320
units angstrom
no_reorient  #important for SAPT in psi4, default
symmetry c1  #important for SAPT in psi4, default
}

set PROPERTIES_ORIGIN ["COM"]
properties('MP2/aug-cc-pvtz', properties = ['dipole'])
--------------------------------------------------------------------------

    Molecular point group: c1
  Charge       = 0
  Multiplicity = 1
  Basis Set: AUG-CC-PVTZ
    Blend: AUG-CC-PVTZ
  Basis Set: (AUG-CC-PVTZ AUX)
    Blend: AUG-CC-PVTZ-JKFIT

    Orbital Energies [Eh]
    ---------------------

    Doubly Occupied:

       1A    -20.615044     2A    -15.564698     3A    -11.299584
       4A    -11.294724     5A    -11.291398     6A    -11.279163
       7A    -11.272378     8A    -11.243668     9A    -11.239929
      10A    -11.239622    11A    -11.238003    12A    -11.236922
      13A     -1.435233    14A     -1.244580    15A     -1.104926
      16A     -1.084835    17A     -1.057672    18A     -0.984314
      19A     -0.968398    20A     -0.864824    21A     -0.837294
      22A     -0.796779    23A     -0.763234    24A     -0.727268
      25A     -0.673833    26A     -0.669915    27A     -0.639199
      28A     -0.623566    29A     -0.599969    30A     -0.590882
      31A     -0.579395    32A     -0.564182    33A     -0.558358
      34A     -0.549263    35A     -0.538868    36A     -0.525128
      37A     -0.510202    38A     -0.418126    39A     -0.400693
      40A     -0.376656    41A     -0.363063    42A     -0.289429

  @DF-RHF Final Energy:  -513.37284740359905

   => Energetics <=

    Nuclear Repulsion Energy =            627.8638151051166005
    One-Electron Energy =               -1942.1628867978042763
    Two-Electron Energy =                 800.9262242890886228
    Total Energy =                       -513.3728474035990530
  Basis Set: (AUG-CC-PVTZ AUX)
    Blend: AUG-CC-PVTZ-RI
    Molecular point group: c1

    Geometry (in Angstrom), charge = 0, multiplicity = 1:

       Center              X                  Y                   Z               Mass
    ------------   -----------------  -----------------  -----------------  -----------------
         O           -2.175410460556     0.880671445973    -0.160785180246    15.994914619570
         N            0.471938539444     1.491631445973     0.090588819754    14.003074004430
         C            0.132472539444     0.172387445973     0.016198819754    12.000000000000
         C            2.465310539444    -0.539342554027    -0.042669180246    12.000000000000
         C           -1.295318460556    -0.152231554027     0.020893819754    12.000000000000
         C            1.092799539444    -0.856580554027    -0.059227180246    12.000000000000
         C            2.814900539444     0.825369445973     0.036275819754    12.000000000000
         C           -1.997011460556    -1.333289554027     0.172491819754    12.000000000000
         C            3.519174539444    -1.613965554027    -0.082251180246    12.000000000000
         C            1.800081539444     1.787711445973     0.092900819754    12.000000000000
         C           -3.377940460556    -1.004135554027     0.077047819754    12.000000000000
         C           -3.479800060556     0.347402745973    -0.125231080246    12.000000000000
         H            0.773293539444    -1.893460554027    -0.144476180246     1.007825032230
         H            3.858754539444     1.132760445973     0.044049819754     1.007825032230
         H           -1.575174460556    -2.313601554027     0.350260819754     1.007825032230
         H            3.890611539444    -1.832024554027     0.924659819754     1.007825032230
         H            3.119521539444    -2.541732554027    -0.500490180246     1.007825032230
         H            4.373572539444    -1.303595554027    -0.690448180246     1.007825032230
         H            2.048451539444     2.848596445973     0.145505819754     1.007825032230
         H           -4.222282460556    -1.675993554027     0.152917819754     1.007825032230
         H           -4.238679460556     1.056491445973    -0.256122180246     1.007825032230

  Basis Set: AUG-CC-PVTZ
    Blend: AUG-CC-PVTZ
  Basis Set: (AUG-CC-PVTZ AUX)
    Blend: AUG-CC-PVTZ-JKFIT
	 Reference Energy          =    -513.3728474035990530 [Eh]
	 Singles Energy            =      -0.0000000000000000 [Eh]
	 Same-Spin Energy          =      -0.5592328451312178 [Eh]
	 Opposite-Spin Energy      =      -1.7148138551898469 [Eh]
	 Correlation Energy        =      -2.2740467003210645 [Eh]
	 Total Energy              =    -515.6468941039200899 [Eh]

	 ================> DF-SCS-MP2 Energies <==================
	-----------------------------------------------------------
	 SCS Same-Spin Scale       =       0.3333333333333333 [-]
	 SCS Opposite-Spin Scale   =       1.2000000000000000 [-]
	 SCS Same-Spin Energy      =      -0.1864109483770726 [Eh]
	 SCS Opposite-Spin Energy  =      -2.0577766262278163 [Eh]
	 SCS Correlation Energy    =      -2.2441875746048887 [Eh]
	 SCS Total Energy          =    -515.6170349782039466 [Eh]
	-----------------------------------------------------------

  Dipole Moment: [D]
     X:     1.4861      Y:    -2.3926      Z:    -0.0012     Total:     2.8165

*** Psi4 exiting successfully. Buy a developer a beer!
