                               Psi4 1.4a3.dev225

  ==> Input File <==

--------------------------------------------------------------------------
#psi4
#
memory 32 gb

molecule  {
0 1
  O       -2.2261580     0.9189870    -0.1609950
  N        0.4211910     1.5299470     0.0903790
  C        0.0817250     0.2107030     0.0159890
  C        2.4145630    -0.5010270    -0.0428790
  C       -1.3460660    -0.1139160     0.0206840
  C        1.0420520    -0.8182650    -0.0594370
  C        2.7641530     0.8636850     0.0360660
  C       -2.0477590    -1.2949740     0.1722820
  C        3.4684270    -1.5756500    -0.0824610
  C        1.7493340     1.8260270     0.0926910
  C       -3.4286880    -0.9658200     0.0768380
  C       -3.4828100     0.3886030    -0.1245500
  H        0.7225460    -1.8551450    -0.1446860
  H        3.8080070     1.1710760     0.0438400
  H       -1.6259220    -2.2752860     0.3500510
  H        3.8398640    -1.7937090     0.9244500
  H        3.0687740    -2.5034170    -0.5007000
  H        4.3228250    -1.2652800    -0.6906580
  H        2.0090883     2.9355390     0.1477072
  H       -4.2730300    -1.6376780     0.1527080
  H       -4.2894270     1.0948070    -0.2563320
units angstrom
no_reorient  #important for SAPT in psi4, default
symmetry c1  #important for SAPT in psi4, default
}

set PROPERTIES_ORIGIN ["COM"]
properties('MP2/aug-cc-pvtz', properties = ['dipole'])
--------------------------------------------------------------------------

    Molecular point group: c1
  Charge       = 0
  Multiplicity = 1
  Basis Set: AUG-CC-PVTZ
    Blend: AUG-CC-PVTZ
  Basis Set: (AUG-CC-PVTZ AUX)
    Blend: AUG-CC-PVTZ-JKFIT

    Orbital Energies [Eh]
    ---------------------

    Doubly Occupied:

       1A    -20.622043     2A    -15.564221     3A    -11.297474
       4A    -11.294872     5A    -11.293406     6A    -11.284374
       7A    -11.272186     8A    -11.242686     9A    -11.239691
      10A    -11.239140    11A    -11.238957    12A    -11.234017
      13A     -1.454082    14A     -1.244363    15A     -1.104573
      16A     -1.087948    17A     -1.057240    18A     -0.983939
      19A     -0.968329    20A     -0.862703    21A     -0.833567
      22A     -0.799480    23A     -0.765018    24A     -0.727098
      25A     -0.673142    26A     -0.668960    27A     -0.635869
      28A     -0.633018    29A     -0.596534    30A     -0.590808
      31A     -0.578982    32A     -0.566215    33A     -0.559075
      34A     -0.547344    35A     -0.540796    36A     -0.525699
      37A     -0.507975    38A     -0.417287    39A     -0.402627
      40A     -0.376198    41A     -0.362781    42A     -0.288110

  @DF-RHF Final Energy:  -513.37455752386984

   => Energetics <=

    Nuclear Repulsion Energy =            628.6710079502300914
    One-Electron Energy =               -1943.7254766959958943
    Two-Electron Energy =                 801.6799112218960772
    Total Energy =                       -513.3745575238698393
  Basis Set: (AUG-CC-PVTZ AUX)
    Blend: AUG-CC-PVTZ-RI
    Molecular point group: c1

    Geometry (in Angstrom), charge = 0, multiplicity = 1:

       Center              X                  Y                   Z               Mass
    ------------   -----------------  -----------------  -----------------  -----------------
         O           -2.179083877347     0.880145735647    -0.160867665935    15.994914619570
         N            0.468265122653     1.491105735647     0.090506334065    14.003074004430
         C            0.128799122653     0.171861735647     0.016116334065    12.000000000000
         C            2.461637122653    -0.539868264353    -0.042751665935    12.000000000000
         C           -1.298991877347    -0.152757264353     0.020811334065    12.000000000000
         C            1.089126122653    -0.857106264353    -0.059309665935    12.000000000000
         C            2.811227122653     0.824843735647     0.036193334065    12.000000000000
         C           -2.000684877347    -1.333815264353     0.172409334065    12.000000000000
         C            3.515501122653    -1.614491264353    -0.082333665935    12.000000000000
         C            1.796408122653     1.787185735647     0.092818334065    12.000000000000
         C           -3.381613877347    -1.004661264353     0.076965334065    12.000000000000
         C           -3.435735877347     0.349761735647    -0.124422665935    12.000000000000
         H            0.769620122653    -1.893986264353    -0.144558665935     1.007825032230
         H            3.855081122653     1.132234735647     0.043967334065     1.007825032230
         H           -1.578847877347    -2.314127264353     0.350178334065     1.007825032230
         H            3.886938122653    -1.832550264353     0.924577334065     1.007825032230
         H            3.115848122653    -2.542258264353    -0.500572665935     1.007825032230
         H            4.369899122653    -1.304121264353    -0.690530665935     1.007825032230
         H            2.056162422653     2.896697735647     0.147834534065     1.007825032230
         H           -4.225955877347    -1.676519264353     0.152835334065     1.007825032230
         H           -4.242352877347     1.055965735647    -0.256204665935     1.007825032230

  Basis Set: AUG-CC-PVTZ
    Blend: AUG-CC-PVTZ
  Basis Set: (AUG-CC-PVTZ AUX)
    Blend: AUG-CC-PVTZ-JKFIT
	 Reference Energy          =    -513.3745575238698393 [Eh]
	 Singles Energy            =      -0.0000000000000000 [Eh]
	 Same-Spin Energy          =      -0.5592121803395924 [Eh]
	 Opposite-Spin Energy      =      -1.7140891515637442 [Eh]
	 Correlation Energy        =      -2.2733013319033368 [Eh]
	 Total Energy              =    -515.6478588557731655 [Eh]

	 ================> DF-SCS-MP2 Energies <==================
	-----------------------------------------------------------
	 SCS Same-Spin Scale       =       0.3333333333333333 [-]
	 SCS Opposite-Spin Scale   =       1.2000000000000000 [-]
	 SCS Same-Spin Energy      =      -0.1864040601131975 [Eh]
	 SCS Opposite-Spin Energy  =      -2.0569069818764931 [Eh]
	 SCS Correlation Energy    =      -2.2433110419896907 [Eh]
	 SCS Total Energy          =    -515.6178685658595668 [Eh]
	-----------------------------------------------------------

  Dipole Moment: [D]
     X:     1.4674      Y:    -2.3950      Z:    -0.0058     Total:     2.8088

*** Psi4 exiting successfully. Buy a developer a beer!
