                               Psi4 1.4a3.dev225

  ==> Input File <==

--------------------------------------------------------------------------
#psi4
#
memory 32 gb

molecule  {
0 1
  O       -2.2261580     0.9189870    -0.1609950
  N        0.4211910     1.5299470     0.0903790
  C        0.0817250     0.2107030     0.0159890
  C        2.4145630    -0.5010270    -0.0428790
  C       -1.3460660    -0.1139160     0.0206840
  C        1.0420520    -0.8182650    -0.0594370
  C        2.7641530     0.8636850     0.0360660
  C       -2.0477590    -1.2949740     0.1722820
  C        3.4684270    -1.5756500    -0.0824610
  C        1.7493340     1.8260270     0.0926910
  C       -3.4286880    -0.9658200     0.0768380
  C       -3.4828100     0.3886030    -0.1245500
  H        0.7225460    -1.8551450    -0.1446860
  H        3.8080070     1.1710760     0.0438400
  H       -1.6181241    -2.2934076     0.3533372
  H        3.8398640    -1.7937090     0.9244500
  H        3.0687740    -2.5034170    -0.5007000
  H        4.3228250    -1.2652800    -0.6906580
  H        1.9977040     2.8869120     0.1452960
  H       -4.2730300    -1.6376780     0.1527080
  H       -4.2894270     1.0948070    -0.2563320
units angstrom
no_reorient  #important for SAPT in psi4, default
symmetry c1  #important for SAPT in psi4, default
}

set PROPERTIES_ORIGIN ["COM"]
properties('MP2/aug-cc-pvtz', properties = ['dipole'])
--------------------------------------------------------------------------

    Molecular point group: c1
  Charge       = 0
  Multiplicity = 1
  Basis Set: AUG-CC-PVTZ
    Blend: AUG-CC-PVTZ
  Basis Set: (AUG-CC-PVTZ AUX)
    Blend: AUG-CC-PVTZ-JKFIT

    Orbital Energies [Eh]
    ---------------------

    Doubly Occupied:

       1A    -20.622044     2A    -15.563723     3A    -11.297424
       4A    -11.294451     5A    -11.293402     6A    -11.278724
       7A    -11.271829     8A    -11.242484     9A    -11.241206
      10A    -11.239477    11A    -11.238471    12A    -11.234112
      13A     -1.454077    14A     -1.244178    15A     -1.104268
      16A     -1.087545    17A     -1.057834    18A     -0.984240
      19A     -0.968075    20A     -0.862884    21A     -0.836169
      22A     -0.799343    23A     -0.763693    24A     -0.727188
      25A     -0.673150    26A     -0.668573    27A     -0.639652
      28A     -0.633780    29A     -0.599413    30A     -0.590604
      31A     -0.577683    32A     -0.564953    33A     -0.558587
      34A     -0.547556    35A     -0.540741    36A     -0.525378
      37A     -0.509809    38A     -0.417664    39A     -0.402593
      40A     -0.375997    41A     -0.362512    42A     -0.288000

  @DF-RHF Final Energy:  -513.37655127823280

   => Energetics <=

    Nuclear Repulsion Energy =            628.8341801245488796
    One-Electron Energy =               -1944.0544947030591629
    Two-Electron Energy =                 801.8437633002773737
    Total Energy =                       -513.3765512782327960
  Basis Set: (AUG-CC-PVTZ AUX)
    Blend: AUG-CC-PVTZ-RI
    Molecular point group: c1

    Geometry (in Angstrom), charge = 0, multiplicity = 1:

       Center              X                  Y                   Z               Mass
    ------------   -----------------  -----------------  -----------------  -----------------
         O           -2.179061154648     0.880568641165    -0.160873209756    15.994914619570
         N            0.468287845352     1.491528641165     0.090500790244    14.003074004430
         C            0.128821845352     0.172284641165     0.016110790244    12.000000000000
         C            2.461659845352    -0.539445358835    -0.042757209756    12.000000000000
         C           -1.298969154648    -0.152334358835     0.020805790244    12.000000000000
         C            1.089148845352    -0.856683358835    -0.059315209756    12.000000000000
         C            2.811249845352     0.825266641165     0.036187790244    12.000000000000
         C           -2.000662154648    -1.333392358835     0.172403790244    12.000000000000
         C            3.515523845352    -1.614068358835    -0.082339209756    12.000000000000
         C            1.796430845352     1.787608641165     0.092812790244    12.000000000000
         C           -3.381591154648    -1.004238358835     0.076959790244    12.000000000000
         C           -3.435713154648     0.350184641165    -0.124428209756    12.000000000000
         H            0.769642845352    -1.893563358835    -0.144564209756     1.007825032230
         H            3.855103845352     1.132657641165     0.043961790244     1.007825032230
         H           -1.571027254648    -2.331825958835     0.353458990244     1.007825032230
         H            3.886960845352    -1.832127358835     0.924571790244     1.007825032230
         H            3.115870845352    -2.541835358835    -0.500578209756     1.007825032230
         H            4.369921845352    -1.303698358835    -0.690536209756     1.007825032230
         H            2.044800845352     2.848493641165     0.145417790244     1.007825032230
         H           -4.225933154648    -1.676096358835     0.152829790244     1.007825032230
         H           -4.242330154648     1.056388641165    -0.256210209756     1.007825032230

  Basis Set: AUG-CC-PVTZ
    Blend: AUG-CC-PVTZ
  Basis Set: (AUG-CC-PVTZ AUX)
    Blend: AUG-CC-PVTZ-JKFIT
	 Reference Energy          =    -513.3765512782327960 [Eh]
	 Singles Energy            =      -0.0000000000000000 [Eh]
	 Same-Spin Energy          =      -0.5591160055929556 [Eh]
	 Opposite-Spin Energy      =      -1.7137772092081034 [Eh]
	 Correlation Energy        =      -2.2728932148010590 [Eh]
	 Total Energy              =    -515.6494444930339114 [Eh]

	 ================> DF-SCS-MP2 Energies <==================
	-----------------------------------------------------------
	 SCS Same-Spin Scale       =       0.3333333333333333 [-]
	 SCS Opposite-Spin Scale   =       1.2000000000000000 [-]
	 SCS Same-Spin Energy      =      -0.1863720018643185 [Eh]
	 SCS Opposite-Spin Energy  =      -2.0565326510497242 [Eh]
	 SCS Correlation Energy    =      -2.2429046529140426 [Eh]
	 SCS Total Energy          =    -515.6194559311468311 [Eh]
	-----------------------------------------------------------

  Dipole Moment: [D]
     X:     1.4794      Y:    -2.3719      Z:    -0.0048     Total:     2.7955

*** Psi4 exiting successfully. Buy a developer a beer!
