                               Psi4 1.4a3.dev225

  ==> Input File <==

--------------------------------------------------------------------------
#psi4
#
memory 32 gb

molecule  {
0 1
  O       -2.2261580     0.9189870    -0.1609950
  N        0.4211910     1.5299470     0.0903790
  C        0.0817250     0.2107030     0.0159890
  C        2.4145630    -0.5010270    -0.0428790
  C       -1.3460660    -0.1139160     0.0206840
  C        1.0420520    -0.8182650    -0.0594370
  C        2.7641530     0.8636850     0.0360660
  C       -2.0477590    -1.2949740     0.1722820
  C        3.4684270    -1.5756500    -0.0824610
  C        1.7493340     1.8260270     0.0926910
  C       -3.4286880    -0.9658200     0.0768380
  C       -3.5749074     0.3497323    -0.1218790
  H        0.7225460    -1.8551450    -0.1446860
  H        3.8080070     1.1710760     0.0438400
  H       -1.6259220    -2.2752860     0.3500510
  H        3.8398640    -1.7937090     0.9244500
  H        3.0687740    -2.5034170    -0.5007000
  H        4.3228250    -1.2652800    -0.6906580
  H        1.9977040     2.8869120     0.1452960
  H       -4.2730300    -1.6376780     0.1527080
  H       -4.2894270     1.0948070    -0.2563320
units angstrom
no_reorient  #important for SAPT in psi4, default
symmetry c1  #important for SAPT in psi4, default
}

set PROPERTIES_ORIGIN ["COM"]
properties('MP2/aug-cc-pvtz', properties = ['dipole'])
--------------------------------------------------------------------------

    Molecular point group: c1
  Charge       = 0
  Multiplicity = 1
  Basis Set: AUG-CC-PVTZ
    Blend: AUG-CC-PVTZ
  Basis Set: (AUG-CC-PVTZ AUX)
    Blend: AUG-CC-PVTZ-JKFIT

    Orbital Energies [Eh]
    ---------------------

    Doubly Occupied:

       1A    -20.605737     2A    -15.565595     3A    -11.301371
       4A    -11.294570     5A    -11.288326     6A    -11.279420
       7A    -11.272709     8A    -11.244633     9A    -11.240707
      10A    -11.240249    11A    -11.237917    12A    -11.234915
      13A     -1.416174    14A     -1.244760    15A     -1.105523
      16A     -1.086214    17A     -1.058896    18A     -0.984410
      19A     -0.968357    20A     -0.866842    21A     -0.837338
      22A     -0.793441    23A     -0.761448    24A     -0.724704
      25A     -0.673935    26A     -0.670370    27A     -0.636527
      28A     -0.613815    29A     -0.598784    30A     -0.590872
      31A     -0.580827    32A     -0.566284    33A     -0.556486
      34A     -0.549394    35A     -0.532421    36A     -0.524542
      37A     -0.509953    38A     -0.418446    39A     -0.401868
      40A     -0.378572    41A     -0.363726    42A     -0.292516

  @DF-RHF Final Energy:  -513.36596289527643

   => Energetics <=

    Nuclear Repulsion Energy =            627.1700458748242681
    One-Electron Energy =               -1940.8448280993388835
    Two-Electron Energy =                 800.3088193292383039
    Total Energy =                       -513.3659628952764251
  Basis Set: (AUG-CC-PVTZ AUX)
    Blend: AUG-CC-PVTZ-RI
    Molecular point group: c1

    Geometry (in Angstrom), charge = 0, multiplicity = 1:

       Center              X                  Y                   Z               Mass
    ------------   -----------------  -----------------  -----------------  -----------------
         O           -2.172063991029     0.883386202407    -0.161053887269    15.994914619570
         N            0.475285008971     1.494346202407     0.090320112731    14.003074004430
         C            0.135819008971     0.175102202407     0.015930112731    12.000000000000
         C            2.468657008971    -0.536627797593    -0.042937887269    12.000000000000
         C           -1.291971991029    -0.149516797593     0.020625112731    12.000000000000
         C            1.096146008971    -0.853865797593    -0.059495887269    12.000000000000
         C            2.818247008971     0.828084202407     0.036007112731    12.000000000000
         C           -1.993664991029    -1.330574797593     0.172223112731    12.000000000000
         C            3.522521008971    -1.611250797593    -0.082519887269    12.000000000000
         C            1.803428008971     1.790426202407     0.092632112731    12.000000000000
         C           -3.374593991029    -1.001420797593     0.076779112731    12.000000000000
         C           -3.520813391029     0.314131502407    -0.121937887269    12.000000000000
         H            0.776640008971    -1.890745797593    -0.144744887269     1.007825032230
         H            3.862101008971     1.135475202407     0.043781112731     1.007825032230
         H           -1.571827991029    -2.310886797593     0.349992112731     1.007825032230
         H            3.893958008971    -1.829309797593     0.924391112731     1.007825032230
         H            3.122868008971    -2.539017797593    -0.500758887269     1.007825032230
         H            4.376919008971    -1.300880797593    -0.690716887269     1.007825032230
         H            2.051798008971     2.851311202407     0.145237112731     1.007825032230
         H           -4.218935991029    -1.673278797593     0.152649112731     1.007825032230
         H           -4.235332991029     1.059206202407    -0.256390887269     1.007825032230

  Basis Set: AUG-CC-PVTZ
    Blend: AUG-CC-PVTZ
  Basis Set: (AUG-CC-PVTZ AUX)
    Blend: AUG-CC-PVTZ-JKFIT
	 Reference Energy          =    -513.3659628952764251 [Eh]
	 Singles Energy            =      -0.0000000000000000 [Eh]
	 Same-Spin Energy          =      -0.5590339309735509 [Eh]
	 Opposite-Spin Energy      =      -1.7154911687595686 [Eh]
	 Correlation Energy        =      -2.2745250997331197 [Eh]
	 Total Energy              =    -515.6404879950094937 [Eh]

	 ================> DF-SCS-MP2 Energies <==================
	-----------------------------------------------------------
	 SCS Same-Spin Scale       =       0.3333333333333333 [-]
	 SCS Opposite-Spin Scale   =       1.2000000000000000 [-]
	 SCS Same-Spin Energy      =      -0.1863446436578503 [Eh]
	 SCS Opposite-Spin Energy  =      -2.0585894025114824 [Eh]
	 SCS Correlation Energy    =      -2.2449340461693326 [Eh]
	 SCS Total Energy          =    -515.6108969414457306 [Eh]
	-----------------------------------------------------------

  Dipole Moment: [D]
     X:     1.4549      Y:    -2.4508      Z:     0.0070     Total:     2.8501

*** Psi4 exiting successfully. Buy a developer a beer!
