                               Psi4 1.4a3.dev225

  ==> Input File <==

--------------------------------------------------------------------------
#psi4
#
memory 32 gb

molecule  {
0 1
  O       -2.2261580     0.9189870    -0.1609950
  N        0.4211910     1.5299470     0.0903790
  C        0.0817250     0.2107030     0.0159890
  C        2.5097032    -0.4158782    -0.1352688
  C       -1.3460660    -0.1139160     0.0206840
  C        1.0420520    -0.8182650    -0.0594370
  C        2.7641530     0.8636850     0.0360660
  C       -2.0477590    -1.2949740     0.1722820
  C        3.4684270    -1.5756500    -0.0824610
  C        1.7493340     1.8260270     0.0926910
  C       -3.4286880    -0.9658200     0.0768380
  C       -3.4828100     0.3886030    -0.1245500
  H        0.7225460    -1.8551450    -0.1446860
  H        3.8080070     1.1710760     0.0438400
  H       -1.6259220    -2.2752860     0.3500510
  H        3.8398640    -1.7937090     0.9244500
  H        3.0687740    -2.5034170    -0.5007000
  H        4.3228250    -1.2652800    -0.6906580
  H        1.9977040     2.8869120     0.1452960
  H       -4.2730300    -1.6376780     0.1527080
  H       -4.2894270     1.0948070    -0.2563320
units angstrom
no_reorient  #important for SAPT in psi4, default
symmetry c1  #important for SAPT in psi4, default
}

set PROPERTIES_ORIGIN ["COM"]
properties('MP2/aug-cc-pvtz', properties = ['dipole'])
--------------------------------------------------------------------------

    Molecular point group: c1
  Charge       = 0
  Multiplicity = 1
  Basis Set: AUG-CC-PVTZ
    Blend: AUG-CC-PVTZ
  Basis Set: (AUG-CC-PVTZ AUX)
    Blend: AUG-CC-PVTZ-JKFIT

    Orbital Energies [Eh]
    ---------------------

    Doubly Occupied:

       1A    -20.620009     2A    -15.566571     3A    -11.295218
       4A    -11.289961     5A    -11.289903     6A    -11.285479
       7A    -11.272307     8A    -11.250495     9A    -11.240800
      10A    -11.235127    11A    -11.232225    12A    -11.231736
      13A     -1.451911    14A     -1.245416    15A     -1.110173
      16A     -1.085589    17A     -1.055458    18A     -0.985917
      19A     -0.964756    20A     -0.865837    21A     -0.836009
      22A     -0.798904    23A     -0.761777    24A     -0.725167
      25A     -0.676561    26A     -0.667038    27A     -0.640904
      28A     -0.631881    29A     -0.599061    30A     -0.592038
      31A     -0.578010    32A     -0.567406    33A     -0.561903
      34A     -0.551705    35A     -0.536815    36A     -0.525153
      37A     -0.493054    38A     -0.419208    39A     -0.402751
      40A     -0.385699    41A     -0.354533    42A     -0.285766

  @DF-RHF Final Energy:  -513.35464374396759

   => Energetics <=

    Nuclear Repulsion Energy =            628.3826932460170838
    One-Electron Energy =               -1943.1422078292050628
    Two-Electron Energy =                 801.4048708392202798
    Total Energy =                       -513.3546437439675856
  Basis Set: (AUG-CC-PVTZ AUX)
    Blend: AUG-CC-PVTZ-RI
    Molecular point group: c1

    Geometry (in Angstrom), charge = 0, multiplicity = 1:

       Center              X                  Y                   Z               Mass
    ------------   -----------------  -----------------  -----------------  -----------------
         O           -2.186189052973     0.874030265779    -0.153882572915    15.994914619570
         N            0.461159947027     1.484990265779     0.097491427085    14.003074004430
         C            0.121693947027     0.165746265779     0.023101427085    12.000000000000
         C            2.549672147027    -0.460834934221    -0.128156372915    12.000000000000
         C           -1.306097052973    -0.158872734221     0.027796427085    12.000000000000
         C            1.082020947027    -0.863221734221    -0.052324572915    12.000000000000
         C            2.804121947027     0.818728265779     0.043178427085    12.000000000000
         C           -2.007790052973    -1.339930734221     0.179394427085    12.000000000000
         C            3.508395947027    -1.620606734221    -0.075348572915    12.000000000000
         C            1.789302947027     1.781070265779     0.099803427085    12.000000000000
         C           -3.388719052973    -1.010776734221     0.083950427085    12.000000000000
         C           -3.442841052973     0.343646265779    -0.117437572915    12.000000000000
         H            0.762514947027    -1.900101734221    -0.137573572915     1.007825032230
         H            3.847975947027     1.126119265779     0.050952427085     1.007825032230
         H           -1.585953052973    -2.320242734221     0.357163427085     1.007825032230
         H            3.879832947027    -1.838665734221     0.931562427085     1.007825032230
         H            3.108742947027    -2.548373734221    -0.493587572915     1.007825032230
         H            4.362793947027    -1.310236734221    -0.683545572915     1.007825032230
         H            2.037672947027     2.841955265779     0.152408427085     1.007825032230
         H           -4.233061052973    -1.682634734221     0.159820427085     1.007825032230
         H           -4.249458052973     1.049850265779    -0.249219572915     1.007825032230

  Basis Set: AUG-CC-PVTZ
    Blend: AUG-CC-PVTZ
  Basis Set: (AUG-CC-PVTZ AUX)
    Blend: AUG-CC-PVTZ-JKFIT
	 Reference Energy          =    -513.3546437439675856 [Eh]
	 Singles Energy            =      -0.0000000000000000 [Eh]
	 Same-Spin Energy          =      -0.5591802898014822 [Eh]
	 Opposite-Spin Energy      =      -1.7152085350821384 [Eh]
	 Correlation Energy        =      -2.2743888248836206 [Eh]
	 Total Energy              =    -515.6290325688512439 [Eh]

	 ================> DF-SCS-MP2 Energies <==================
	-----------------------------------------------------------
	 SCS Same-Spin Scale       =       0.3333333333333333 [-]
	 SCS Opposite-Spin Scale   =       1.2000000000000000 [-]
	 SCS Same-Spin Energy      =      -0.1863934299338274 [Eh]
	 SCS Opposite-Spin Energy  =      -2.0582502420985662 [Eh]
	 SCS Correlation Energy    =      -2.2446436720323937 [Eh]
	 SCS Total Energy          =    -515.5992874159999246 [Eh]
	-----------------------------------------------------------

  Dipole Moment: [D]
     X:     1.5780      Y:    -2.3171      Z:     0.0392     Total:     2.8037

*** Psi4 exiting successfully. Buy a developer a beer!
