                               Psi4 1.4a3.dev225

  ==> Input File <==

--------------------------------------------------------------------------
#psi4
#
memory 32 gb

molecule  {
0 1
  O       -2.2261580     0.9189870    -0.1609950
  N        0.4211910     1.5299470     0.0903790
  C        0.0817250     0.2107030     0.0159890
  C        2.4145630    -0.5010270    -0.0428790
  C       -1.5410880    -0.1582557     0.0213253
  C        1.0420520    -0.8182650    -0.0594370
  C        2.7641530     0.8636850     0.0360660
  C       -2.0477590    -1.2949740     0.1722820
  C        3.4684270    -1.5756500    -0.0824610
  C        1.7493340     1.8260270     0.0926910
  C       -3.4286880    -0.9658200     0.0768380
  C       -3.4828100     0.3886030    -0.1245500
  H        0.7225460    -1.8551450    -0.1446860
  H        3.8080070     1.1710760     0.0438400
  H       -1.6259220    -2.2752860     0.3500510
  H        3.8398640    -1.7937090     0.9244500
  H        3.0687740    -2.5034170    -0.5007000
  H        4.3228250    -1.2652800    -0.6906580
  H        1.9977040     2.8869120     0.1452960
  H       -4.2730300    -1.6376780     0.1527080
  H       -4.2894270     1.0948070    -0.2563320
units angstrom
no_reorient  #important for SAPT in psi4, default
symmetry c1  #important for SAPT in psi4, default
}

set PROPERTIES_ORIGIN ["COM"]
properties('MP2/aug-cc-pvtz', properties = ['dipole'])
--------------------------------------------------------------------------

    Molecular point group: c1
  Charge       = 0
  Multiplicity = 1
  Basis Set: AUG-CC-PVTZ
    Blend: AUG-CC-PVTZ
  Basis Set: (AUG-CC-PVTZ AUX)
    Blend: AUG-CC-PVTZ-JKFIT

    Orbital Energies [Eh]
    ---------------------

    Doubly Occupied:

       1A    -20.631098     2A    -15.562321     3A    -11.297182
       4A    -11.294729     5A    -11.287152     6A    -11.276862
       7A    -11.269668     8A    -11.239168     9A    -11.238078
      10A    -11.236528    11A    -11.236343    12A    -11.216932
      13A     -1.498461    14A     -1.237582    15A     -1.123743
      16A     -1.101154    17A     -1.038765    18A     -0.989142
      19A     -0.966227    20A     -0.850523    21A     -0.823961
      22A     -0.816352    23A     -0.776807    24A     -0.724180
      25A     -0.671276    26A     -0.665171    27A     -0.659832
      28A     -0.630744    29A     -0.615560    30A     -0.589231
      31A     -0.582840    32A     -0.571424    33A     -0.558201
      34A     -0.548137    35A     -0.533145    36A     -0.520007
      37A     -0.482678    38A     -0.418569    39A     -0.410382
      40A     -0.365934    41A     -0.357217    42A     -0.307479

  @DF-RHF Final Energy:  -513.33306476078872

   => Energetics <=

    Nuclear Repulsion Energy =            629.5410307255058342
    One-Electron Energy =               -1945.3066158202311726
    Two-Electron Energy =                 802.4325203339366226
    Total Energy =                       -513.3330647607887158
  Basis Set: (AUG-CC-PVTZ AUX)
    Blend: AUG-CC-PVTZ-RI
    Molecular point group: c1

    Geometry (in Angstrom), charge = 0, multiplicity = 1:

       Center              X                  Y                   Z               Mass
    ------------   -----------------  -----------------  -----------------  -----------------
         O           -2.164299437592     0.883798779602    -0.160900768247    15.994914619570
         N            0.483049562408     1.494758779602     0.090473231753    14.003074004430
         C            0.143583562408     0.175514779602     0.016083231753    12.000000000000
         C            2.476421562408    -0.536215220398    -0.042784768247    12.000000000000
         C           -1.479229437592    -0.193443920398     0.021419531753    12.000000000000
         C            1.103910562408    -0.853453220398    -0.059342768247    12.000000000000
         C            2.826011562408     0.828496779602     0.036160231753    12.000000000000
         C           -1.985900437592    -1.330162220398     0.172376231753    12.000000000000
         C            3.530285562408    -1.610838220398    -0.082366768247    12.000000000000
         C            1.811192562408     1.790838779602     0.092785231753    12.000000000000
         C           -3.366829437592    -1.001008220398     0.076932231753    12.000000000000
         C           -3.420951437592     0.353414779602    -0.124455768247    12.000000000000
         H            0.784404562408    -1.890333220398    -0.144591768247     1.007825032230
         H            3.869865562408     1.135887779602     0.043934231753     1.007825032230
         H           -1.564063437592    -2.310474220398     0.350145231753     1.007825032230
         H            3.901722562408    -1.828897220398     0.924544231753     1.007825032230
         H            3.130632562408    -2.538605220398    -0.500605768247     1.007825032230
         H            4.384683562408    -1.300468220398    -0.690563768247     1.007825032230
         H            2.059562562408     2.851723779602     0.145390231753     1.007825032230
         H           -4.211171437592    -1.672866220398     0.152802231753     1.007825032230
         H           -4.227568437592     1.059618779602    -0.256237768247     1.007825032230

  Basis Set: AUG-CC-PVTZ
    Blend: AUG-CC-PVTZ
  Basis Set: (AUG-CC-PVTZ AUX)
    Blend: AUG-CC-PVTZ-JKFIT
	 Reference Energy          =    -513.3330647607887158 [Eh]
	 Singles Energy            =      -0.0000000000000000 [Eh]
	 Same-Spin Energy          =      -0.5564794356568434 [Eh]
	 Opposite-Spin Energy      =      -1.7098824182247097 [Eh]
	 Correlation Energy        =      -2.2663618538815529 [Eh]
	 Total Energy              =    -515.5994266146702785 [Eh]

	 ================> DF-SCS-MP2 Energies <==================
	-----------------------------------------------------------
	 SCS Same-Spin Scale       =       0.3333333333333333 [-]
	 SCS Opposite-Spin Scale   =       1.2000000000000000 [-]
	 SCS Same-Spin Energy      =      -0.1854931452189478 [Eh]
	 SCS Opposite-Spin Energy  =      -2.0518589018696516 [Eh]
	 SCS Correlation Energy    =      -2.2373520470885992 [Eh]
	 SCS Total Energy          =    -515.5704168078773364 [Eh]
	-----------------------------------------------------------

  Dipole Moment: [D]
     X:     1.3833      Y:    -2.4420      Z:     0.0087     Total:     2.8066

*** Psi4 exiting successfully. Buy a developer a beer!
