                               Psi4 1.4a3.dev225

  ==> Input File <==

--------------------------------------------------------------------------
#psi4
#
memory 32 gb

molecule  {
0 1
  O       -2.2261580     0.9189870    -0.1609950
  N        0.4211910     1.5299470     0.0903790
  C        0.0817250     0.2107030     0.0159890
  C        2.4145630    -0.5010270    -0.0428790
  C       -1.3669387    -0.1020773     0.0182228
  C        1.0420520    -0.8182650    -0.0594370
  C        2.7641530     0.8636850     0.0360660
  C       -2.0477590    -1.2949740     0.1722820
  C        3.4684270    -1.5756500    -0.0824610
  C        1.7493340     1.8260270     0.0926910
  C       -3.4286880    -0.9658200     0.0768380
  C       -3.4828100     0.3886030    -0.1245500
  H        0.7225460    -1.8551450    -0.1446860
  H        3.8080070     1.1710760     0.0438400
  H       -1.6259220    -2.2752860     0.3500510
  H        3.8398640    -1.7937090     0.9244500
  H        3.0687740    -2.5034170    -0.5007000
  H        4.3228250    -1.2652800    -0.6906580
  H        1.9977040     2.8869120     0.1452960
  H       -4.2730300    -1.6376780     0.1527080
  H       -4.2894270     1.0948070    -0.2563320
units angstrom
no_reorient  #important for SAPT in psi4, default
symmetry c1  #important for SAPT in psi4, default
}

set PROPERTIES_ORIGIN ["COM"]
properties('MP2/aug-cc-pvtz', properties = ['dipole'])
--------------------------------------------------------------------------

    Molecular point group: c1
  Charge       = 0
  Multiplicity = 1
  Basis Set: AUG-CC-PVTZ
    Blend: AUG-CC-PVTZ
  Basis Set: (AUG-CC-PVTZ AUX)
    Blend: AUG-CC-PVTZ-JKFIT

    Orbital Energies [Eh]
    ---------------------

    Doubly Occupied:

       1A    -20.624917     2A    -15.563767     3A    -11.297902
       4A    -11.295269     5A    -11.291584     6A    -11.278704
       7A    -11.271986     8A    -11.242718     9A    -11.239560
      10A    -11.238604    11A    -11.236602    12A    -11.234118
      13A     -1.463698    14A     -1.243838    15A     -1.104375
      16A     -1.088087    17A     -1.056314    18A     -0.985122
      19A     -0.968249    20A     -0.861489    21A     -0.835122
      22A     -0.803144    23A     -0.765919    24A     -0.728247
      25A     -0.673234    26A     -0.668347    27A     -0.640586
      28A     -0.637898    29A     -0.600396    30A     -0.590718
      31A     -0.578243    32A     -0.568991    33A     -0.558937
      34A     -0.547989    35A     -0.540009    36A     -0.525052
      37A     -0.508123    38A     -0.417808    39A     -0.401917
      40A     -0.375114    41A     -0.362334    42A     -0.288677

  @DF-RHF Final Energy:  -513.37770300426109

   => Energetics <=

    Nuclear Repulsion Energy =            629.0389000813606799
    One-Electron Energy =               -1944.4257856570170588
    Two-Electron Energy =                 802.0091825713952858
    Total Energy =                       -513.3777030042610932
  Basis Set: (AUG-CC-PVTZ AUX)
    Blend: AUG-CC-PVTZ-RI
    Molecular point group: c1

    Geometry (in Angstrom), charge = 0, multiplicity = 1:

       Center              X                  Y                   Z               Mass
    ------------   -----------------  -----------------  -----------------  -----------------
         O           -2.177437128152     0.879560723891    -0.160666718010    15.994914619570
         N            0.469911871848     1.490520723891     0.090707281990    14.003074004430
         C            0.130445871848     0.171276723891     0.016317281990    12.000000000000
         C            2.463283871848    -0.540453276109    -0.042550718010    12.000000000000
         C           -1.318217828152    -0.141503576109     0.018551081990    12.000000000000
         C            1.090772871848    -0.857691276109    -0.059108718010    12.000000000000
         C            2.812873871848     0.824258723891     0.036394281990    12.000000000000
         C           -1.999038128152    -1.334400276109     0.172610281990    12.000000000000
         C            3.517147871848    -1.615076276109    -0.082132718010    12.000000000000
         C            1.798054871848     1.786600723891     0.093019281990    12.000000000000
         C           -3.379967128152    -1.005246276109     0.077166281990    12.000000000000
         C           -3.434089128152     0.349176723891    -0.124221718010    12.000000000000
         H            0.771266871848    -1.894571276109    -0.144357718010     1.007825032230
         H            3.856727871848     1.131649723891     0.044168281990     1.007825032230
         H           -1.577201128152    -2.314712276109     0.350379281990     1.007825032230
         H            3.888584871848    -1.833135276109     0.924778281990     1.007825032230
         H            3.117494871848    -2.542843276109    -0.500371718010     1.007825032230
         H            4.371545871848    -1.304706276109    -0.690329718010     1.007825032230
         H            2.046424871848     2.847485723891     0.145624281990     1.007825032230
         H           -4.224309128152    -1.677104276109     0.153036281990     1.007825032230
         H           -4.240706128152     1.055380723891    -0.256003718010     1.007825032230

  Basis Set: AUG-CC-PVTZ
    Blend: AUG-CC-PVTZ
  Basis Set: (AUG-CC-PVTZ AUX)
    Blend: AUG-CC-PVTZ-JKFIT
	 Reference Energy          =    -513.3777030042610932 [Eh]
	 Singles Energy            =      -0.0000000000000000 [Eh]
	 Same-Spin Energy          =      -0.5587839417454105 [Eh]
	 Opposite-Spin Energy      =      -1.7129041594628784 [Eh]
	 Correlation Energy        =      -2.2716881012082890 [Eh]
	 Total Energy              =    -515.6493911054693626 [Eh]

	 ================> DF-SCS-MP2 Energies <==================
	-----------------------------------------------------------
	 SCS Same-Spin Scale       =       0.3333333333333333 [-]
	 SCS Opposite-Spin Scale   =       1.2000000000000000 [-]
	 SCS Same-Spin Energy      =      -0.1862613139151368 [Eh]
	 SCS Opposite-Spin Energy  =      -2.0554849913554540 [Eh]
	 SCS Correlation Energy    =      -2.2417463052705910 [Eh]
	 SCS Total Energy          =    -515.6194493095316602 [Eh]
	-----------------------------------------------------------

  Dipole Moment: [D]
     X:     1.4709      Y:    -2.3501      Z:    -0.0092     Total:     2.7724

*** Psi4 exiting successfully. Buy a developer a beer!
